 Entering Gaussian System, Link 0=g09
 Initial command:
 /apps/z_install_tree/linux-rocky8-ivybridge/gcc-12.2.0/gaussian-09-D.01-wczn3gur5lpur3omlkzwa2l5ecyxp5ef/g09/l1.exe "/srv/scratch/z5358697/00-test/Gau-2625254.inp" -scrdir="/srv/scratch/z5358697/00-test/"
 Entering Link 1 = /apps/z_install_tree/linux-rocky8-ivybridge/gcc-12.2.0/gaussian-09-D.01-wczn3gur5lpur3omlkzwa2l5ecyxp5ef/g09/l1.exe PID=   2625255.
  
 Copyright (c) 1988,1990,1992,1993,1995,1998,2003,2009,2013,
            Gaussian, Inc.  All Rights Reserved.
  
 This is part of the Gaussian(R) 09 program.  It is based on
 the Gaussian(R) 03 system (copyright 2003, Gaussian, Inc.),
 the Gaussian(R) 98 system (copyright 1998, Gaussian, Inc.),
 the Gaussian(R) 94 system (copyright 1995, Gaussian, Inc.),
 the Gaussian 92(TM) system (copyright 1992, Gaussian, Inc.),
 the Gaussian 90(TM) system (copyright 1990, Gaussian, Inc.),
 the Gaussian 88(TM) system (copyright 1988, Gaussian, Inc.),
 the Gaussian 86(TM) system (copyright 1986, Carnegie Mellon
 University), and the Gaussian 82(TM) system (copyright 1983,
 Carnegie Mellon University). Gaussian is a federally registered
 trademark of Gaussian, Inc.
  
 This software contains proprietary and confidential information,
 including trade secrets, belonging to Gaussian, Inc.
  
 This software is provided under written license and may be
 used, copied, transmitted, or stored only in accord with that
 written license.
  
 The following legend is applicable only to US Government
 contracts under FAR:
  
                    RESTRICTED RIGHTS LEGEND
  
 Use, reproduction and disclosure by the US Government is
 subject to restrictions as set forth in subparagraphs (a)
 and (c) of the Commercial Computer Software - Restricted
 Rights clause in FAR 52.227-19.
  
 Gaussian, Inc.
 340 Quinnipiac St., Bldg. 40, Wallingford CT 06492
  
  
 ---------------------------------------------------------------
 Warning -- This program may not be used in any manner that
 competes with the business of Gaussian, Inc. or will provide
 assistance to any competitor of Gaussian, Inc.  The licensee
 of this program is prohibited from giving any competitor of
 Gaussian, Inc. access to this program.  By using this program,
 the user acknowledges that Gaussian, Inc. is engaged in the
 business of creating and licensing software in the field of
 computational chemistry and represents and warrants to the
 licensee that it is not a competitor of Gaussian, Inc. and that
 it will not use this program in any manner prohibited above.
 ---------------------------------------------------------------
  

 Cite this work as:
 Gaussian 09, Revision D.01,
 M. J. Frisch, G. W. Trucks, H. B. Schlegel, G. E. Scuseria, 
 M. A. Robb, J. R. Cheeseman, G. Scalmani, V. Barone, B. Mennucci, 
 G. A. Petersson, H. Nakatsuji, M. Caricato, X. Li, H. P. Hratchian, 
 A. F. Izmaylov, J. Bloino, G. Zheng, J. L. Sonnenberg, M. Hada, 
 M. Ehara, K. Toyota, R. Fukuda, J. Hasegawa, M. Ishida, T. Nakajima, 
 Y. Honda, O. Kitao, H. Nakai, T. Vreven, J. A. Montgomery, Jr., 
 J. E. Peralta, F. Ogliaro, M. Bearpark, J. J. Heyd, E. Brothers, 
 K. N. Kudin, V. N. Staroverov, T. Keith, R. Kobayashi, J. Normand, 
 K. Raghavachari, A. Rendell, J. C. Burant, S. S. Iyengar, J. Tomasi, 
 M. Cossi, N. Rega, J. M. Millam, M. Klene, J. E. Knox, J. B. Cross, 
 V. Bakken, C. Adamo, J. Jaramillo, R. Gomperts, R. E. Stratmann, 
 O. Yazyev, A. J. Austin, R. Cammi, C. Pomelli, J. W. Ochterski, 
 R. L. Martin, K. Morokuma, V. G. Zakrzewski, G. A. Voth, 
 P. Salvador, J. J. Dannenberg, S. Dapprich, A. D. Daniels, 
 O. Farkas, J. B. Foresman, J. V. Ortiz, J. Cioslowski, 
 and D. J. Fox, Gaussian, Inc., Wallingford CT, 2013.
 
 ******************************************
 Gaussian 09:  ES64L-G09RevD.01 24-Apr-2013
                10-Mar-2025 
 ******************************************
 %mem=20gb
 %nproc=16
 Will use up to   16 processors via shared memory.
 ---------------------------------
 #m062X/6-31+G(d) OPT Freq=noraman
 ---------------------------------
 1/14=-1,18=20,19=15,26=3,38=1/1,3;
 2/9=110,12=2,17=6,18=5,40=1/2;
 3/5=1,6=6,7=11,11=2,16=1,25=1,30=1,71=1,74=-55/1,2,3;
 4//1;
 5/5=2,38=5/2;
 6/7=2,8=2,9=2,10=2,28=1/1;
 7//1,2,3,16;
 1/14=-1,18=20,19=15,26=3/3(2);
 2/9=110/2;
 99//99;
 2/9=110/2;
 3/5=1,6=6,7=11,11=2,16=1,25=1,30=1,71=1,74=-55/1,2,3;
 4/5=5,16=3,69=1/1;
 5/5=2,38=5/2;
 7//1,2,3,16;
 1/14=-1,18=20,19=15,26=3/3(-5);
 2/9=110/2;
 6/7=2,8=2,9=2,10=2,19=2,28=1/1;
 99/9=1/99;
 ------------
 methane.freq
 ------------
 Symbolic Z-matrix:
 Charge =  0 Multiplicity = 1
 C                     0.        0.        0. 
 H                     0.61776  -0.61776   0.61776 
 H                     0.61776   0.61776  -0.61776 
 H                    -0.61776   0.61776   0.61776 
 H                    -0.61776  -0.61776  -0.61776 
 

 GradGradGradGradGradGradGradGradGradGradGradGradGradGradGradGradGradGrad
 Berny optimization.
 Initialization pass.
                           ----------------------------
                           !    Initial Parameters    !
                           ! (Angstroms and Degrees)  !
 --------------------------                            --------------------------
 ! Name  Definition              Value          Derivative Info.                !
 --------------------------------------------------------------------------------
 ! R1    R(1,2)                  1.07           estimate D2E/DX2                !
 ! R2    R(1,3)                  1.07           estimate D2E/DX2                !
 ! R3    R(1,4)                  1.07           estimate D2E/DX2                !
 ! R4    R(1,5)                  1.07           estimate D2E/DX2                !
 ! A1    A(2,1,3)              109.4712         estimate D2E/DX2                !
 ! A2    A(2,1,4)              109.4712         estimate D2E/DX2                !
 ! A3    A(2,1,5)              109.4712         estimate D2E/DX2                !
 ! A4    A(3,1,4)              109.4712         estimate D2E/DX2                !
 ! A5    A(3,1,5)              109.4712         estimate D2E/DX2                !
 ! A6    A(4,1,5)              109.4712         estimate D2E/DX2                !
 ! D1    D(2,1,4,3)            120.0            estimate D2E/DX2                !
 ! D2    D(2,1,5,3)           -120.0            estimate D2E/DX2                !
 ! D3    D(2,1,5,4)            120.0            estimate D2E/DX2                !
 ! D4    D(3,1,5,4)           -120.0            estimate D2E/DX2                !
 --------------------------------------------------------------------------------
 Trust Radius=3.00D-01 FncErr=1.00D-07 GrdErr=1.00D-06
 Number of steps in this run=     24 maximum allowed number of steps=    100.
 GradGradGradGradGradGradGradGradGradGradGradGradGradGradGradGradGradGrad

                          Input orientation:                          
 ---------------------------------------------------------------------
 Center     Atomic      Atomic             Coordinates (Angstroms)
 Number     Number       Type             X           Y           Z
 ---------------------------------------------------------------------
      1          6           0        0.000000    0.000000    0.000000
      2          1           0        0.617760   -0.617760    0.617760
      3          1           0        0.617760    0.617760   -0.617760
      4          1           0       -0.617760    0.617760    0.617760
      5          1           0       -0.617760   -0.617760   -0.617760
 ---------------------------------------------------------------------
                    Distance matrix (angstroms):
                    1          2          3          4          5
     1  C    0.000000
     2  H    1.069992   0.000000
     3  H    1.069992   1.747289   0.000000
     4  H    1.069992   1.747289   1.747289   0.000000
     5  H    1.069992   1.747289   1.747289   1.747289   0.000000
 Stoichiometry    CH4
 Framework group  TD[O(C),4C3(H)]
 Deg. of freedom     1
 Full point group                 TD      NOp  24
 Largest Abelian subgroup         D2      NOp   4
 Largest concise Abelian subgroup D2      NOp   4
                         Standard orientation:                         
 ---------------------------------------------------------------------
 Center     Atomic      Atomic             Coordinates (Angstroms)
 Number     Number       Type             X           Y           Z
 ---------------------------------------------------------------------
      1          6           0        0.000000    0.000000    0.000000
      2          1           0        0.617760    0.617760    0.617760
      3          1           0       -0.617760   -0.617760    0.617760
      4          1           0        0.617760   -0.617760   -0.617760
      5          1           0       -0.617760    0.617760   -0.617760
 ---------------------------------------------------------------------
 Rotational constants (GHZ):    164.2489104    164.2489104    164.2489104
 Standard basis: 6-31+G(d) (6D, 7F)
 There are     9 symmetry adapted cartesian basis functions of A   symmetry.
 There are     6 symmetry adapted cartesian basis functions of B1  symmetry.
 There are     6 symmetry adapted cartesian basis functions of B2  symmetry.
 There are     6 symmetry adapted cartesian basis functions of B3  symmetry.
 There are     9 symmetry adapted basis functions of A   symmetry.
 There are     6 symmetry adapted basis functions of B1  symmetry.
 There are     6 symmetry adapted basis functions of B2  symmetry.
 There are     6 symmetry adapted basis functions of B3  symmetry.
    27 basis functions,    48 primitive gaussians,    27 cartesian basis functions
     5 alpha electrons        5 beta electrons
       nuclear repulsion energy        13.6866240446 Hartrees.
 NAtoms=    5 NActive=    5 NUniq=    2 SFac= 4.00D+00 NAtFMM=   60 NAOKFM=F Big=F
 Integral buffers will be    131072 words long.
 Raffenetti 2 integral format.
 Two-electron integral symmetry is turned on.
 One-electron integrals computed using PRISM.
 NBasis=    27 RedAO= T EigKep=  1.23D-02  NBF=     9     6     6     6
 NBsUse=    27 1.00D-06 EigRej= -1.00D+00 NBFU=     9     6     6     6
 ExpMin= 4.38D-02 ExpMax= 3.05D+03 ExpMxC= 4.57D+02 IAcc=2 IRadAn=         4 AccDes= 0.00D+00
 Harris functional with IExCor= 1009 and IRadAn=       4 diagonalized for initial guess.
 HarFok:  IExCor= 1009 AccDes= 0.00D+00 IRadAn=         4 IDoV= 1 UseB2=F ITyADJ=14
 ICtDFT=  3500011 ScaDFX=  1.000000  1.000000  1.000000  1.000000
 FoFCou: FMM=F IPFlag=           0 FMFlag=      100000 FMFlg1=           0
         NFxFlg=           0 DoJE=T BraDBF=F KetDBF=T FulRan=T
         wScrn=  0.000000 ICntrl=     500 IOpCl=  0 I1Cent=   200000004 NGrid=           0
         NMat0=    1 NMatS0=      1 NMatT0=    0 NMatD0=    1 NMtDS0=    0 NMtDT0=    0
 Petite list used in FoFCou.
 Initial guess orbital symmetries:
       Occupied  (A1) (A1) (T2) (T2) (T2)
       Virtual   (A1) (T2) (T2) (T2) (T2) (T2) (T2) (A1) (T2) (T2)
                 (T2) (T2) (T2) (T2) (A1) (A1) (E) (E) (T2) (T2)
                 (T2) (A1)
 The electronic state of the initial guess is 1-A1.
 Keep R1 ints in memory in symmetry-blocked form, NReq=955479.
 Requested convergence on RMS density matrix=1.00D-08 within 128 cycles.
 Requested convergence on MAX density matrix=1.00D-06.
 Requested convergence on             energy=1.00D-06.
 No special actions if energy rises.
 SCF Done:  E(RM062X) =  -40.4823125009     A.U. after    7 cycles
            NFock=  7  Conv=0.23D-08     -V/T= 2.0068

 **********************************************************************

            Population analysis using the SCF density.

 **********************************************************************

 Orbital symmetries:
       Occupied  (A1) (A1) (T2) (T2) (T2)
       Virtual   (A1) (T2) (T2) (T2) (T2) (T2) (T2) (A1) (T2) (T2)
                 (T2) (T2) (T2) (T2) (A1) (A1) (E) (E) (T2) (T2)
                 (T2) (A1)
 The electronic state is 1-A1.
 Alpha  occ. eigenvalues --  -10.51772  -0.79352  -0.46076  -0.46076  -0.46076
 Alpha virt. eigenvalues --    0.03928   0.07102   0.07102   0.07102   0.23671
 Alpha virt. eigenvalues --    0.23671   0.23671   0.31810   0.68702   0.68702
 Alpha virt. eigenvalues --    0.68702   1.01355   1.01355   1.01355   1.12867
 Alpha virt. eigenvalues --    1.20879   1.70583   1.70583   2.36499   2.36499
 Alpha virt. eigenvalues --    2.36499   4.26517
          Condensed to atoms (all electrons):
               1          2          3          4          5
     1  C    5.290628   0.382981   0.382981   0.382981   0.382981
     2  H    0.382981   0.483512  -0.024044  -0.024044  -0.024044
     3  H    0.382981  -0.024044   0.483512  -0.024044  -0.024044
     4  H    0.382981  -0.024044  -0.024044   0.483512  -0.024044
     5  H    0.382981  -0.024044  -0.024044  -0.024044   0.483512
 Mulliken charges:
               1
     1  C   -0.822552
     2  H    0.205638
     3  H    0.205638
     4  H    0.205638
     5  H    0.205638
 Sum of Mulliken charges =   0.00000
 Mulliken charges with hydrogens summed into heavy atoms:
               1
     1  C    0.000000
 Electronic spatial extent (au):  <R**2>=             35.1157
 Charge=              0.0000 electrons
 Dipole moment (field-independent basis, Debye):
    X=              0.0000    Y=              0.0000    Z=              0.0000  Tot=              0.0000
 Quadrupole moment (field-independent basis, Debye-Ang):
   XX=             -8.4118   YY=             -8.4118   ZZ=             -8.4118
   XY=              0.0000   XZ=              0.0000   YZ=              0.0000
 Traceless Quadrupole moment (field-independent basis, Debye-Ang):
   XX=              0.0000   YY=              0.0000   ZZ=              0.0000
   XY=              0.0000   XZ=              0.0000   YZ=              0.0000
 Octapole moment (field-independent basis, Debye-Ang**2):
  XXX=              0.0000  YYY=              0.0000  ZZZ=              0.0000  XYY=              0.0000
  XXY=              0.0000  XXZ=              0.0000  XZZ=              0.0000  YZZ=              0.0000
  YYZ=              0.0000  XYZ=              0.7043
 Hexadecapole moment (field-independent basis, Debye-Ang**3):
 XXXX=            -16.4852 YYYY=            -16.4852 ZZZZ=            -16.4852 XXXY=              0.0000
 XXXZ=              0.0000 YYYX=              0.0000 YYYZ=              0.0000 ZZZX=              0.0000
 ZZZY=              0.0000 XXYY=             -5.0553 XXZZ=             -5.0553 YYZZ=             -5.0553
 XXYZ=              0.0000 YYXZ=              0.0000 ZZXY=              0.0000
 N-N= 1.368662404463D+01 E-N=-1.204405479227D+02  KE= 4.020794698025D+01
 Symmetry A    KE= 3.436968176233D+01
 Symmetry B1   KE= 1.946088405974D+00
 Symmetry B2   KE= 1.946088405974D+00
 Symmetry B3   KE= 1.946088405974D+00
 Calling FoFJK, ICntrl=      2127 FMM=F ISym2X=1 I1Cent= 0 IOpClX= 0 NMat=1 NMatS=1 NMatT=0.
 ***** Axes restored to original set *****
 -------------------------------------------------------------------
 Center     Atomic                   Forces (Hartrees/Bohr)
 Number     Number              X              Y              Z
 -------------------------------------------------------------------
      1        6           0.000000000    0.000000000    0.000000000
      2        1           0.009131016   -0.009131016    0.009131016
      3        1           0.009131016    0.009131016   -0.009131016
      4        1          -0.009131016    0.009131016    0.009131016
      5        1          -0.009131016   -0.009131016   -0.009131016
 -------------------------------------------------------------------
 Cartesian Forces:  Max     0.009131016 RMS     0.008167029

 GradGradGradGradGradGradGradGradGradGradGradGradGradGradGradGradGradGrad
 Berny optimization.
 FormGI is forming the generalized inverse of G from B-inverse, IUseBI=4.
 Internal  Forces:  Max     0.015815384 RMS     0.008453678
 Search for a local minimum.
 Step number   1 out of a maximum of   24
 All quantities printed in internal units (Hartrees-Bohrs-Radians)
 Mixed Optimization -- RFO/linear search
 Second derivative matrix not updated -- first step.
 The second derivative matrix:
                          R1        R2        R3        R4        A1
           R1           0.37231
           R2           0.00000   0.37231
           R3           0.00000   0.00000   0.37231
           R4           0.00000   0.00000   0.00000   0.37231
           A1           0.00000   0.00000   0.00000   0.00000   0.16000
           A2           0.00000   0.00000   0.00000   0.00000   0.00000
           A3           0.00000   0.00000   0.00000   0.00000   0.00000
           A4           0.00000   0.00000   0.00000   0.00000   0.00000
           A5           0.00000   0.00000   0.00000   0.00000   0.00000
           A6           0.00000   0.00000   0.00000   0.00000   0.00000
           D1           0.00000   0.00000   0.00000   0.00000   0.00000
           D2           0.00000   0.00000   0.00000   0.00000   0.00000
           D3           0.00000   0.00000   0.00000   0.00000   0.00000
           D4           0.00000   0.00000   0.00000   0.00000   0.00000
                          A2        A3        A4        A5        A6
           A2           0.16000
           A3           0.00000   0.16000
           A4           0.00000   0.00000   0.16000
           A5           0.00000   0.00000   0.00000   0.16000
           A6           0.00000   0.00000   0.00000   0.00000   0.16000
           D1           0.00000   0.00000   0.00000   0.00000   0.00000
           D2           0.00000   0.00000   0.00000   0.00000   0.00000
           D3           0.00000   0.00000   0.00000   0.00000   0.00000
           D4           0.00000   0.00000   0.00000   0.00000   0.00000
                          D1        D2        D3        D4
           D1           0.00500
           D2           0.00000   0.00500
           D3           0.00000   0.00000   0.00500
           D4           0.00000   0.00000   0.00000   0.00500
 ITU=  0
     Eigenvalues ---    0.05269   0.05891   0.08766   0.16000   0.16000
     Eigenvalues ---    0.37231   0.37231   0.37231   0.37231
 RFO step:  Lambda=-2.66816017D-03 EMin= 5.26888560D-02
 Linear search not attempted -- first point.
 Iteration  1 RMS(Cart)=  0.02254436 RMS(Int)=  0.00000000
 Iteration  2 RMS(Cart)=  0.00000000 RMS(Int)=  0.00000000
 ClnCor:  largest displacement from symmetrization is 7.20D-15 for atom     3.
 Variable       Old X    -DE/DX   Delta X   Delta X   Delta X     New X
                                 (Linear)    (Quad)   (Total)
    R1        2.02199   0.01582   0.00000   0.04218   0.04218   2.06417
    R2        2.02199   0.01582   0.00000   0.04218   0.04218   2.06417
    R3        2.02199   0.01582   0.00000   0.04218   0.04218   2.06417
    R4        2.02199   0.01582   0.00000   0.04218   0.04218   2.06417
    A1        1.91063   0.00000   0.00000   0.00000   0.00000   1.91063
    A2        1.91063   0.00000   0.00000   0.00000   0.00000   1.91063
    A3        1.91063   0.00000   0.00000   0.00000   0.00000   1.91063
    A4        1.91063   0.00000   0.00000   0.00000   0.00000   1.91063
    A5        1.91063   0.00000   0.00000   0.00000   0.00000   1.91063
    A6        1.91063   0.00000   0.00000   0.00000   0.00000   1.91063
    D1        2.09440   0.00000   0.00000   0.00000   0.00000   2.09440
    D2       -2.09440   0.00000   0.00000   0.00000   0.00000  -2.09440
    D3        2.09440   0.00000   0.00000   0.00000   0.00000   2.09440
    D4       -2.09440   0.00000   0.00000   0.00000   0.00000  -2.09440
         Item               Value     Threshold  Converged?
 Maximum Force            0.015815     0.000450     NO 
 RMS     Force            0.008454     0.000300     NO 
 Maximum Displacement     0.024351     0.001800     NO 
 RMS     Displacement     0.022544     0.001200     NO 
 Predicted change in Energy=-1.343572D-03
 GradGradGradGradGradGradGradGradGradGradGradGradGradGradGradGradGradGrad

                          Input orientation:                          
 ---------------------------------------------------------------------
 Center     Atomic      Atomic             Coordinates (Angstroms)
 Number     Number       Type             X           Y           Z
 ---------------------------------------------------------------------
      1          6           0        0.000000    0.000000    0.000000
      2          1           0        0.630646   -0.630646    0.630646
      3          1           0        0.630646    0.630646   -0.630646
      4          1           0       -0.630646    0.630646    0.630646
      5          1           0       -0.630646   -0.630646   -0.630646
 ---------------------------------------------------------------------
                    Distance matrix (angstroms):
                    1          2          3          4          5
     1  C    0.000000
     2  H    1.092311   0.000000
     3  H    1.092311   1.783736   0.000000
     4  H    1.092311   1.783736   1.783736   0.000000
     5  H    1.092311   1.783736   1.783736   1.783736   0.000000
 Stoichiometry    CH4
 Framework group  TD[O(C),4C3(H)]
 Deg. of freedom     1
 Full point group                 TD      NOp  24
 Largest Abelian subgroup         D2      NOp   4
 Largest concise Abelian subgroup D2      NOp   4
                         Standard orientation:                         
 ---------------------------------------------------------------------
 Center     Atomic      Atomic             Coordinates (Angstroms)
 Number     Number       Type             X           Y           Z
 ---------------------------------------------------------------------
      1          6           0        0.000000    0.000000    0.000000
      2          1           0        0.630646    0.630646    0.630646
      3          1           0       -0.630646   -0.630646    0.630646
      4          1           0        0.630646   -0.630646   -0.630646
      5          1           0       -0.630646    0.630646   -0.630646
 ---------------------------------------------------------------------
 Rotational constants (GHZ):    157.6053677    157.6053677    157.6053677
 Standard basis: 6-31+G(d) (6D, 7F)
 There are     9 symmetry adapted cartesian basis functions of A   symmetry.
 There are     6 symmetry adapted cartesian basis functions of B1  symmetry.
 There are     6 symmetry adapted cartesian basis functions of B2  symmetry.
 There are     6 symmetry adapted cartesian basis functions of B3  symmetry.
 There are     9 symmetry adapted basis functions of A   symmetry.
 There are     6 symmetry adapted basis functions of B1  symmetry.
 There are     6 symmetry adapted basis functions of B2  symmetry.
 There are     6 symmetry adapted basis functions of B3  symmetry.
    27 basis functions,    48 primitive gaussians,    27 cartesian basis functions
     5 alpha electrons        5 beta electrons
       nuclear repulsion energy        13.4069685756 Hartrees.
 NAtoms=    5 NActive=    5 NUniq=    2 SFac= 4.00D+00 NAtFMM=   60 NAOKFM=F Big=F
 Integral buffers will be    131072 words long.
 Raffenetti 2 integral format.
 Two-electron integral symmetry is turned on.
 One-electron integrals computed using PRISM.
 NBasis=    27 RedAO= T EigKep=  1.34D-02  NBF=     9     6     6     6
 NBsUse=    27 1.00D-06 EigRej= -1.00D+00 NBFU=     9     6     6     6
 Initial guess from the checkpoint file:  "/srv/scratch/z5358697/00-test/Gau-2625255.chk"
 B after Tr=     0.000000    0.000000    0.000000
         Rot=    1.000000    0.000000    0.000000    0.000000 Ang=   0.00 deg.
 Initial guess orbital symmetries:
       Occupied  (A1) (A1) (T2) (T2) (T2)
       Virtual   (A1) (A1) (E) (E) (A1) (A1) (A1) (T2) (T2) (T2)
                 (T2) (T2) (T2) (T2) (T2) (T2) (T2) (T2) (T2) (T2)
                 (T2) (T2)
 ExpMin= 4.38D-02 ExpMax= 3.05D+03 ExpMxC= 4.57D+02 IAcc=2 IRadAn=         4 AccDes= 0.00D+00
 Harris functional with IExCor= 1009 and IRadAn=       4 diagonalized for initial guess.
 HarFok:  IExCor= 1009 AccDes= 0.00D+00 IRadAn=         4 IDoV= 1 UseB2=F ITyADJ=14
 ICtDFT=  3500011 ScaDFX=  1.000000  1.000000  1.000000  1.000000
 FoFCou: FMM=F IPFlag=           0 FMFlag=      100000 FMFlg1=           0
         NFxFlg=           0 DoJE=T BraDBF=F KetDBF=T FulRan=T
         wScrn=  0.000000 ICntrl=     500 IOpCl=  0 I1Cent=   200000004 NGrid=           0
         NMat0=    1 NMatS0=      1 NMatT0=    0 NMatD0=    1 NMtDS0=    0 NMtDT0=    0
 Petite list used in FoFCou.
 Keep R1 ints in memory in symmetry-blocked form, NReq=955479.
 Requested convergence on RMS density matrix=1.00D-08 within 128 cycles.
 Requested convergence on MAX density matrix=1.00D-06.
 Requested convergence on             energy=1.00D-06.
 No special actions if energy rises.
 SCF Done:  E(RM062X) =  -40.4835867203     A.U. after    7 cycles
            NFock=  7  Conv=0.20D-08     -V/T= 2.0099
 Calling FoFJK, ICntrl=      2127 FMM=F ISym2X=1 I1Cent= 0 IOpClX= 0 NMat=1 NMatS=1 NMatT=0.
 ***** Axes restored to original set *****
 -------------------------------------------------------------------
 Center     Atomic                   Forces (Hartrees/Bohr)
 Number     Number              X              Y              Z
 -------------------------------------------------------------------
      1        6           0.000000000    0.000000000    0.000000000
      2        1          -0.000227237    0.000227237   -0.000227237
      3        1          -0.000227237   -0.000227237    0.000227237
      4        1           0.000227237   -0.000227237   -0.000227237
      5        1           0.000227237    0.000227237    0.000227237
 -------------------------------------------------------------------
 Cartesian Forces:  Max     0.000227237 RMS     0.000203247

 GradGradGradGradGradGradGradGradGradGradGradGradGradGradGradGradGradGrad
 Berny optimization.
 Using GEDIIS/GDIIS optimizer.
 FormGI is forming the generalized inverse of G from B-inverse, IUseBI=4.
 Internal  Forces:  Max     0.000393586 RMS     0.000210380
 Search for a local minimum.
 Step number   2 out of a maximum of   24
 All quantities printed in internal units (Hartrees-Bohrs-Radians)
 Mixed Optimization -- En-DIIS/RFO-DIIS
 Update second derivatives using D2CorX and points    1    2
 DE= -1.27D-03 DEPred=-1.34D-03 R= 9.48D-01
 TightC=F SS=  1.41D+00  RLast= 8.44D-02 DXNew= 5.0454D-01 2.5306D-01
 Trust test= 9.48D-01 RLast= 8.44D-02 DXMaxT set to 3.00D-01
 The second derivative matrix:
                          R1        R2        R3        R4        A1
           R1           0.37531
           R2           0.00300   0.37531
           R3           0.00300   0.00300   0.37531
           R4           0.00300   0.00300   0.00300   0.37531
           A1           0.00000   0.00000   0.00000   0.00000   0.16000
           A2           0.00000   0.00000   0.00000   0.00000   0.00000
           A3           0.00000   0.00000   0.00000   0.00000   0.00000
           A4           0.00000   0.00000   0.00000   0.00000   0.00000
           A5           0.00000   0.00000   0.00000   0.00000   0.00000
           A6           0.00000   0.00000   0.00000   0.00000   0.00000
           D1           0.00000   0.00000   0.00000   0.00000   0.00000
           D2           0.00000   0.00000   0.00000   0.00000   0.00000
           D3           0.00000   0.00000   0.00000   0.00000   0.00000
           D4           0.00000   0.00000   0.00000   0.00000   0.00000
                          A2        A3        A4        A5        A6
           A2           0.16000
           A3           0.00000   0.16000
           A4           0.00000   0.00000   0.16000
           A5           0.00000   0.00000   0.00000   0.16000
           A6           0.00000   0.00000   0.00000   0.00000   0.16000
           D1           0.00000   0.00000   0.00000   0.00000   0.00000
           D2           0.00000   0.00000   0.00000   0.00000   0.00000
           D3           0.00000   0.00000   0.00000   0.00000   0.00000
           D4           0.00000   0.00000   0.00000   0.00000   0.00000
                          D1        D2        D3        D4
           D1           0.00500
           D2           0.00000   0.00500
           D3           0.00000   0.00000   0.00500
           D4           0.00000   0.00000   0.00000   0.00500
 ITU=  1  0
 Use linear search instead of GDIIS.
     Eigenvalues ---    0.05269   0.05891   0.08766   0.16000   0.16000
     Eigenvalues ---    0.37231   0.37231   0.37231   0.38431
 RFO step:  Lambda= 0.00000000D+00 EMin= 5.26888560D-02
 Quartic linear search produced a step of -0.02574.
 Iteration  1 RMS(Cart)=  0.00058018 RMS(Int)=  0.00000000
 Iteration  2 RMS(Cart)=  0.00000000 RMS(Int)=  0.00000000
 ClnCor:  largest displacement from symmetrization is 8.10D-15 for atom     5.
 Variable       Old X    -DE/DX   Delta X   Delta X   Delta X     New X
                                 (Linear)    (Quad)   (Total)
    R1        2.06417  -0.00039  -0.00109   0.00000  -0.00109   2.06308
    R2        2.06417  -0.00039  -0.00109   0.00000  -0.00109   2.06308
    R3        2.06417  -0.00039  -0.00109   0.00000  -0.00109   2.06308
    R4        2.06417  -0.00039  -0.00109   0.00000  -0.00109   2.06308
    A1        1.91063   0.00000   0.00000   0.00000   0.00000   1.91063
    A2        1.91063   0.00000   0.00000   0.00000   0.00000   1.91063
    A3        1.91063   0.00000   0.00000   0.00000   0.00000   1.91063
    A4        1.91063   0.00000   0.00000   0.00000   0.00000   1.91063
    A5        1.91063   0.00000   0.00000   0.00000   0.00000   1.91063
    A6        1.91063   0.00000   0.00000   0.00000   0.00000   1.91063
    D1        2.09440   0.00000   0.00000   0.00000   0.00000   2.09440
    D2       -2.09440   0.00000   0.00000   0.00000   0.00000  -2.09440
    D3        2.09440   0.00000   0.00000   0.00000   0.00000   2.09440
    D4       -2.09440   0.00000   0.00000   0.00000   0.00000  -2.09440
         Item               Value     Threshold  Converged?
 Maximum Force            0.000394     0.000450     YES
 RMS     Force            0.000210     0.000300     YES
 Maximum Displacement     0.000627     0.001800     YES
 RMS     Displacement     0.000580     0.001200     YES
 Predicted change in Energy=-8.032801D-07
 Optimization completed.
    -- Stationary point found.
                           ----------------------------
                           !   Optimized Parameters   !
                           ! (Angstroms and Degrees)  !
 --------------------------                            --------------------------
 ! Name  Definition              Value          Derivative Info.                !
 --------------------------------------------------------------------------------
 ! R1    R(1,2)                  1.0923         -DE/DX =   -0.0004              !
 ! R2    R(1,3)                  1.0923         -DE/DX =   -0.0004              !
 ! R3    R(1,4)                  1.0923         -DE/DX =   -0.0004              !
 ! R4    R(1,5)                  1.0923         -DE/DX =   -0.0004              !
 ! A1    A(2,1,3)              109.4712         -DE/DX =    0.0                 !
 ! A2    A(2,1,4)              109.4712         -DE/DX =    0.0                 !
 ! A3    A(2,1,5)              109.4712         -DE/DX =    0.0                 !
 ! A4    A(3,1,4)              109.4712         -DE/DX =    0.0                 !
 ! A5    A(3,1,5)              109.4712         -DE/DX =    0.0                 !
 ! A6    A(4,1,5)              109.4712         -DE/DX =    0.0                 !
 ! D1    D(2,1,4,3)            120.0            -DE/DX =    0.0                 !
 ! D2    D(2,1,5,3)           -120.0            -DE/DX =    0.0                 !
 ! D3    D(2,1,5,4)            120.0            -DE/DX =    0.0                 !
 ! D4    D(3,1,5,4)           -120.0            -DE/DX =    0.0                 !
 --------------------------------------------------------------------------------
 GradGradGradGradGradGradGradGradGradGradGradGradGradGradGradGradGradGrad

                          Input orientation:                          
 ---------------------------------------------------------------------
 Center     Atomic      Atomic             Coordinates (Angstroms)
 Number     Number       Type             X           Y           Z
 ---------------------------------------------------------------------
      1          6           0        0.000000    0.000000    0.000000
      2          1           0        0.630646   -0.630646    0.630646
      3          1           0        0.630646    0.630646   -0.630646
      4          1           0       -0.630646    0.630646    0.630646
      5          1           0       -0.630646   -0.630646   -0.630646
 ---------------------------------------------------------------------
                    Distance matrix (angstroms):
                    1          2          3          4          5
     1  C    0.000000
     2  H    1.092311   0.000000
     3  H    1.092311   1.783736   0.000000
     4  H    1.092311   1.783736   1.783736   0.000000
     5  H    1.092311   1.783736   1.783736   1.783736   0.000000
 Stoichiometry    CH4
 Framework group  TD[O(C),4C3(H)]
 Deg. of freedom     1
 Full point group                 TD      NOp  24
 Largest Abelian subgroup         D2      NOp   4
 Largest concise Abelian subgroup D2      NOp   4
                         Standard orientation:                         
 ---------------------------------------------------------------------
 Center     Atomic      Atomic             Coordinates (Angstroms)
 Number     Number       Type             X           Y           Z
 ---------------------------------------------------------------------
      1          6           0        0.000000    0.000000    0.000000
      2          1           0        0.630646    0.630646    0.630646
      3          1           0       -0.630646   -0.630646    0.630646
      4          1           0        0.630646   -0.630646   -0.630646
      5          1           0       -0.630646    0.630646   -0.630646
 ---------------------------------------------------------------------
 Rotational constants (GHZ):    157.6053677    157.6053677    157.6053677

 **********************************************************************

            Population analysis using the SCF density.

 **********************************************************************

 Orbital symmetries:
       Occupied  (A1) (A1) (T2) (T2) (T2)
       Virtual   (A1) (T2) (T2) (T2) (T2) (T2) (T2) (A1) (T2) (T2)
                 (T2) (T2) (T2) (T2) (A1) (A1) (E) (E) (T2) (T2)
                 (T2) (A1)
 The electronic state is 1-A1.
 Alpha  occ. eigenvalues --  -10.52735  -0.78588  -0.45639  -0.45639  -0.45639
 Alpha virt. eigenvalues --    0.03889   0.07121   0.07121   0.07121   0.22938
 Alpha virt. eigenvalues --    0.22938   0.22938   0.30990   0.69237   0.69237
 Alpha virt. eigenvalues --    0.69237   0.99813   0.99813   0.99813   1.11484
 Alpha virt. eigenvalues --    1.18289   1.70917   1.70917   2.33130   2.33130
 Alpha virt. eigenvalues --    2.33130   4.24449
          Condensed to atoms (all electrons):
               1          2          3          4          5
     1  C    5.299552   0.379141   0.379141   0.379141   0.379141
     2  H    0.379141   0.487377  -0.023515  -0.023515  -0.023515
     3  H    0.379141  -0.023515   0.487377  -0.023515  -0.023515
     4  H    0.379141  -0.023515  -0.023515   0.487377  -0.023515
     5  H    0.379141  -0.023515  -0.023515  -0.023515   0.487377
 Mulliken charges:
               1
     1  C   -0.816114
     2  H    0.204028
     3  H    0.204028
     4  H    0.204028
     5  H    0.204028
 Sum of Mulliken charges =   0.00000
 Mulliken charges with hydrogens summed into heavy atoms:
               1
     1  C    0.000000
 Electronic spatial extent (au):  <R**2>=             35.9669
 Charge=              0.0000 electrons
 Dipole moment (field-independent basis, Debye):
    X=              0.0000    Y=              0.0000    Z=              0.0000  Tot=              0.0000
 Quadrupole moment (field-independent basis, Debye-Ang):
   XX=             -8.4843   YY=             -8.4843   ZZ=             -8.4843
   XY=              0.0000   XZ=              0.0000   YZ=              0.0000
 Traceless Quadrupole moment (field-independent basis, Debye-Ang):
   XX=              0.0000   YY=              0.0000   ZZ=              0.0000
   XY=              0.0000   XZ=              0.0000   YZ=              0.0000
 Octapole moment (field-independent basis, Debye-Ang**2):
  XXX=              0.0000  YYY=              0.0000  ZZZ=              0.0000  XYY=              0.0000
  XXY=              0.0000  XXZ=              0.0000  XZZ=              0.0000  YZZ=              0.0000
  YYZ=              0.0000  XYZ=              0.7642
 Hexadecapole moment (field-independent basis, Debye-Ang**3):
 XXXX=            -17.0969 YYYY=            -17.0969 ZZZZ=            -17.0969 XXXY=              0.0000
 XXXZ=              0.0000 YYYX=              0.0000 YYYZ=              0.0000 ZZZX=              0.0000
 ZZZY=              0.0000 XXYY=             -5.2189 XXZZ=             -5.2189 YYZZ=             -5.2189
 XXYZ=              0.0000 YYXZ=              0.0000 ZZXY=              0.0000
 N-N= 1.340696857558D+01 E-N=-1.197964628838D+02  KE= 4.008552150750D+01
 Symmetry A    KE= 3.434577508197D+01
 Symmetry B1   KE= 1.913248808510D+00
 Symmetry B2   KE= 1.913248808510D+00
 Symmetry B3   KE= 1.913248808510D+00
 1\1\GINC-K018\FOpt\RM062X\6-31+G(d)\C1H4\Z5358697\10-Mar-2025\0\\#m062
 X/6-31+G(d) OPT Freq=noraman\\methane.freq\\0,1\C,0.,0.,0.\H,0.6306458
 333,-0.6306458333,0.6306458333\H,0.6306458333,0.6306458333,-0.63064583
 33\H,-0.6306458333,0.6306458333,0.6306458333\H,-0.6306458333,-0.630645
 8333,-0.6306458333\\Version=ES64L-G09RevD.01\State=1-A1\HF=-40.4835867
 \RMSD=1.971e-09\RMSF=2.032e-04\Dipole=0.,0.,0.\Quadrupole=0.,0.,0.,0.,
 0.,0.\PG=TD [O(C1),4C3(H1)]\\@


 I DON'T EXACTLY UNDERSTAND WHAT YOU ARE SAYING,
 BUT YOU ARE ABSOLUTELY RIGHT.
     M.S.GORDON, IN A NDSU FACULTY MEETING
 Job cpu time:       0 days  0 hours  0 minutes 46.6 seconds.
 File lengths (MBytes):  RWF=     72 Int=      0 D2E=      0 Chk=      2 Scr=      2
 Normal termination of Gaussian 09 at Mon Mar 10 10:31:21 2025.
 Link1:  Proceeding to internal job step number  2.
 ---------------------------------------------------------------------
 #N Geom=AllCheck Guess=TCheck SCRF=Check GenChk RM062X/6-31+G(d) Freq
 ---------------------------------------------------------------------
 1/10=4,29=7,30=1,38=1,40=1/1,3;
 2/12=2,40=1/2;
 3/5=1,6=6,7=11,11=2,14=-4,16=1,25=1,30=1,70=2,71=2,74=-55,116=1,140=1/1,2,3;
 4/5=101/1;
 5/5=2,98=1/2;
 8/6=4,10=90,11=11/1;
 11/6=1,8=1,9=11,15=111,16=1/1,2,10;
 10/6=1/2;
 6/7=2,8=2,9=2,10=2,18=1,28=1/1;
 7/8=1,10=1,25=1/1,2,3,16;
 1/10=4,30=1/3;
 99//99;
 Structure from the checkpoint file:  "/srv/scratch/z5358697/00-test/Gau-2625255.chk"
 ------------
 methane.freq
 ------------
 Charge =  0 Multiplicity = 1
 Redundant internal coordinates found in file.
 C,0,0.,0.,0.
 H,0,0.6306458333,-0.6306458333,0.6306458333
 H,0,0.6306458333,0.6306458333,-0.6306458333
 H,0,-0.6306458333,0.6306458333,0.6306458333
 H,0,-0.6306458333,-0.6306458333,-0.6306458333
 Recover connectivity data from disk.

 GradGradGradGradGradGradGradGradGradGradGradGradGradGradGradGradGradGrad
 Berny optimization.
 Initialization pass.
                           ----------------------------
                           !    Initial Parameters    !
                           ! (Angstroms and Degrees)  !
 --------------------------                            --------------------------
 ! Name  Definition              Value          Derivative Info.                !
 --------------------------------------------------------------------------------
 ! R1    R(1,2)                  1.0923         calculate D2E/DX2 analytically  !
 ! R2    R(1,3)                  1.0923         calculate D2E/DX2 analytically  !
 ! R3    R(1,4)                  1.0923         calculate D2E/DX2 analytically  !
 ! R4    R(1,5)                  1.0923         calculate D2E/DX2 analytically  !
 ! A1    A(2,1,3)              109.4712         calculate D2E/DX2 analytically  !
 ! A2    A(2,1,4)              109.4712         calculate D2E/DX2 analytically  !
 ! A3    A(2,1,5)              109.4712         calculate D2E/DX2 analytically  !
 ! A4    A(3,1,4)              109.4712         calculate D2E/DX2 analytically  !
 ! A5    A(3,1,5)              109.4712         calculate D2E/DX2 analytically  !
 ! A6    A(4,1,5)              109.4712         calculate D2E/DX2 analytically  !
 ! D1    D(2,1,4,3)            120.0            calculate D2E/DX2 analytically  !
 ! D2    D(2,1,5,3)           -120.0            calculate D2E/DX2 analytically  !
 ! D3    D(2,1,5,4)            120.0            calculate D2E/DX2 analytically  !
 ! D4    D(3,1,5,4)           -120.0            calculate D2E/DX2 analytically  !
 --------------------------------------------------------------------------------
 Trust Radius=3.00D-01 FncErr=1.00D-07 GrdErr=1.00D-07
 Number of steps in this run=      2 maximum allowed number of steps=      2.
 GradGradGradGradGradGradGradGradGradGradGradGradGradGradGradGradGradGrad

                          Input orientation:                          
 ---------------------------------------------------------------------
 Center     Atomic      Atomic             Coordinates (Angstroms)
 Number     Number       Type             X           Y           Z
 ---------------------------------------------------------------------
      1          6           0        0.000000    0.000000    0.000000
      2          1           0        0.630646   -0.630646    0.630646
      3          1           0        0.630646    0.630646   -0.630646
      4          1           0       -0.630646    0.630646    0.630646
      5          1           0       -0.630646   -0.630646   -0.630646
 ---------------------------------------------------------------------
                    Distance matrix (angstroms):
                    1          2          3          4          5
     1  C    0.000000
     2  H    1.092311   0.000000
     3  H    1.092311   1.783736   0.000000
     4  H    1.092311   1.783736   1.783736   0.000000
     5  H    1.092311   1.783736   1.783736   1.783736   0.000000
 Stoichiometry    CH4
 Framework group  TD[O(C),4C3(H)]
 Deg. of freedom     1
 Full point group                 TD      NOp  24
 Largest Abelian subgroup         D2      NOp   4
 Largest concise Abelian subgroup D2      NOp   4
                         Standard orientation:                         
 ---------------------------------------------------------------------
 Center     Atomic      Atomic             Coordinates (Angstroms)
 Number     Number       Type             X           Y           Z
 ---------------------------------------------------------------------
      1          6           0        0.000000    0.000000    0.000000
      2          1           0        0.630646    0.630646    0.630646
      3          1           0       -0.630646   -0.630646    0.630646
      4          1           0        0.630646   -0.630646   -0.630646
      5          1           0       -0.630646    0.630646   -0.630646
 ---------------------------------------------------------------------
 Rotational constants (GHZ):    157.6053677    157.6053677    157.6053677
 Standard basis: 6-31+G(d) (6D, 7F)
 There are     9 symmetry adapted cartesian basis functions of A   symmetry.
 There are     6 symmetry adapted cartesian basis functions of B1  symmetry.
 There are     6 symmetry adapted cartesian basis functions of B2  symmetry.
 There are     6 symmetry adapted cartesian basis functions of B3  symmetry.
 There are     9 symmetry adapted basis functions of A   symmetry.
 There are     6 symmetry adapted basis functions of B1  symmetry.
 There are     6 symmetry adapted basis functions of B2  symmetry.
 There are     6 symmetry adapted basis functions of B3  symmetry.
    27 basis functions,    48 primitive gaussians,    27 cartesian basis functions
     5 alpha electrons        5 beta electrons
       nuclear repulsion energy        13.4069685756 Hartrees.
 NAtoms=    5 NActive=    5 NUniq=    2 SFac= 4.00D+00 NAtFMM=   60 NAOKFM=F Big=F
 Integral buffers will be    131072 words long.
 Raffenetti 2 integral format.
 Two-electron integral symmetry is turned on.
 One-electron integrals computed using PRISM.
 NBasis=    27 RedAO= T EigKep=  1.34D-02  NBF=     9     6     6     6
 NBsUse=    27 1.00D-06 EigRej= -1.00D+00 NBFU=     9     6     6     6
 Initial guess from the checkpoint file:  "/srv/scratch/z5358697/00-test/Gau-2625255.chk"
 B after Tr=     0.000000    0.000000    0.000000
         Rot=    1.000000    0.000000    0.000000    0.000000 Ang=   0.00 deg.
 Initial guess orbital symmetries:
       Occupied  (A1) (A1) (T2) (T2) (T2)
       Virtual   (A1) (T2) (T2) (T2) (T2) (T2) (T2) (A1) (T2) (T2)
                 (T2) (T2) (T2) (T2) (A1) (A1) (E) (E) (T2) (T2)
                 (T2) (A1)
 Keep R1 ints in memory in symmetry-blocked form, NReq=955479.
 Requested convergence on RMS density matrix=1.00D-08 within 128 cycles.
 Requested convergence on MAX density matrix=1.00D-06.
 Requested convergence on             energy=1.00D-06.
 No special actions if energy rises.
 Skip diagonalization as Alpha Fock matrix is already diagonal.
 SCF Done:  E(RM062X) =  -40.4835867203     A.U. after    1 cycles
            NFock=  1  Conv=0.41D-18     -V/T= 2.0099
 DoSCS=F DFT=T ScalE2(SS,OS)=  1.000000  1.000000
 Range of M.O.s used for correlation:     1    27
 NBasis=    27 NAE=     5 NBE=     5 NFC=     0 NFV=     0
 NROrb=     27 NOA=     5 NOB=     5 NVA=    22 NVB=    22
 Symmetrizing basis deriv contribution to polar:
 IMax=3 JMax=2 DiffMx= 0.00D+00
 G2DrvN: will do     6 centers at a time, making    1 passes.
 Calling FoFCou, ICntrl=  3107 FMM=F I1Cent=   0 AccDes= 0.00D+00.
 End of G2Drv F.D. properties file   721 does not exist.
 End of G2Drv F.D. properties file   722 does not exist.
 End of G2Drv F.D. properties file   788 does not exist.
          IDoAtm=11111
          Differentiating once with respect to electric field.
                with respect to dipole field.
          Differentiating once with respect to nuclear coordinates.
 Keep R1 ints in memory in symmetry-blocked form, NReq=934123.
          There are     9 degrees of freedom in the 1st order CPHF.  IDoFFX=4 NUNeed=     9.
      9 vectors produced by pass  0 Test12= 1.22D-15 1.11D-08 XBig12= 4.71D+00 1.26D+00.
 AX will form     9 AO Fock derivatives at one time.
      9 vectors produced by pass  1 Test12= 1.22D-15 1.11D-08 XBig12= 9.32D-02 1.66D-01.
      9 vectors produced by pass  2 Test12= 1.22D-15 1.11D-08 XBig12= 5.90D-04 9.62D-03.
      9 vectors produced by pass  3 Test12= 1.22D-15 1.11D-08 XBig12= 2.05D-06 6.05D-04.
      9 vectors produced by pass  4 Test12= 1.22D-15 1.11D-08 XBig12= 6.98D-09 3.11D-05.
      6 vectors produced by pass  5 Test12= 1.22D-15 1.11D-08 XBig12= 8.82D-12 1.16D-06.
      3 vectors produced by pass  6 Test12= 1.22D-15 1.11D-08 XBig12= 4.56D-15 3.29D-08.
 InvSVY:  IOpt=1 It=  1 EMax= 8.88D-16
 Solved reduced A of dimension    54 with     9 vectors.
 Isotropic polarizability for W=    0.000000       13.42 Bohr**3.
 End of Minotr F.D. properties file   721 does not exist.
 End of Minotr F.D. properties file   722 does not exist.
 End of Minotr F.D. properties file   788 does not exist.

 **********************************************************************

            Population analysis using the SCF density.

 **********************************************************************

 Orbital symmetries:
       Occupied  (A1) (A1) (T2) (T2) (T2)
       Virtual   (A1) (T2) (T2) (T2) (T2) (T2) (T2) (A1) (T2) (T2)
                 (T2) (T2) (T2) (T2) (A1) (A1) (E) (E) (T2) (T2)
                 (T2) (A1)
 The electronic state is 1-A1.
 Alpha  occ. eigenvalues --  -10.52735  -0.78588  -0.45639  -0.45639  -0.45639
 Alpha virt. eigenvalues --    0.03889   0.07121   0.07121   0.07121   0.22938
 Alpha virt. eigenvalues --    0.22938   0.22938   0.30990   0.69237   0.69237
 Alpha virt. eigenvalues --    0.69237   0.99813   0.99813   0.99813   1.11484
 Alpha virt. eigenvalues --    1.18289   1.70917   1.70917   2.33130   2.33130
 Alpha virt. eigenvalues --    2.33130   4.24449
          Condensed to atoms (all electrons):
               1          2          3          4          5
     1  C    5.299552   0.379141   0.379141   0.379141   0.379141
     2  H    0.379141   0.487377  -0.023515  -0.023515  -0.023515
     3  H    0.379141  -0.023515   0.487377  -0.023515  -0.023515
     4  H    0.379141  -0.023515  -0.023515   0.487377  -0.023515
     5  H    0.379141  -0.023515  -0.023515  -0.023515   0.487377
 Mulliken charges:
               1
     1  C   -0.816114
     2  H    0.204028
     3  H    0.204028
     4  H    0.204028
     5  H    0.204028
 Sum of Mulliken charges =   0.00000
 Mulliken charges with hydrogens summed into heavy atoms:
               1
     1  C    0.000000
 APT charges:
               1
     1  C   -0.044469
     2  H    0.011117
     3  H    0.011117
     4  H    0.011117
     5  H    0.011117
 Sum of APT charges =   0.00000
 APT charges with hydrogens summed into heavy atoms:
               1
     1  C    0.000000
 Electronic spatial extent (au):  <R**2>=             35.9669
 Charge=              0.0000 electrons
 Dipole moment (field-independent basis, Debye):
    X=              0.0000    Y=              0.0000    Z=              0.0000  Tot=              0.0000
 Quadrupole moment (field-independent basis, Debye-Ang):
   XX=             -8.4843   YY=             -8.4843   ZZ=             -8.4843
   XY=              0.0000   XZ=              0.0000   YZ=              0.0000
 Traceless Quadrupole moment (field-independent basis, Debye-Ang):
   XX=              0.0000   YY=              0.0000   ZZ=              0.0000
   XY=              0.0000   XZ=              0.0000   YZ=              0.0000
 Octapole moment (field-independent basis, Debye-Ang**2):
  XXX=              0.0000  YYY=              0.0000  ZZZ=              0.0000  XYY=              0.0000
  XXY=              0.0000  XXZ=              0.0000  XZZ=              0.0000  YZZ=              0.0000
  YYZ=              0.0000  XYZ=              0.7642
 Hexadecapole moment (field-independent basis, Debye-Ang**3):
 XXXX=            -17.0969 YYYY=            -17.0969 ZZZZ=            -17.0969 XXXY=              0.0000
 XXXZ=              0.0000 YYYX=              0.0000 YYYZ=              0.0000 ZZZX=              0.0000
 ZZZY=              0.0000 XXYY=             -5.2189 XXZZ=             -5.2189 YYZZ=             -5.2189
 XXYZ=              0.0000 YYXZ=              0.0000 ZZXY=              0.0000
 N-N= 1.340696857558D+01 E-N=-1.197964628838D+02  KE= 4.008552150750D+01
 Symmetry A    KE= 3.434577508197D+01
 Symmetry B1   KE= 1.913248808510D+00
 Symmetry B2   KE= 1.913248808510D+00
 Symmetry B3   KE= 1.913248808510D+00
  Exact polarizability:  13.425   0.000  13.425   0.000   0.000  13.425
 Approx polarizability:  13.087   0.000  13.087   0.000   0.000  13.087
 Calling FoFJK, ICntrl=    100127 FMM=F ISym2X=1 I1Cent= 0 IOpClX= 0 NMat=1 NMatS=1 NMatT=0.
 Full mass-weighted force constant matrix:
 Low frequencies ---   -0.0005    0.0002    0.0006  145.3790  145.3790  145.3790
 Low frequencies --- 1375.6222 1375.6222 1375.6222
 Diagonal vibrational polarizability:
        0.3372831       0.3372831       0.3372831
 Harmonic frequencies (cm**-1), IR intensities (KM/Mole), Raman scattering
 activities (A**4/AMU), depolarization ratios for plane and unpolarized
 incident light, reduced masses (AMU), force constants (mDyne/A),
 and normal coordinates:
                      1                      2                      3
                     T2                     T2                     T2
 Frequencies --   1375.6222              1375.6222              1375.6222
 Red. masses --      1.1786                 1.1786                 1.1786
 Frc consts  --      1.3141                 1.3141                 1.3141
 IR Inten    --     19.9632                19.9632                19.9632
  Atom  AN      X      Y      Z        X      Y      Z        X      Y      Z
     1   6    -0.05   0.10  -0.04    -0.08  -0.01   0.09     0.07   0.07   0.07
     2   1     0.28  -0.49   0.22     0.41   0.03  -0.44     0.04   0.07   0.05
     3   1     0.44  -0.33   0.04     0.07  -0.31  -0.11    -0.23  -0.20  -0.48
     4   1     0.05  -0.29   0.42     0.09   0.35  -0.13    -0.49  -0.21  -0.22
     5   1    -0.11  -0.13  -0.17     0.43   0.00  -0.42    -0.22  -0.48  -0.20
                      4                      5                      6
                      E                      E                     A1
 Frequencies --   1594.0796              1594.0796              3079.9864
 Red. masses --      1.0078                 1.0078                 1.0078
 Frc consts  --      1.5089                 1.5089                 5.6329
 IR Inten    --      0.0000                 0.0000                 0.0000
  Atom  AN      X      Y      Z        X      Y      Z        X      Y      Z
     1   6     0.00   0.00   0.00     0.00   0.00   0.00     0.00   0.00   0.00
     2   1    -0.16  -0.25   0.41    -0.38   0.33   0.05     0.29   0.29   0.29
     3   1     0.16   0.25   0.41     0.38  -0.33   0.05    -0.29  -0.29   0.29
     4   1    -0.16   0.25  -0.41    -0.38  -0.33  -0.05     0.29  -0.29  -0.29
     5   1     0.16  -0.25  -0.41     0.38   0.33  -0.05    -0.29   0.29  -0.29
                      7                      8                      9
                     T2                     T2                     T2
 Frequencies --   3199.3263              3199.3263              3199.3263
 Red. masses --      1.1020                 1.1020                 1.1020
 Frc consts  --      6.6457                 6.6457                 6.6457
 IR Inten    --     20.3044                20.3044                20.3044
  Atom  AN      X      Y      Z        X      Y      Z        X      Y      Z
     1   6     0.09   0.02   0.01    -0.02   0.09   0.01    -0.01  -0.01   0.09
     2   1    -0.36  -0.37  -0.37    -0.25  -0.23  -0.24    -0.25  -0.25  -0.23
     3   1    -0.31  -0.32   0.32    -0.20  -0.18   0.20     0.34   0.34  -0.32
     4   1    -0.18   0.20   0.20     0.37  -0.35  -0.37     0.28  -0.29  -0.27
     5   1    -0.23   0.25  -0.25     0.32  -0.31   0.33    -0.30   0.30  -0.28

 -------------------
 - Thermochemistry -
 -------------------
 Temperature   298.150 Kelvin.  Pressure   1.00000 Atm.
 Atom     1 has atomic number  6 and mass  12.00000
 Atom     2 has atomic number  1 and mass   1.00783
 Atom     3 has atomic number  1 and mass   1.00783
 Atom     4 has atomic number  1 and mass   1.00783
 Atom     5 has atomic number  1 and mass   1.00783
 Molecular mass:    16.03130 amu.
 Principal axes and moments of inertia in atomic units:
                           1         2         3
     Eigenvalues --    11.45101  11.45101  11.45101
           X           -0.67590   0.73700   0.00000
           Y            0.73700   0.67590   0.00000
           Z            0.00000   0.00000   1.00000
 This molecule is a spherical top.
 Rotational symmetry number 12.
 Rotational temperatures (Kelvin)      7.56386     7.56386     7.56386
 Rotational constants (GHZ):         157.60537   157.60537   157.60537
 Zero-point vibrational energy     119584.6 (Joules/Mol)
                                   28.58142 (Kcal/Mol)
 Vibrational temperatures:   1979.21  1979.21  1979.21  2293.52  2293.52
          (Kelvin)           4431.41  4603.11  4603.11  4603.11
 
 Zero-point correction=                           0.045547 (Hartree/Particle)
 Thermal correction to Energy=                    0.048411
 Thermal correction to Enthalpy=                  0.049355
 Thermal correction to Gibbs Free Energy=         0.028227
 Sum of electronic and zero-point Energies=            -40.438039
 Sum of electronic and thermal Energies=               -40.435175
 Sum of electronic and thermal Enthalpies=             -40.434231
 Sum of electronic and thermal Free Energies=          -40.455360
 
                     E (Thermal)             CV                S
                      KCal/Mol        Cal/Mol-Kelvin    Cal/Mol-Kelvin
 Total                   30.379              6.414             44.469
 Electronic               0.000              0.000              0.000
 Translational            0.889              2.981             34.261
 Rotational               0.889              2.981             10.132
 Vibrational             28.601              0.453              0.075
                       Q            Log10(Q)             Ln(Q)
 Total Bot       0.103907D-12        -12.983355        -29.895279
 Total V=0       0.926708D+08          7.966943         18.344564
 Vib (Bot)       0.112669D-20        -20.948194        -48.235000
 Vib (V=0)       0.100486D+01          0.002104          0.004844
 Electronic      0.100000D+01          0.000000          0.000000
 Translational   0.252295D+07          6.401908         14.740939
 Rotational      0.365537D+02          1.562931          3.598782
 ***** Axes restored to original set *****
 -------------------------------------------------------------------
 Center     Atomic                   Forces (Hartrees/Bohr)
 Number     Number              X              Y              Z
 -------------------------------------------------------------------
      1        6           0.000000000    0.000000000    0.000000000
      2        1          -0.000227237    0.000227237   -0.000227237
      3        1          -0.000227237   -0.000227237    0.000227237
      4        1           0.000227237   -0.000227237   -0.000227237
      5        1           0.000227237    0.000227237    0.000227237
 -------------------------------------------------------------------
 Cartesian Forces:  Max     0.000227237 RMS     0.000203247
 FormGI is forming the generalized inverse of G from B-inverse, IUseBI=4.

 GradGradGradGradGradGradGradGradGradGradGradGradGradGradGradGradGradGrad
 Berny optimization.
 Internal  Forces:  Max     0.000393586 RMS     0.000210380
 Search for a local minimum.
 Step number   1 out of a maximum of    2
 All quantities printed in internal units (Hartrees-Bohrs-Radians)
 Second derivative matrix not updated -- analytic derivatives used.
 The second derivative matrix:
                          R1        R2        R3        R4        A1
           R1           0.35626
           R2           0.00185   0.35626
           R3           0.00185   0.00185   0.35626
           R4           0.00185   0.00185   0.00185   0.35626
           A1           0.00193   0.00193  -0.00121  -0.00264   0.02038
           A2           0.00302  -0.00078   0.00336  -0.00560  -0.00902
           A3           0.00590  -0.00474  -0.00524   0.00408  -0.01350
           A4          -0.00078   0.00302   0.00336  -0.00560  -0.00902
           A5          -0.00474   0.00590  -0.00524   0.00408  -0.01350
           A6          -0.00533  -0.00533   0.00497   0.00569   0.02466
           D1           0.00373   0.00373   0.00263  -0.01010   0.01391
           D2          -0.00307  -0.00307   0.00790  -0.00176  -0.00843
           D3           0.00405  -0.00712   0.00395  -0.00088  -0.00421
           D4           0.00712  -0.00405  -0.00395   0.00088   0.00421
                          A2        A3        A4        A5        A6
           A2           0.03845
           A3          -0.02335   0.07512
           A4          -0.00210   0.02556   0.03845
           A5           0.02556  -0.03639  -0.02335   0.07512
           A6          -0.02953  -0.02744  -0.02953  -0.02744   0.08928
           D1           0.01121  -0.01518   0.01121  -0.01518  -0.00597
           D2           0.00970  -0.00718   0.00970  -0.00718   0.00340
           D3           0.01470   0.00059  -0.00501  -0.00778   0.00170
           D4           0.00501   0.00778  -0.01470  -0.00059  -0.00170
                          D1        D2        D3        D4
           D1           0.03077
           D2           0.00155   0.01912
           D3           0.00078   0.00956   0.01941
           D4          -0.00078  -0.00956   0.00985   0.01941
 ITU=  0
     Eigenvalues ---    0.03924   0.04422   0.06722   0.13571   0.13622
     Eigenvalues ---    0.35529   0.35530   0.35557   0.36180
 Angle between quadratic step and forces=   0.00 degrees.
 Linear search not attempted -- first point.
 Iteration  1 RMS(Cart)=  0.00058147 RMS(Int)=  0.00000000
 Iteration  2 RMS(Cart)=  0.00000000 RMS(Int)=  0.00000000
 ClnCor:  largest displacement from symmetrization is 3.54D-12 for atom     3.
 Variable       Old X    -DE/DX   Delta X   Delta X   Delta X     New X
                                 (Linear)    (Quad)   (Total)
    R1        2.06417  -0.00039   0.00000  -0.00109  -0.00109   2.06308
    R2        2.06417  -0.00039   0.00000  -0.00109  -0.00109   2.06308
    R3        2.06417  -0.00039   0.00000  -0.00109  -0.00109   2.06308
    R4        2.06417  -0.00039   0.00000  -0.00109  -0.00109   2.06308
    A1        1.91063   0.00000   0.00000   0.00000   0.00000   1.91063
    A2        1.91063   0.00000   0.00000   0.00000   0.00000   1.91063
    A3        1.91063   0.00000   0.00000   0.00000   0.00000   1.91063
    A4        1.91063   0.00000   0.00000   0.00000   0.00000   1.91063
    A5        1.91063   0.00000   0.00000   0.00000   0.00000   1.91063
    A6        1.91063   0.00000   0.00000   0.00000   0.00000   1.91063
    D1        2.09440   0.00000   0.00000   0.00000   0.00000   2.09440
    D2       -2.09440   0.00000   0.00000   0.00000   0.00000  -2.09440
    D3        2.09440   0.00000   0.00000   0.00000   0.00000   2.09440
    D4       -2.09440   0.00000   0.00000   0.00000   0.00000  -2.09440
         Item               Value     Threshold  Converged?
 Maximum Force            0.000394     0.000450     YES
 RMS     Force            0.000210     0.000300     YES
 Maximum Displacement     0.000628     0.001800     YES
 RMS     Displacement     0.000581     0.001200     YES
 Predicted change in Energy=-8.563162D-07
 Optimization completed.
    -- Stationary point found.
                           ----------------------------
                           !   Optimized Parameters   !
                           ! (Angstroms and Degrees)  !
 --------------------------                            --------------------------
 ! Name  Definition              Value          Derivative Info.                !
 --------------------------------------------------------------------------------
 ! R1    R(1,2)                  1.0923         -DE/DX =   -0.0004              !
 ! R2    R(1,3)                  1.0923         -DE/DX =   -0.0004              !
 ! R3    R(1,4)                  1.0923         -DE/DX =   -0.0004              !
 ! R4    R(1,5)                  1.0923         -DE/DX =   -0.0004              !
 ! A1    A(2,1,3)              109.4712         -DE/DX =    0.0                 !
 ! A2    A(2,1,4)              109.4712         -DE/DX =    0.0                 !
 ! A3    A(2,1,5)              109.4712         -DE/DX =    0.0                 !
 ! A4    A(3,1,4)              109.4712         -DE/DX =    0.0                 !
 ! A5    A(3,1,5)              109.4712         -DE/DX =    0.0                 !
 ! A6    A(4,1,5)              109.4712         -DE/DX =    0.0                 !
 ! D1    D(2,1,4,3)            120.0            -DE/DX =    0.0                 !
 ! D2    D(2,1,5,3)           -120.0            -DE/DX =    0.0                 !
 ! D3    D(2,1,5,4)            120.0            -DE/DX =    0.0                 !
 ! D4    D(3,1,5,4)           -120.0            -DE/DX =    0.0                 !
 --------------------------------------------------------------------------------
 GradGradGradGradGradGradGradGradGradGradGradGradGradGradGradGradGradGrad

 1\1\GINC-K018\Freq\RM062X\6-31+G(d)\C1H4\Z5358697\10-Mar-2025\0\\#N Ge
 om=AllCheck Guess=TCheck SCRF=Check GenChk RM062X/6-31+G(d) Freq\\meth
 ane.freq\\0,1\C,0.,0.,0.\H,0.6306458333,-0.6306458333,0.6306458333\H,0
 .6306458333,0.6306458333,-0.6306458333\H,-0.6306458333,0.6306458333,0.
 6306458333\H,-0.6306458333,-0.6306458333,-0.6306458333\\Version=ES64L-
 G09RevD.01\State=1-A1\HF=-40.4835867\RMSD=4.063e-19\RMSF=2.032e-04\Zer
 oPoint=0.0455474\Thermal=0.0484112\Dipole=0.,0.,0.\DipoleDeriv=-0.0444
 687,0.,0.,0.,-0.0444687,0.,0.,0.,-0.0444687,0.0111172,0.0715611,-0.071
 5611,0.0715611,0.0111172,0.0715611,-0.0715611,0.0715611,0.0111172,0.01
 11172,-0.0715611,0.0715611,-0.0715611,0.0111172,0.0715611,0.0715611,0.
 0715611,0.0111172,0.0111172,0.0715611,0.0715611,0.0715611,0.0111172,-0
 .0715611,0.0715611,-0.0715611,0.0111172,0.0111172,-0.0715611,-0.071561
 1,-0.0715611,0.0111172,-0.0715611,-0.0715611,-0.0715611,0.0111172\Pola
 r=13.4248528,0.,13.4248528,0.,0.,13.4248528\PG=TD [O(C1),4C3(H1)]\NIma
 g=0\\0.56952527,0.,0.56952527,0.,0.,0.56952527,-0.14238132,0.09403902,
 -0.09403902,0.15018629,0.09403902,-0.14238132,0.09403902,-0.10303596,0
 .15018629,-0.09403902,0.09403902,-0.14238132,0.10303596,-0.10303596,0.
 15018629,-0.14238132,-0.09403902,0.09403902,0.01361056,0.01186838,-0.0
 1186838,0.15018629,-0.09403902,-0.14238132,0.09403902,-0.01186838,-0.0
 1070777,0.00899694,0.10303596,0.15018629,0.09403902,0.09403902,-0.1423
 8132,0.01186838,0.00899694,-0.01070777,-0.10303596,-0.10303596,0.15018
 629,-0.14238132,0.09403902,0.09403902,-0.01070777,0.00899694,0.0118683
 8,-0.01070777,0.01186838,0.00899694,0.15018629,0.09403902,-0.14238132,
 -0.09403902,0.00899694,-0.01070777,-0.01186838,-0.01186838,0.01361056,
 0.01186838,-0.10303596,0.15018629,0.09403902,-0.09403902,-0.14238132,-
 0.01186838,0.01186838,0.01361056,0.00899694,-0.01186838,-0.01070777,-0
 .10303596,0.10303596,0.15018629,-0.14238132,-0.09403902,-0.09403902,-0
 .01070777,-0.01186838,-0.00899694,-0.01070777,-0.00899694,-0.01186838,
 0.01361056,0.01186838,0.01186838,0.15018629,-0.09403902,-0.14238132,-0
 .09403902,0.01186838,0.01361056,0.01186838,-0.00899694,-0.01070777,-0.
 01186838,-0.01186838,-0.01070777,-0.00899694,0.10303596,0.15018629,-0.
 09403902,-0.09403902,-0.14238132,-0.00899694,-0.01186838,-0.01070777,0
 .01186838,0.01186838,0.01361056,-0.01186838,-0.00899694,-0.01070777,0.
 10303596,0.10303596,0.15018629\\0.,0.,0.,0.00022724,-0.00022724,0.0002
 2724,0.00022724,0.00022724,-0.00022724,-0.00022724,0.00022724,0.000227
 24,-0.00022724,-0.00022724,-0.00022724\\\@


 THERE IS MUCH PLEASURE TO BE GAINED FROM USELESS KNOWLEDGE

                                       -- BERTRAND RUSSELL
 Job cpu time:       0 days  0 hours  0 minutes 36.3 seconds.
 File lengths (MBytes):  RWF=     82 Int=      0 D2E=      0 Chk=      2 Scr=      2
 Normal termination of Gaussian 09 at Mon Mar 10 10:31:25 2025.
