 Entering Gaussian System, Link 0=g09
 Initial command:
 /apps/z_install_tree/linux-rocky8-ivybridge/gcc-12.2.0/gaussian-09-D.01-wczn3gur5lpur3omlkzwa2l5ecyxp5ef/g09/l1.exe "/srv/scratch/z5358697/gauss/Gau-3510516.inp" -scrdir="/srv/scratch/z5358697/gauss/"
 Entering Link 1 = /apps/z_install_tree/linux-rocky8-ivybridge/gcc-12.2.0/gaussian-09-D.01-wczn3gur5lpur3omlkzwa2l5ecyxp5ef/g09/l1.exe PID=   3510518.
  
 Copyright (c) 1988,1990,1992,1993,1995,1998,2003,2009,2013,
            Gaussian, Inc.  All Rights Reserved.
  
 This is part of the Gaussian(R) 09 program.  It is based on
 the Gaussian(R) 03 system (copyright 2003, Gaussian, Inc.),
 the Gaussian(R) 98 system (copyright 1998, Gaussian, Inc.),
 the Gaussian(R) 94 system (copyright 1995, Gaussian, Inc.),
 the Gaussian 92(TM) system (copyright 1992, Gaussian, Inc.),
 the Gaussian 90(TM) system (copyright 1990, Gaussian, Inc.),
 the Gaussian 88(TM) system (copyright 1988, Gaussian, Inc.),
 the Gaussian 86(TM) system (copyright 1986, Carnegie Mellon
 University), and the Gaussian 82(TM) system (copyright 1983,
 Carnegie Mellon University). Gaussian is a federally registered
 trademark of Gaussian, Inc.
  
 This software contains proprietary and confidential information,
 including trade secrets, belonging to Gaussian, Inc.
  
 This software is provided under written license and may be
 used, copied, transmitted, or stored only in accord with that
 written license.
  
 The following legend is applicable only to US Government
 contracts under FAR:
  
                    RESTRICTED RIGHTS LEGEND
  
 Use, reproduction and disclosure by the US Government is
 subject to restrictions as set forth in subparagraphs (a)
 and (c) of the Commercial Computer Software - Restricted
 Rights clause in FAR 52.227-19.
  
 Gaussian, Inc.
 340 Quinnipiac St., Bldg. 40, Wallingford CT 06492
  
  
 ---------------------------------------------------------------
 Warning -- This program may not be used in any manner that
 competes with the business of Gaussian, Inc. or will provide
 assistance to any competitor of Gaussian, Inc.  The licensee
 of this program is prohibited from giving any competitor of
 Gaussian, Inc. access to this program.  By using this program,
 the user acknowledges that Gaussian, Inc. is engaged in the
 business of creating and licensing software in the field of
 computational chemistry and represents and warrants to the
 licensee that it is not a competitor of Gaussian, Inc. and that
 it will not use this program in any manner prohibited above.
 ---------------------------------------------------------------
  

 Cite this work as:
 Gaussian 09, Revision D.01,
 M. J. Frisch, G. W. Trucks, H. B. Schlegel, G. E. Scuseria, 
 M. A. Robb, J. R. Cheeseman, G. Scalmani, V. Barone, B. Mennucci, 
 G. A. Petersson, H. Nakatsuji, M. Caricato, X. Li, H. P. Hratchian, 
 A. F. Izmaylov, J. Bloino, G. Zheng, J. L. Sonnenberg, M. Hada, 
 M. Ehara, K. Toyota, R. Fukuda, J. Hasegawa, M. Ishida, T. Nakajima, 
 Y. Honda, O. Kitao, H. Nakai, T. Vreven, J. A. Montgomery, Jr., 
 J. E. Peralta, F. Ogliaro, M. Bearpark, J. J. Heyd, E. Brothers, 
 K. N. Kudin, V. N. Staroverov, T. Keith, R. Kobayashi, J. Normand, 
 K. Raghavachari, A. Rendell, J. C. Burant, S. S. Iyengar, J. Tomasi, 
 M. Cossi, N. Rega, J. M. Millam, M. Klene, J. E. Knox, J. B. Cross, 
 V. Bakken, C. Adamo, J. Jaramillo, R. Gomperts, R. E. Stratmann, 
 O. Yazyev, A. J. Austin, R. Cammi, C. Pomelli, J. W. Ochterski, 
 R. L. Martin, K. Morokuma, V. G. Zakrzewski, G. A. Voth, 
 P. Salvador, J. J. Dannenberg, S. Dapprich, A. D. Daniels, 
 O. Farkas, J. B. Foresman, J. V. Ortiz, J. Cioslowski, 
 and D. J. Fox, Gaussian, Inc., Wallingford CT, 2013.
 
 ******************************************
 Gaussian 09:  ES64L-G09RevD.01 24-Apr-2013
                19-Mar-2025 
 ******************************************
 -------------------------------
 #m062X/def2SVP OPT Freq=noraman
 -------------------------------
 1/14=-1,18=20,19=15,26=3,38=1/1,3;
 2/9=110,12=2,17=6,18=5,40=1/2;
 3/5=43,7=101,11=2,16=1,25=1,30=1,71=1,74=-55/1,2,3;
 4//1;
 5/5=2,38=5/2;
 6/7=2,8=2,9=2,10=2,28=1/1;
 7//1,2,3,16;
 1/14=-1,18=20,19=15,26=3/3(2);
 2/9=110/2;
 99//99;
 2/9=110/2;
 3/5=43,7=101,11=2,16=1,25=1,30=1,71=1,74=-55/1,2,3;
 4/5=5,16=3,69=1/1;
 5/5=2,38=5/2;
 7//1,2,3,16;
 1/14=-1,18=20,19=15,26=3/3(-5);
 2/9=110/2;
 6/7=2,8=2,9=2,10=2,19=2,28=1/1;
 99/9=1/99;
 ----------
 iodoethane
 ----------
 Symbolic Z-matrix:
 Charge =  0 Multiplicity = 1
 C                     0.1447   -0.6955    0.8338 
 C                     1.4101   -0.3747    1.6104 
 I                     3.1275   -0.5146    0.3556 
 H                    -0.7286   -0.6199    1.49 
 H                    -0.0003    0.0003    0.0003 
 H                     0.1717   -1.7121    0.4267 
 H                     1.5088   -1.0687    2.452 
 H                     1.3374    0.6351    2.0281 
 

 GradGradGradGradGradGradGradGradGradGradGradGradGradGradGradGradGradGrad
 Berny optimization.
 Initialization pass.
                           ----------------------------
                           !    Initial Parameters    !
                           ! (Angstroms and Degrees)  !
 --------------------------                            --------------------------
 ! Name  Definition              Value          Derivative Info.                !
 --------------------------------------------------------------------------------
 ! R1    R(1,2)                  1.519          estimate D2E/DX2                !
 ! R2    R(1,4)                  1.095          estimate D2E/DX2                !
 ! R3    R(1,5)                  1.0954         estimate D2E/DX2                !
 ! R4    R(1,6)                  1.0954         estimate D2E/DX2                !
 ! R5    R(2,3)                  2.1316         estimate D2E/DX2                !
 ! R6    R(2,7)                  1.0953         estimate D2E/DX2                !
 ! R7    R(2,8)                  1.0952         estimate D2E/DX2                !
 ! A1    A(2,1,4)              110.0865         estimate D2E/DX2                !
 ! A2    A(2,1,5)              111.4171         estimate D2E/DX2                !
 ! A3    A(2,1,6)              111.4368         estimate D2E/DX2                !
 ! A4    A(4,1,5)              107.8528         estimate D2E/DX2                !
 ! A5    A(4,1,6)              107.8455         estimate D2E/DX2                !
 ! A6    A(5,1,6)              108.058          estimate D2E/DX2                !
 ! A7    A(1,2,3)              110.8774         estimate D2E/DX2                !
 ! A8    A(1,2,7)              109.5178         estimate D2E/DX2                !
 ! A9    A(1,2,8)              109.5375         estimate D2E/DX2                !
 ! A10   A(3,2,7)              109.7634         estimate D2E/DX2                !
 ! A11   A(3,2,8)              109.7864         estimate D2E/DX2                !
 ! A12   A(7,2,8)              107.286          estimate D2E/DX2                !
 ! D1    D(4,1,2,3)            179.9969         estimate D2E/DX2                !
 ! D2    D(4,1,2,7)             58.7212         estimate D2E/DX2                !
 ! D3    D(4,1,2,8)            -58.6855         estimate D2E/DX2                !
 ! D4    D(5,1,2,3)            -60.3943         estimate D2E/DX2                !
 ! D5    D(5,1,2,7)            178.33           estimate D2E/DX2                !
 ! D6    D(5,1,2,8)             60.9233         estimate D2E/DX2                !
 ! D7    D(6,1,2,3)             60.3846         estimate D2E/DX2                !
 ! D8    D(6,1,2,7)            -60.8911         estimate D2E/DX2                !
 ! D9    D(6,1,2,8)           -178.2978         estimate D2E/DX2                !
 --------------------------------------------------------------------------------
 Trust Radius=3.00D-01 FncErr=1.00D-07 GrdErr=1.00D-06
 Number of steps in this run=     38 maximum allowed number of steps=    100.
 GradGradGradGradGradGradGradGradGradGradGradGradGradGradGradGradGradGrad

                          Input orientation:                          
 ---------------------------------------------------------------------
 Center     Atomic      Atomic             Coordinates (Angstroms)
 Number     Number       Type             X           Y           Z
 ---------------------------------------------------------------------
      1          6           0        0.144700   -0.695500    0.833800
      2          6           0        1.410100   -0.374700    1.610400
      3         53           0        3.127500   -0.514600    0.355600
      4          1           0       -0.728600   -0.619900    1.490000
      5          1           0       -0.000300    0.000300    0.000300
      6          1           0        0.171700   -1.712100    0.426700
      7          1           0        1.508800   -1.068700    2.452000
      8          1           0        1.337400    0.635100    2.028100
 ---------------------------------------------------------------------
                    Distance matrix (angstroms):
                    1          2          3          4          5
     1  C    0.000000
     2  C    1.518966   0.000000
     3  I    3.026301   2.131562   0.000000
     4  H    1.094973   2.156074   4.020878   0.000000
     5  H    1.095393   2.173080   3.189748   1.770388   0.000000
     6  H    1.095415   2.173343   3.189955   1.770324   1.773052
     7  H    2.149097   1.095294   2.705940   2.476454   3.070990
     8  H    2.149275   1.095196   2.706201   2.476476   2.510853
                    6          7          8
     6  H    0.000000
     7  H    2.510705   0.000000
     8  H    3.071268   1.764087   0.000000
 Stoichiometry    C2H5I
 Framework group  C1[X(C2H5I)]
 Deg. of freedom    18
 Full point group                 C1      NOp   1
 Largest Abelian subgroup         C1      NOp   1
 Largest concise Abelian subgroup C1      NOp   1
                         Standard orientation:                         
 ---------------------------------------------------------------------
 Center     Atomic      Atomic             Coordinates (Angstroms)
 Number     Number       Type             X           Y           Z
 ---------------------------------------------------------------------
      1          6           0       -2.370174   -0.436725   -0.000014
      2          6           0       -1.367614    0.704385   -0.000032
      3         53           0        0.629941   -0.039479   -0.000001
      4          1           0       -3.390937   -0.040479    0.000026
      5          1           0       -2.255705   -1.069744   -0.886619
      6          1           0       -2.255886   -1.070037    0.886434
      7          1           0       -1.528722    1.333056    0.882286
      8          1           0       -1.528897    1.333610   -0.881801
 ---------------------------------------------------------------------
 Rotational constants (GHZ):     28.9376724      3.0403006      2.8490293
 Standard basis: def2SVP (5D, 7F)
 There are    83 symmetry adapted cartesian basis functions of A   symmetry.
 There are    79 symmetry adapted basis functions of A   symmetry.
    79 basis functions,   152 primitive gaussians,    83 cartesian basis functions
    21 alpha electrons       21 beta electrons
       nuclear repulsion energy       121.6054294073 Hartrees.
 NAtoms=    8 NActive=    8 NUniq=    8 SFac= 1.00D+00 NAtFMM=   60 NAOKFM=F Big=F
 Integral buffers will be    131072 words long.
 Raffenetti 2 integral format.
 Two-electron integral symmetry is turned on.
 One-electron integrals computed using PRISM.
   1 Symmetry operations used in ECPInt.
 ECPInt:  NShTT=     703 NPrTT=    2701 LenC2=     704 LenP2D=    2407.
 LDataN:  DoStor=T MaxTD1= 6 Len=  172
 NBasis=    79 RedAO= T EigKep=  4.12D-03  NBF=    79
 NBsUse=    79 1.00D-06 EigRej= -1.00D+00 NBFU=    79
 Defaulting to unpruned grid for atomic number  53.
 ExpMin= 1.11D-01 ExpMax= 1.24D+03 ExpMxC= 1.86D+02 IAcc=1 IRadAn=         1 AccDes= 0.00D+00
 Harris functional with IExCor= 1009 and IRadAn=       1 diagonalized for initial guess.
 HarFok:  IExCor= 1009 AccDes= 0.00D+00 IRadAn=         1 IDoV= 1 UseB2=F ITyADJ=14
 ICtDFT=  3500011 ScaDFX=  1.000000  1.000000  1.000000  1.000000
 Defaulting to unpruned grid for atomic number  53.
 FoFCou: FMM=F IPFlag=           0 FMFlag=      100000 FMFlg1=           0
         NFxFlg=           0 DoJE=T BraDBF=F KetDBF=T FulRan=T
         wScrn=  0.000000 ICntrl=     500 IOpCl=  0 I1Cent=   200000004 NGrid=           0
         NMat0=    1 NMatS0=      1 NMatT0=    0 NMatD0=    1 NMtDS0=    0 NMtDT0=    0
 Petite list used in FoFCou.
 Keep R1 ints in memory in canonical form, NReq=6045538.
 Requested convergence on RMS density matrix=1.00D-08 within 128 cycles.
 Requested convergence on MAX density matrix=1.00D-06.
 Requested convergence on             energy=1.00D-06.
 No special actions if energy rises.
 Integral accuracy reduced to 1.0D-05 until final iterations.
 Defaulting to unpruned grid for atomic number  53.
 Initial convergence to 1.0D-05 achieved.  Increase integral accuracy.
 SCF Done:  E(RM062X) =  -376.735641885     A.U. after   15 cycles
            NFock= 15  Conv=0.78D-08     -V/T= 2.9651

 **********************************************************************

            Population analysis using the SCF density.

 **********************************************************************

 Orbital symmetries:
       Occupied  (A) (A) (A) (A) (A) (A) (A) (A) (A) (A) (A) (A)
                 (A) (A) (A) (A) (A) (A) (A) (A) (A)
       Virtual   (A) (A) (A) (A) (A) (A) (A) (A) (A) (A) (A) (A)
                 (A) (A) (A) (A) (A) (A) (A) (A) (A) (A) (A) (A)
                 (A) (A) (A) (A) (A) (A) (A) (A) (A) (A) (A) (A)
                 (A) (A) (A) (A) (A) (A) (A) (A) (A) (A) (A) (A)
                 (A) (A) (A) (A) (A) (A) (A) (A) (A) (A)
 The electronic state is 1-A.
 Alpha  occ. eigenvalues --  -10.60381 -10.56033  -7.09059  -5.08661  -5.07305
 Alpha  occ. eigenvalues --   -5.07299  -2.05502  -2.05013  -2.05008  -2.03890
 Alpha  occ. eigenvalues --   -2.03890  -0.88172  -0.77146  -0.68552  -0.53734
 Alpha  occ. eigenvalues --   -0.50519  -0.45846  -0.43022  -0.39006  -0.30617
 Alpha  occ. eigenvalues --   -0.30616
 Alpha virt. eigenvalues --    0.01373   0.10176   0.14497   0.14634   0.17162
 Alpha virt. eigenvalues --    0.17951   0.23321   0.33412   0.39038   0.39557
 Alpha virt. eigenvalues --    0.42020   0.45265   0.45682   0.46378   0.47121
 Alpha virt. eigenvalues --    0.51997   0.54157   0.55261   0.65723   0.68637
 Alpha virt. eigenvalues --    0.70489   0.72070   0.72471   0.72598   0.74918
 Alpha virt. eigenvalues --    0.76559   0.76566   0.92955   1.01676   1.19770
 Alpha virt. eigenvalues --    1.22304   1.40552   1.55115   1.57863   1.74392
 Alpha virt. eigenvalues --    1.77122   1.78668   1.82237   1.86520   1.87100
 Alpha virt. eigenvalues --    1.88593   1.95311   2.06216   2.18362   2.24018
 Alpha virt. eigenvalues --    2.37728   2.42474   2.52549   2.56044   2.71069
 Alpha virt. eigenvalues --    2.84626   2.92947   2.97065   3.01809  18.64940
 Alpha virt. eigenvalues --   18.66153  18.93616  55.81577
          Condensed to atoms (all electrons):
               1          2          3          4          5          6
     1  C    4.637408   0.377659  -0.088403   0.376756   0.407539   0.407552
     2  C    0.377659   4.921354   0.281905  -0.011326  -0.033134  -0.033102
     3  I   -0.088403   0.281905  24.919630   0.008223  -0.000929  -0.000928
     4  H    0.376756  -0.011326   0.008223   0.625496  -0.020533  -0.020546
     5  H    0.407539  -0.033134  -0.000929  -0.020533   0.607955  -0.023948
     6  H    0.407552  -0.033102  -0.000928  -0.020546  -0.023948   0.607921
     7  H   -0.021798   0.384840  -0.040671  -0.006132   0.007475  -0.007702
     8  H   -0.021774   0.384867  -0.040639  -0.006133  -0.007697   0.007468
               7          8
     1  C   -0.021798  -0.021774
     2  C    0.384840   0.384867
     3  I   -0.040671  -0.040639
     4  H   -0.006132  -0.006133
     5  H    0.007475  -0.007697
     6  H   -0.007702   0.007468
     7  H    0.605044  -0.023777
     8  H   -0.023777   0.604973
 Mulliken charges:
               1
     1  C   -0.074939
     2  C   -0.273063
     3  I   -0.038186
     4  H    0.054195
     5  H    0.063273
     6  H    0.063286
     7  H    0.102722
     8  H    0.102712
 Sum of Mulliken charges =   0.00000
 Mulliken charges with hydrogens summed into heavy atoms:
               1
     1  C    0.105815
     2  C   -0.067629
     3  I   -0.038186
 Electronic spatial extent (au):  <R**2>=            424.9533
 Charge=              0.0000 electrons
 Dipole moment (field-independent basis, Debye):
    X=             -1.7763    Y=              0.4476    Z=              0.0002  Tot=              1.8319
 Quadrupole moment (field-independent basis, Debye-Ang):
   XX=            -36.8837   YY=            -40.5186   ZZ=            -41.0686
   XY=             -1.7885   XZ=             -0.0003   YZ=             -0.0006
 Traceless Quadrupole moment (field-independent basis, Debye-Ang):
   XX=              2.6066   YY=             -1.0283   ZZ=             -1.5783
   XY=             -1.7885   XZ=             -0.0003   YZ=             -0.0006
 Octapole moment (field-independent basis, Debye-Ang**2):
  XXX=             29.3422  YYY=             -0.7163  ZZZ=              0.0009  XYY=              8.5807
  XXY=             -0.8761  XXZ=              0.0018  XZZ=              8.3101  YZZ=              0.0434
  YYZ=             -0.0005  XYZ=              0.0013
 Hexadecapole moment (field-independent basis, Debye-Ang**3):
 XXXX=           -438.4082 YYYY=            -99.0370 ZZZZ=            -65.6708 XXXY=             -9.8391
 XXXZ=             -0.0046 YYYX=             -4.6198 YYYZ=             -0.0040 ZZZX=             -0.0009
 ZZZY=              0.0003 XXYY=            -91.3413 XXZZ=            -86.8953 YYZZ=            -25.1502
 XXYZ=             -0.0039 YYXZ=              0.0006 ZZXY=             -1.4411
 N-N= 1.216054294073D+02 E-N=-1.056793833579D+03  KE= 1.917164246549D+02
   1 Symmetry operations used in ECPInt.
 ECPInt:  NShTT=     703 NPrTT=    2701 LenC2=     704 LenP2D=    2407.
 LDataN:  DoStor=T MaxTD1= 7 Len=  274
 Calling FoFJK, ICntrl=      2127 FMM=F ISym2X=0 I1Cent= 0 IOpClX= 0 NMat=1 NMatS=1 NMatT=0.
 Defaulting to unpruned grid for atomic number  53.
 ***** Axes restored to original set *****
 -------------------------------------------------------------------
 Center     Atomic                   Forces (Hartrees/Bohr)
 Number     Number              X              Y              Z
 -------------------------------------------------------------------
      1        6           0.001861103   -0.000424848   -0.002561449
      2        6          -0.019511070   -0.000876124    0.004852901
      3       53           0.005702145    0.000620245    0.000140841
      4        1          -0.002434970    0.000615423    0.003427170
      5        1           0.000006771    0.001186941   -0.001679848
      6        1           0.000342030   -0.001789856   -0.000920377
      7        1           0.007229969   -0.001772611   -0.001111239
      8        1           0.006804023    0.002440829   -0.002147997
 -------------------------------------------------------------------
 Cartesian Forces:  Max     0.019511070 RMS     0.004950134

 GradGradGradGradGradGradGradGradGradGradGradGradGradGradGradGradGradGrad
 Berny optimization.
 FormGI is forming the generalized inverse of G from B-inverse, IUseBI=4.
 Internal  Forces:  Max     0.007862712 RMS     0.003294548
 Search for a local minimum.
 Step number   1 out of a maximum of   38
 All quantities printed in internal units (Hartrees-Bohrs-Radians)
 Mixed Optimization -- RFO/linear search
 Second derivative matrix not updated -- first step.
 ITU=  0
     Eigenvalues ---    0.00515   0.05545   0.05673   0.05707   0.06190
     Eigenvalues ---    0.12974   0.16000   0.16000   0.16000   0.16000
     Eigenvalues ---    0.16000   0.22371   0.30466   0.34194   0.34197
     Eigenvalues ---    0.34208   0.34219   0.34244
 RFO step:  Lambda=-2.13036372D-03 EMin= 5.15065138D-03
 Linear search not attempted -- first point.
 Iteration  1 RMS(Cart)=  0.02688577 RMS(Int)=  0.00096882
 Iteration  2 RMS(Cart)=  0.00078502 RMS(Int)=  0.00062445
 Iteration  3 RMS(Cart)=  0.00000055 RMS(Int)=  0.00062445
 Variable       Old X    -DE/DX   Delta X   Delta X   Delta X     New X
                                 (Linear)    (Quad)   (Total)
    R1        2.87043   0.00118   0.00000   0.00383   0.00383   2.87426
    R2        2.06920   0.00402   0.00000   0.01165   0.01165   2.08085
    R3        2.06999   0.00204   0.00000   0.00594   0.00594   2.07593
    R4        2.07004   0.00202   0.00000   0.00588   0.00588   2.07592
    R5        4.02807   0.00445   0.00000   0.03373   0.03373   4.06180
    R6        2.06981   0.00093   0.00000   0.00270   0.00270   2.07251
    R7        2.06962   0.00099   0.00000   0.00287   0.00287   2.07250
    A1        1.92137  -0.00173   0.00000  -0.01084  -0.01084   1.91053
    A2        1.94459   0.00008   0.00000   0.00060   0.00060   1.94519
    A3        1.94494   0.00002   0.00000   0.00021   0.00021   1.94515
    A4        1.88239   0.00085   0.00000   0.00509   0.00508   1.88747
    A5        1.88226   0.00088   0.00000   0.00520   0.00519   1.88745
    A6        1.88597  -0.00002   0.00000   0.00024   0.00024   1.88621
    A7        1.93517   0.00665   0.00000   0.01930   0.01937   1.95454
    A8        1.91145   0.00537   0.00000   0.04129   0.04004   1.95148
    A9        1.91179   0.00533   0.00000   0.04089   0.03964   1.95143
   A10        1.91573  -0.00785   0.00000  -0.05894  -0.05889   1.85685
   A11        1.91613  -0.00786   0.00000  -0.05926  -0.05920   1.85694
   A12        1.87249  -0.00188   0.00000   0.01693   0.01460   1.88709
    D1        3.14154   0.00001   0.00000   0.00013   0.00013  -3.14152
    D2        1.02488   0.00197   0.00000   0.03403   0.03465   1.05953
    D3       -1.02425  -0.00199   0.00000  -0.03442  -0.03504  -1.05929
    D4       -1.05408  -0.00001   0.00000  -0.00025  -0.00025  -1.05433
    D5        3.11245   0.00195   0.00000   0.03365   0.03427  -3.13647
    D6        1.06331  -0.00201   0.00000  -0.03480  -0.03542   1.02789
    D7        1.05391   0.00004   0.00000   0.00062   0.00062   1.05453
    D8       -1.06275   0.00200   0.00000   0.03453   0.03514  -1.02761
    D9       -3.11188  -0.00196   0.00000  -0.03392  -0.03455   3.13676
         Item               Value     Threshold  Converged?
 Maximum Force            0.007863     0.000450     NO 
 RMS     Force            0.003295     0.000300     NO 
 Maximum Displacement     0.061916     0.001800     NO 
 RMS     Displacement     0.026928     0.001200     NO 
 Predicted change in Energy=-1.106186D-03
 GradGradGradGradGradGradGradGradGradGradGradGradGradGradGradGradGradGrad

                          Input orientation:                          
 ---------------------------------------------------------------------
 Center     Atomic      Atomic             Coordinates (Angstroms)
 Number     Number       Type             X           Y           Z
 ---------------------------------------------------------------------
      1          6           0        0.126763   -0.698573    0.828523
      2          6           0        1.390083   -0.376504    1.611926
      3         53           0        3.151398   -0.504413    0.386618
      4          1           0       -0.747320   -0.620804    1.493685
      5          1           0       -0.016418   -0.000542   -0.007559
      6          1           0        0.156241   -1.717954    0.420161
      7          1           0        1.541565   -1.073237    2.445246
      8          1           0        1.368989    0.641928    2.018301
 ---------------------------------------------------------------------
                    Distance matrix (angstroms):
                    1          2          3          4          5
     1  C    0.000000
     2  C    1.520995   0.000000
     3  I    3.062906   2.149411   0.000000
     4  H    1.101140   2.154566   4.054522   0.000000
     5  H    1.098536   2.177688   3.231767   1.781202   0.000000
     6  H    1.098529   2.177650   3.231837   1.781184   1.778275
     7  H    2.180786   1.096725   2.674522   2.519753   3.097456
     8  H    2.180743   1.096717   2.674596   2.519619   2.536972
                    6          7          8
     6  H    0.000000
     7  H    2.536878   0.000000
     8  H    3.097394   1.775909   0.000000
 Stoichiometry    C2H5I
 Framework group  C1[X(C2H5I)]
 Deg. of freedom    18
 Full point group                 C1      NOp   1
 Largest Abelian subgroup         C1      NOp   1
 Largest concise Abelian subgroup C1      NOp   1
                         Standard orientation:                         
 ---------------------------------------------------------------------
 Center     Atomic      Atomic             Coordinates (Angstroms)
 Number     Number       Type             X           Y           Z
 ---------------------------------------------------------------------
      1          6           0       -2.402545   -0.429655    0.000001
      2          6           0       -1.382725    0.698793   -0.000006
      3         53           0        0.635540   -0.040512    0.000000
      4          1           0       -3.418832   -0.005781   -0.000081
      5          1           0       -2.297329   -1.066251   -0.889076
      6          1           0       -2.297426   -1.066086    0.889199
      7          1           0       -1.479169    1.335207    0.887959
      8          1           0       -1.479266    1.335207   -0.887950
 ---------------------------------------------------------------------
 Rotational constants (GHZ):     29.1658736      2.9773234      2.7967082
 Standard basis: def2SVP (5D, 7F)
 There are    83 symmetry adapted cartesian basis functions of A   symmetry.
 There are    79 symmetry adapted basis functions of A   symmetry.
    79 basis functions,   152 primitive gaussians,    83 cartesian basis functions
    21 alpha electrons       21 beta electrons
       nuclear repulsion energy       120.8368290800 Hartrees.
 NAtoms=    8 NActive=    8 NUniq=    8 SFac= 1.00D+00 NAtFMM=   60 NAOKFM=F Big=F
 Integral buffers will be    131072 words long.
 Raffenetti 2 integral format.
 Two-electron integral symmetry is turned on.
 One-electron integrals computed using PRISM.
   1 Symmetry operations used in ECPInt.
 ECPInt:  NShTT=     703 NPrTT=    2701 LenC2=     704 LenP2D=    2407.
 LDataN:  DoStor=T MaxTD1= 6 Len=  172
 NBasis=    79 RedAO= T EigKep=  4.24D-03  NBF=    79
 NBsUse=    79 1.00D-06 EigRej= -1.00D+00 NBFU=    79
 Defaulting to unpruned grid for atomic number  53.
 Initial guess from the checkpoint file:  "/srv/scratch/z5358697/gauss/Gau-3510518.chk"
 B after Tr=     0.000000    0.000000    0.000000
         Rot=    0.999998    0.000068    0.000000    0.002233 Ang=   0.26 deg.
 ExpMin= 1.11D-01 ExpMax= 1.24D+03 ExpMxC= 1.86D+02 IAcc=1 IRadAn=         1 AccDes= 0.00D+00
 Harris functional with IExCor= 1009 and IRadAn=       1 diagonalized for initial guess.
 HarFok:  IExCor= 1009 AccDes= 0.00D+00 IRadAn=         1 IDoV= 1 UseB2=F ITyADJ=14
 ICtDFT=  3500011 ScaDFX=  1.000000  1.000000  1.000000  1.000000
 Defaulting to unpruned grid for atomic number  53.
 FoFCou: FMM=F IPFlag=           0 FMFlag=      100000 FMFlg1=           0
         NFxFlg=           0 DoJE=T BraDBF=F KetDBF=T FulRan=T
         wScrn=  0.000000 ICntrl=     500 IOpCl=  0 I1Cent=   200000004 NGrid=           0
         NMat0=    1 NMatS0=      1 NMatT0=    0 NMatD0=    1 NMtDS0=    0 NMtDT0=    0
 Petite list used in FoFCou.
 Keep R1 ints in memory in canonical form, NReq=6045440.
 Requested convergence on RMS density matrix=1.00D-08 within 128 cycles.
 Requested convergence on MAX density matrix=1.00D-06.
 Requested convergence on             energy=1.00D-06.
 No special actions if energy rises.
 Integral accuracy reduced to 1.0D-05 until final iterations.
 Defaulting to unpruned grid for atomic number  53.
 Initial convergence to 1.0D-05 achieved.  Increase integral accuracy.
 SCF Done:  E(RM062X) =  -376.737001426     A.U. after   14 cycles
            NFock= 14  Conv=0.39D-08     -V/T= 2.9655
   1 Symmetry operations used in ECPInt.
 ECPInt:  NShTT=     703 NPrTT=    2701 LenC2=     704 LenP2D=    2407.
 LDataN:  DoStor=T MaxTD1= 7 Len=  274
 Calling FoFJK, ICntrl=      2127 FMM=F ISym2X=0 I1Cent= 0 IOpClX= 0 NMat=1 NMatS=1 NMatT=0.
 Defaulting to unpruned grid for atomic number  53.
 ***** Axes restored to original set *****
 -------------------------------------------------------------------
 Center     Atomic                   Forces (Hartrees/Bohr)
 Number     Number              X              Y              Z
 -------------------------------------------------------------------
      1        6           0.002221561    0.000361234    0.000569032
      2        6          -0.009115687   -0.000329489    0.002368166
      3       53           0.002272627    0.000031558   -0.000800495
      4        1           0.000309092    0.000102807    0.000284948
      5        1           0.000311269    0.000038291    0.000360764
      6        1           0.000293718    0.000188865    0.000317157
      7        1           0.001871759   -0.000423851   -0.001494148
      8        1           0.001835661    0.000030585   -0.001605423
 -------------------------------------------------------------------
 Cartesian Forces:  Max     0.009115687 RMS     0.002165166

 GradGradGradGradGradGradGradGradGradGradGradGradGradGradGradGradGradGrad
 Berny optimization.
 Using GEDIIS/GDIIS optimizer.
 FormGI is forming the generalized inverse of G from B-inverse, IUseBI=4.
 Internal  Forces:  Max     0.003516280 RMS     0.001100066
 Search for a local minimum.
 Step number   2 out of a maximum of   38
 All quantities printed in internal units (Hartrees-Bohrs-Radians)
 Mixed Optimization -- RFO/linear search
 Update second derivatives using D2CorX and points    1    2
 DE= -1.36D-03 DEPred=-1.11D-03 R= 1.23D+00
 TightC=F SS=  1.41D+00  RLast= 1.40D-01 DXNew= 5.0454D-01 4.1962D-01
 Trust test= 1.23D+00 RLast= 1.40D-01 DXMaxT set to 4.20D-01
 ITU=  1  0
 Use linear search instead of GDIIS.
     Eigenvalues ---    0.00515   0.04661   0.05501   0.05549   0.05770
     Eigenvalues ---    0.11998   0.15449   0.16000   0.16000   0.16000
     Eigenvalues ---    0.16272   0.21473   0.31645   0.34181   0.34195
     Eigenvalues ---    0.34212   0.34214   0.35776
 RFO step:  Lambda=-1.55077612D-04 EMin= 5.15065089D-03
 Quartic linear search produced a step of  0.33633.
 Iteration  1 RMS(Cart)=  0.00861582 RMS(Int)=  0.00036253
 Iteration  2 RMS(Cart)=  0.00016731 RMS(Int)=  0.00033552
 Iteration  3 RMS(Cart)=  0.00000006 RMS(Int)=  0.00033552
 Variable       Old X    -DE/DX   Delta X   Delta X   Delta X     New X
                                 (Linear)    (Quad)   (Total)
    R1        2.87426  -0.00352   0.00129  -0.01649  -0.01520   2.85906
    R2        2.08085  -0.00010   0.00392  -0.00357   0.00035   2.08120
    R3        2.07593  -0.00027   0.00200  -0.00269  -0.00069   2.07524
    R4        2.07592  -0.00027   0.00198  -0.00265  -0.00067   2.07525
    R5        4.06180   0.00228   0.01134   0.01391   0.02525   4.08705
    R6        2.07251  -0.00059   0.00091  -0.00307  -0.00216   2.07035
    R7        2.07250  -0.00059   0.00097  -0.00309  -0.00212   2.07037
    A1        1.91053  -0.00035  -0.00365   0.00009  -0.00356   1.90697
    A2        1.94519  -0.00040   0.00020  -0.00349  -0.00330   1.94190
    A3        1.94515  -0.00039   0.00007  -0.00331  -0.00325   1.94190
    A4        1.88747   0.00038   0.00171   0.00169   0.00340   1.89087
    A5        1.88745   0.00038   0.00175   0.00169   0.00342   1.89088
    A6        1.88621   0.00044   0.00008   0.00364   0.00372   1.88993
    A7        1.95454   0.00115   0.00651  -0.00362   0.00298   1.95753
    A8        1.95148   0.00106   0.01346   0.00132   0.01411   1.96559
    A9        1.95143   0.00107   0.01333   0.00151   0.01417   1.96560
   A10        1.85685  -0.00184  -0.01981  -0.00530  -0.02502   1.83182
   A11        1.85694  -0.00184  -0.01991  -0.00530  -0.02512   1.83182
   A12        1.88709   0.00012   0.00491   0.01125   0.01492   1.90201
    D1       -3.14152   0.00000   0.00004  -0.00005   0.00000  -3.14152
    D2        1.05953   0.00083   0.01165   0.00830   0.02029   1.07981
    D3       -1.05929  -0.00083  -0.01178  -0.00826  -0.02038  -1.07967
    D4       -1.05433   0.00000  -0.00008  -0.00008  -0.00016  -1.05449
    D5       -3.13647   0.00083   0.01153   0.00827   0.02013  -3.11634
    D6        1.02789  -0.00084  -0.01191  -0.00828  -0.02053   1.00737
    D7        1.05453   0.00000   0.00021  -0.00013   0.00008   1.05461
    D8       -1.02761   0.00084   0.01182   0.00822   0.02037  -1.00724
    D9        3.13676  -0.00083  -0.01162  -0.00834  -0.02029   3.11647
         Item               Value     Threshold  Converged?
 Maximum Force            0.003516     0.000450     NO 
 RMS     Force            0.001100     0.000300     NO 
 Maximum Displacement     0.026492     0.001800     NO 
 RMS     Displacement     0.008649     0.001200     NO 
 Predicted change in Energy=-1.862440D-04
 GradGradGradGradGradGradGradGradGradGradGradGradGradGradGradGradGradGrad

                          Input orientation:                          
 ---------------------------------------------------------------------
 Center     Atomic      Atomic             Coordinates (Angstroms)
 Number     Number       Type             X           Y           Z
 ---------------------------------------------------------------------
      1          6           0        0.122806   -0.698678    0.829773
      2          6           0        1.376064   -0.377382    1.614076
      3         53           0        3.156888   -0.502232    0.393148
      4          1           0       -0.751752   -0.621040    1.494629
      5          1           0       -0.014781    0.001131   -0.005283
      6          1           0        0.158055   -1.718051    0.422804
      7          1           0        1.548630   -1.078230    2.438294
      8          1           0        1.375390    0.644381    2.009458
 ---------------------------------------------------------------------
                    Distance matrix (angstroms):
                    1          2          3          4          5
     1  C    0.000000
     2  C    1.512950   0.000000
     3  I    3.071626   2.162773   0.000000
     4  H    1.101323   2.145049   4.062615   0.000000
     5  H    1.098172   2.167959   3.235987   1.783244   0.000000
     6  H    1.098175   2.167964   3.236062   1.783253   1.780089
     7  H    2.182744   1.095584   2.664750   2.528098   3.095214
     8  H    2.182757   1.095594   2.664755   2.528056   2.530915
                    6          7          8
     6  H    0.000000
     7  H    2.530863   0.000000
     8  H    3.095232   1.783620   0.000000
 Stoichiometry    C2H5I
 Framework group  C1[X(C2H5I)]
 Deg. of freedom    18
 Full point group                 C1      NOp   1
 Largest Abelian subgroup         C1      NOp   1
 Largest concise Abelian subgroup C1      NOp   1
                         Standard orientation:                         
 ---------------------------------------------------------------------
 Center     Atomic      Atomic             Coordinates (Angstroms)
 Number     Number       Type             X           Y           Z
 ---------------------------------------------------------------------
      1          6           0       -2.409371   -0.428168    0.000000
      2          6           0       -1.396158    0.695405    0.000003
      3         53           0        0.637660   -0.040239    0.000000
      4          1           0       -3.424772   -0.001704   -0.000073
      5          1           0       -2.300867   -1.062270   -0.890014
      6          1           0       -2.300953   -1.062203    0.890075
      7          1           0       -1.468117    1.327703    0.891813
      8          1           0       -1.468114    1.327720   -0.891808
 ---------------------------------------------------------------------
 Rotational constants (GHZ):     29.3607672      2.9564426      2.7805566
 Standard basis: def2SVP (5D, 7F)
 There are    83 symmetry adapted cartesian basis functions of A   symmetry.
 There are    79 symmetry adapted basis functions of A   symmetry.
    79 basis functions,   152 primitive gaussians,    83 cartesian basis functions
    21 alpha electrons       21 beta electrons
       nuclear repulsion energy       120.6428326929 Hartrees.
 NAtoms=    8 NActive=    8 NUniq=    8 SFac= 1.00D+00 NAtFMM=   60 NAOKFM=F Big=F
 Integral buffers will be    131072 words long.
 Raffenetti 2 integral format.
 Two-electron integral symmetry is turned on.
 One-electron integrals computed using PRISM.
   1 Symmetry operations used in ECPInt.
 ECPInt:  NShTT=     703 NPrTT=    2701 LenC2=     704 LenP2D=    2406.
 LDataN:  DoStor=T MaxTD1= 6 Len=  172
 NBasis=    79 RedAO= T EigKep=  4.17D-03  NBF=    79
 NBsUse=    79 1.00D-06 EigRej= -1.00D+00 NBFU=    79
 Defaulting to unpruned grid for atomic number  53.
 Initial guess from the checkpoint file:  "/srv/scratch/z5358697/gauss/Gau-3510518.chk"
 B after Tr=     0.000000    0.000000    0.000000
         Rot=    1.000000   -0.000008    0.000001   -0.000058 Ang=  -0.01 deg.
 ExpMin= 1.11D-01 ExpMax= 1.24D+03 ExpMxC= 1.86D+02 IAcc=1 IRadAn=         1 AccDes= 0.00D+00
 Harris functional with IExCor= 1009 and IRadAn=       1 diagonalized for initial guess.
 HarFok:  IExCor= 1009 AccDes= 0.00D+00 IRadAn=         1 IDoV= 1 UseB2=F ITyADJ=14
 ICtDFT=  3500011 ScaDFX=  1.000000  1.000000  1.000000  1.000000
 Defaulting to unpruned grid for atomic number  53.
 FoFCou: FMM=F IPFlag=           0 FMFlag=      100000 FMFlg1=           0
         NFxFlg=           0 DoJE=T BraDBF=F KetDBF=T FulRan=T
         wScrn=  0.000000 ICntrl=     500 IOpCl=  0 I1Cent=   200000004 NGrid=           0
         NMat0=    1 NMatS0=      1 NMatT0=    0 NMatD0=    1 NMtDS0=    0 NMtDT0=    0
 Petite list used in FoFCou.
 Keep R1 ints in memory in canonical form, NReq=6045440.
 Requested convergence on RMS density matrix=1.00D-08 within 128 cycles.
 Requested convergence on MAX density matrix=1.00D-06.
 Requested convergence on             energy=1.00D-06.
 No special actions if energy rises.
 Integral accuracy reduced to 1.0D-05 until final iterations.
 Defaulting to unpruned grid for atomic number  53.
 Initial convergence to 1.0D-05 achieved.  Increase integral accuracy.
 SCF Done:  E(RM062X) =  -376.737196977     A.U. after   13 cycles
            NFock= 13  Conv=0.40D-08     -V/T= 2.9654
   1 Symmetry operations used in ECPInt.
 ECPInt:  NShTT=     703 NPrTT=    2701 LenC2=     704 LenP2D=    2406.
 LDataN:  DoStor=T MaxTD1= 7 Len=  274
 Calling FoFJK, ICntrl=      2127 FMM=F ISym2X=0 I1Cent= 0 IOpClX= 0 NMat=1 NMatS=1 NMatT=0.
 Defaulting to unpruned grid for atomic number  53.
 ***** Axes restored to original set *****
 -------------------------------------------------------------------
 Center     Atomic                   Forces (Hartrees/Bohr)
 Number     Number              X              Y              Z
 -------------------------------------------------------------------
      1        6           0.000420574   -0.000034464   -0.000308620
      2        6          -0.000736935    0.000225330    0.001182038
      3       53           0.000155711   -0.000069804   -0.000342093
      4        1           0.000031090   -0.000032850   -0.000141300
      5        1          -0.000239644   -0.000105427    0.000122190
      6        1          -0.000260462    0.000104662    0.000071049
      7        1           0.000314714   -0.000036853   -0.000290954
      8        1           0.000314953   -0.000050594   -0.000292311
 -------------------------------------------------------------------
 Cartesian Forces:  Max     0.001182038 RMS     0.000351906

 GradGradGradGradGradGradGradGradGradGradGradGradGradGradGradGradGradGrad
 Berny optimization.
 Using GEDIIS/GDIIS optimizer.
 FormGI is forming the generalized inverse of G from B-inverse, IUseBI=4.
 Internal  Forces:  Max     0.000407772 RMS     0.000183506
 Search for a local minimum.
 Step number   3 out of a maximum of   38
 All quantities printed in internal units (Hartrees-Bohrs-Radians)
 Mixed Optimization -- En-DIIS/RFO-DIIS
 Update second derivatives using D2CorX and points    1    2    3
 DE= -1.96D-04 DEPred=-1.86D-04 R= 1.05D+00
 TightC=F SS=  1.41D+00  RLast= 7.29D-02 DXNew= 7.0572D-01 2.1879D-01
 Trust test= 1.05D+00 RLast= 7.29D-02 DXMaxT set to 4.20D-01
 ITU=  1  1  0
 Use linear search instead of GDIIS.
     Eigenvalues ---    0.00515   0.04217   0.05493   0.05593   0.05806
     Eigenvalues ---    0.11802   0.15779   0.16000   0.16000   0.16068
     Eigenvalues ---    0.16256   0.22063   0.32028   0.34167   0.34195
     Eigenvalues ---    0.34211   0.34214   0.35769
 RFO step:  Lambda=-7.06939253D-06 EMin= 5.15064971D-03
 Quartic linear search produced a step of  0.09396.
 Iteration  1 RMS(Cart)=  0.00177955 RMS(Int)=  0.00001748
 Iteration  2 RMS(Cart)=  0.00000417 RMS(Int)=  0.00001700
 Iteration  3 RMS(Cart)=  0.00000000 RMS(Int)=  0.00001700
 Variable       Old X    -DE/DX   Delta X   Delta X   Delta X     New X
                                 (Linear)    (Quad)   (Total)
    R1        2.85906   0.00021  -0.00143   0.00159   0.00016   2.85922
    R2        2.08120  -0.00015   0.00003  -0.00047  -0.00043   2.08077
    R3        2.07524  -0.00011  -0.00006  -0.00030  -0.00036   2.07488
    R4        2.07525  -0.00011  -0.00006  -0.00030  -0.00037   2.07488
    R5        4.08705   0.00029   0.00237   0.00112   0.00350   4.09055
    R6        2.07035  -0.00013  -0.00020  -0.00031  -0.00051   2.06984
    R7        2.07037  -0.00014  -0.00020  -0.00033  -0.00053   2.06984
    A1        1.90697   0.00014  -0.00033   0.00082   0.00048   1.90745
    A2        1.94190   0.00021  -0.00031   0.00176   0.00145   1.94335
    A3        1.94190   0.00021  -0.00031   0.00175   0.00144   1.94335
    A4        1.89087  -0.00021   0.00032  -0.00191  -0.00159   1.88927
    A5        1.89088  -0.00021   0.00032  -0.00192  -0.00160   1.88928
    A6        1.88993  -0.00016   0.00035  -0.00070  -0.00035   1.88958
    A7        1.95753  -0.00041   0.00028  -0.00303  -0.00274   1.95479
    A8        1.96559   0.00024   0.00133   0.00140   0.00269   1.96828
    A9        1.96560   0.00024   0.00133   0.00139   0.00269   1.96828
   A10        1.83182  -0.00006  -0.00235  -0.00079  -0.00314   1.82868
   A11        1.83182  -0.00006  -0.00236  -0.00078  -0.00314   1.82868
   A12        1.90201   0.00000   0.00140   0.00159   0.00293   1.90494
    D1       -3.14152   0.00000   0.00000  -0.00004  -0.00004  -3.14156
    D2        1.07981   0.00019   0.00191   0.00211   0.00404   1.08385
    D3       -1.07967  -0.00019  -0.00191  -0.00218  -0.00411  -1.08378
    D4       -1.05449  -0.00004  -0.00001  -0.00079  -0.00080  -1.05529
    D5       -3.11634   0.00015   0.00189   0.00136   0.00327  -3.11306
    D6        1.00737  -0.00023  -0.00193  -0.00293  -0.00488   1.00249
    D7        1.05461   0.00004   0.00001   0.00073   0.00074   1.05536
    D8       -1.00724   0.00023   0.00191   0.00288   0.00481  -1.00242
    D9        3.11647  -0.00015  -0.00191  -0.00141  -0.00334   3.11313
         Item               Value     Threshold  Converged?
 Maximum Force            0.000408     0.000450     YES
 RMS     Force            0.000184     0.000300     YES
 Maximum Displacement     0.004256     0.001800     NO 
 RMS     Displacement     0.001778     0.001200     NO 
 Predicted change in Energy=-5.341268D-06
 GradGradGradGradGradGradGradGradGradGradGradGradGradGradGradGradGradGrad

                          Input orientation:                          
 ---------------------------------------------------------------------
 Center     Atomic      Atomic             Coordinates (Angstroms)
 Number     Number       Type             X           Y           Z
 ---------------------------------------------------------------------
      1          6           0        0.122965   -0.698687    0.829659
      2          6           0        1.374730   -0.376952    1.616328
      3         53           0        3.156025   -0.502407    0.392872
      4          1           0       -0.752959   -0.621737    1.492414
      5          1           0       -0.015170    0.000819   -0.005308
      6          1           0        0.157640   -1.717845    0.422626
      7          1           0        1.550721   -1.078631    2.438756
      8          1           0        1.377349    0.645340    2.009553
 ---------------------------------------------------------------------
                    Distance matrix (angstroms):
                    1          2          3          4          5
     1  C    0.000000
     2  C    1.513036   0.000000
     3  I    3.070629   2.164624   0.000000
     4  H    1.101093   2.145306   4.062436   0.000000
     5  H    1.097980   2.168925   3.235469   1.781875   0.000000
     6  H    1.097980   2.168923   3.235504   1.781878   1.779549
     7  H    2.184499   1.095315   2.663583   2.532046   3.096882
     8  H    2.184499   1.095314   2.663582   2.532021   2.532623
                    6          7          8
     6  H    0.000000
     7  H    2.532598   0.000000
     8  H    3.096881   1.785034   0.000000
 Stoichiometry    C2H5I
 Framework group  C1[X(C2H5I)]
 Deg. of freedom    18
 Full point group                 C1      NOp   1
 Largest Abelian subgroup         C1      NOp   1
 Largest concise Abelian subgroup C1      NOp   1
                         Standard orientation:                         
 ---------------------------------------------------------------------
 Center     Atomic      Atomic             Coordinates (Angstroms)
 Number     Number       Type             X           Y           Z
 ---------------------------------------------------------------------
      1          6           0       -2.408369   -0.428718    0.000000
      2          6           0       -1.397545    0.697120    0.000000
      3         53           0        0.637596   -0.040307    0.000000
      4          1           0       -3.424687   -0.005040   -0.000037
      5          1           0       -2.300239   -1.062912   -0.889757
      6          1           0       -2.300282   -1.062870    0.889792
      7          1           0       -1.465942    1.328348    0.892517
      8          1           0       -1.465941    1.328347   -0.892517
 ---------------------------------------------------------------------
 Rotational constants (GHZ):     29.2883845      2.9570868      2.7805238
 Standard basis: def2SVP (5D, 7F)
 There are    83 symmetry adapted cartesian basis functions of A   symmetry.
 There are    79 symmetry adapted basis functions of A   symmetry.
    79 basis functions,   152 primitive gaussians,    83 cartesian basis functions
    21 alpha electrons       21 beta electrons
       nuclear repulsion energy       120.6234456182 Hartrees.
 NAtoms=    8 NActive=    8 NUniq=    8 SFac= 1.00D+00 NAtFMM=   60 NAOKFM=F Big=F
 Integral buffers will be    131072 words long.
 Raffenetti 2 integral format.
 Two-electron integral symmetry is turned on.
 One-electron integrals computed using PRISM.
   1 Symmetry operations used in ECPInt.
 ECPInt:  NShTT=     703 NPrTT=    2701 LenC2=     704 LenP2D=    2406.
 LDataN:  DoStor=T MaxTD1= 6 Len=  172
 NBasis=    79 RedAO= T EigKep=  4.18D-03  NBF=    79
 NBsUse=    79 1.00D-06 EigRej= -1.00D+00 NBFU=    79
 Defaulting to unpruned grid for atomic number  53.
 Initial guess from the checkpoint file:  "/srv/scratch/z5358697/gauss/Gau-3510518.chk"
 B after Tr=     0.000000    0.000000    0.000000
         Rot=    1.000000    0.000000    0.000000   -0.000037 Ang=   0.00 deg.
 Keep R1 ints in memory in canonical form, NReq=6045440.
 Requested convergence on RMS density matrix=1.00D-08 within 128 cycles.
 Requested convergence on MAX density matrix=1.00D-06.
 Requested convergence on             energy=1.00D-06.
 No special actions if energy rises.
 Defaulting to unpruned grid for atomic number  53.
 SCF Done:  E(RM062X) =  -376.737202195     A.U. after    8 cycles
            NFock=  8  Conv=0.48D-08     -V/T= 2.9654
   1 Symmetry operations used in ECPInt.
 ECPInt:  NShTT=     703 NPrTT=    2701 LenC2=     704 LenP2D=    2406.
 LDataN:  DoStor=T MaxTD1= 7 Len=  274
 Calling FoFJK, ICntrl=      2127 FMM=F ISym2X=0 I1Cent= 0 IOpClX= 0 NMat=1 NMatS=1 NMatT=0.
 Defaulting to unpruned grid for atomic number  53.
 ***** Axes restored to original set *****
 -------------------------------------------------------------------
 Center     Atomic                   Forces (Hartrees/Bohr)
 Number     Number              X              Y              Z
 -------------------------------------------------------------------
      1        6           0.000163700    0.000027557    0.000043759
      2        6          -0.000068584    0.000032397    0.000158420
      3       53           0.000034907   -0.000049190   -0.000211049
      4        1          -0.000079305    0.000008218    0.000066236
      5        1          -0.000060229    0.000022107    0.000049451
      6        1          -0.000057410   -0.000007554    0.000056602
      7        1           0.000034181   -0.000024265   -0.000079870
      8        1           0.000032739   -0.000009270   -0.000083549
 -------------------------------------------------------------------
 Cartesian Forces:  Max     0.000211049 RMS     0.000078697

 GradGradGradGradGradGradGradGradGradGradGradGradGradGradGradGradGradGrad
 Berny optimization.
 Using GEDIIS/GDIIS optimizer.
 FormGI is forming the generalized inverse of G from B-inverse, IUseBI=4.
 Internal  Forces:  Max     0.000124659 RMS     0.000049248
 Search for a local minimum.
 Step number   4 out of a maximum of   38
 All quantities printed in internal units (Hartrees-Bohrs-Radians)
 Mixed Optimization -- En-DIIS/RFO-DIIS
 Swapping is turned off.
 Update second derivatives using D2CorX and points    1    2    3    4
 DE= -5.22D-06 DEPred=-5.34D-06 R= 9.77D-01
 TightC=F SS=  1.41D+00  RLast= 1.33D-02 DXNew= 7.0572D-01 3.9837D-02
 Trust test= 9.77D-01 RLast= 1.33D-02 DXMaxT set to 4.20D-01
 ITU=  1  1  1  0
     Eigenvalues ---    0.00515   0.04021   0.05511   0.05582   0.05799
     Eigenvalues ---    0.11516   0.15529   0.15845   0.16000   0.16000
     Eigenvalues ---    0.17079   0.21197   0.32850   0.34137   0.34195
     Eigenvalues ---    0.34213   0.34223   0.35596
 En-DIIS/RFO-DIIS IScMMF=        0 using points:     4    3
 RFO step:  Lambda=-1.73420598D-07.
 DidBck=F Rises=F RFO-DIIS coefs:    1.11996   -0.11996
 Iteration  1 RMS(Cart)=  0.00052971 RMS(Int)=  0.00000068
 Iteration  2 RMS(Cart)=  0.00000032 RMS(Int)=  0.00000064
 Variable       Old X    -DE/DX   Delta X   Delta X   Delta X     New X
                                 (Linear)    (Quad)   (Total)
    R1        2.85922  -0.00007   0.00002  -0.00027  -0.00025   2.85898
    R2        2.08077   0.00007  -0.00005   0.00028   0.00023   2.08099
    R3        2.07488   0.00000  -0.00004   0.00006   0.00001   2.07490
    R4        2.07488   0.00000  -0.00004   0.00006   0.00001   2.07490
    R5        4.09055   0.00012   0.00042   0.00082   0.00124   4.09178
    R6        2.06984  -0.00003  -0.00006  -0.00004  -0.00010   2.06974
    R7        2.06984  -0.00003  -0.00006  -0.00004  -0.00010   2.06974
    A1        1.90745   0.00010   0.00006   0.00063   0.00068   1.90813
    A2        1.94335  -0.00002   0.00017  -0.00022  -0.00005   1.94330
    A3        1.94335  -0.00001   0.00017  -0.00022  -0.00005   1.94330
    A4        1.88927  -0.00004  -0.00019  -0.00015  -0.00035   1.88893
    A5        1.88928  -0.00004  -0.00019  -0.00016  -0.00035   1.88893
    A6        1.88958   0.00001  -0.00004   0.00012   0.00008   1.88966
    A7        1.95479  -0.00012  -0.00033  -0.00047  -0.00080   1.95398
    A8        1.96828  -0.00002   0.00032  -0.00023   0.00009   1.96837
    A9        1.96828  -0.00002   0.00032  -0.00023   0.00009   1.96837
   A10        1.82868   0.00006  -0.00038   0.00027  -0.00011   1.82858
   A11        1.82868   0.00006  -0.00038   0.00027  -0.00010   1.82858
   A12        1.90494   0.00006   0.00035   0.00047   0.00082   1.90576
    D1       -3.14156   0.00000   0.00000  -0.00002  -0.00002  -3.14158
    D2        1.08385   0.00002   0.00048   0.00012   0.00060   1.08445
    D3       -1.08378  -0.00002  -0.00049  -0.00015  -0.00064  -1.08442
    D4       -1.05529   0.00000  -0.00010   0.00006  -0.00004  -1.05533
    D5       -3.11306   0.00002   0.00039   0.00019   0.00059  -3.11248
    D6        1.00249  -0.00002  -0.00059  -0.00007  -0.00066   1.00183
    D7        1.05536   0.00000   0.00009  -0.00009   0.00000   1.05535
    D8       -1.00242   0.00002   0.00058   0.00004   0.00062  -1.00180
    D9        3.11313  -0.00002  -0.00040  -0.00022  -0.00062   3.11251
         Item               Value     Threshold  Converged?
 Maximum Force            0.000125     0.000450     YES
 RMS     Force            0.000049     0.000300     YES
 Maximum Displacement     0.001355     0.001800     YES
 RMS     Displacement     0.000530     0.001200     YES
 Predicted change in Energy=-2.475143D-07
 Optimization completed.
    -- Stationary point found.
                           ----------------------------
                           !   Optimized Parameters   !
                           ! (Angstroms and Degrees)  !
 --------------------------                            --------------------------
 ! Name  Definition              Value          Derivative Info.                !
 --------------------------------------------------------------------------------
 ! R1    R(1,2)                  1.513          -DE/DX =   -0.0001              !
 ! R2    R(1,4)                  1.1011         -DE/DX =    0.0001              !
 ! R3    R(1,5)                  1.098          -DE/DX =    0.0                 !
 ! R4    R(1,6)                  1.098          -DE/DX =    0.0                 !
 ! R5    R(2,3)                  2.1646         -DE/DX =    0.0001              !
 ! R6    R(2,7)                  1.0953         -DE/DX =    0.0                 !
 ! R7    R(2,8)                  1.0953         -DE/DX =    0.0                 !
 ! A1    A(2,1,4)              109.2887         -DE/DX =    0.0001              !
 ! A2    A(2,1,5)              111.3457         -DE/DX =    0.0                 !
 ! A3    A(2,1,6)              111.3456         -DE/DX =    0.0                 !
 ! A4    A(4,1,5)              108.2474         -DE/DX =    0.0                 !
 ! A5    A(4,1,6)              108.2476         -DE/DX =    0.0                 !
 ! A6    A(5,1,6)              108.265          -DE/DX =    0.0                 !
 ! A7    A(1,2,3)              112.001          -DE/DX =   -0.0001              !
 ! A8    A(1,2,7)              112.7742         -DE/DX =    0.0                 !
 ! A9    A(1,2,8)              112.7743         -DE/DX =    0.0                 !
 ! A10   A(3,2,7)              104.7759         -DE/DX =    0.0001              !
 ! A11   A(3,2,8)              104.7758         -DE/DX =    0.0001              !
 ! A12   A(7,2,8)              109.1451         -DE/DX =    0.0001              !
 ! D1    D(4,1,2,3)           -179.998          -DE/DX =    0.0                 !
 ! D2    D(4,1,2,7)             62.1001         -DE/DX =    0.0                 !
 ! D3    D(4,1,2,8)            -62.0961         -DE/DX =    0.0                 !
 ! D4    D(5,1,2,3)            -60.4635         -DE/DX =    0.0                 !
 ! D5    D(5,1,2,7)           -178.3655         -DE/DX =    0.0                 !
 ! D6    D(5,1,2,8)             57.4384         -DE/DX =    0.0                 !
 ! D7    D(6,1,2,3)             60.4674         -DE/DX =    0.0                 !
 ! D8    D(6,1,2,7)            -57.4346         -DE/DX =    0.0                 !
 ! D9    D(6,1,2,8)            178.3693         -DE/DX =    0.0                 !
 --------------------------------------------------------------------------------
 GradGradGradGradGradGradGradGradGradGradGradGradGradGradGradGradGradGrad

                          Input orientation:                          
 ---------------------------------------------------------------------
 Center     Atomic      Atomic             Coordinates (Angstroms)
 Number     Number       Type             X           Y           Z
 ---------------------------------------------------------------------
      1          6           0        0.122965   -0.698687    0.829659
      2          6           0        1.374730   -0.376952    1.616328
      3         53           0        3.156025   -0.502407    0.392872
      4          1           0       -0.752959   -0.621737    1.492414
      5          1           0       -0.015170    0.000819   -0.005308
      6          1           0        0.157640   -1.717845    0.422626
      7          1           0        1.550721   -1.078631    2.438756
      8          1           0        1.377349    0.645340    2.009553
 ---------------------------------------------------------------------
                    Distance matrix (angstroms):
                    1          2          3          4          5
     1  C    0.000000
     2  C    1.513036   0.000000
     3  I    3.070629   2.164624   0.000000
     4  H    1.101093   2.145306   4.062436   0.000000
     5  H    1.097980   2.168925   3.235469   1.781875   0.000000
     6  H    1.097980   2.168923   3.235504   1.781878   1.779549
     7  H    2.184499   1.095315   2.663583   2.532046   3.096882
     8  H    2.184499   1.095314   2.663582   2.532021   2.532623
                    6          7          8
     6  H    0.000000
     7  H    2.532598   0.000000
     8  H    3.096881   1.785034   0.000000
 Stoichiometry    C2H5I
 Framework group  C1[X(C2H5I)]
 Deg. of freedom    18
 Full point group                 C1      NOp   1
 Largest Abelian subgroup         C1      NOp   1
 Largest concise Abelian subgroup C1      NOp   1
                         Standard orientation:                         
 ---------------------------------------------------------------------
 Center     Atomic      Atomic             Coordinates (Angstroms)
 Number     Number       Type             X           Y           Z
 ---------------------------------------------------------------------
      1          6           0       -2.408369   -0.428718    0.000000
      2          6           0       -1.397545    0.697120    0.000000
      3         53           0        0.637596   -0.040307    0.000000
      4          1           0       -3.424687   -0.005040   -0.000037
      5          1           0       -2.300239   -1.062912   -0.889757
      6          1           0       -2.300282   -1.062870    0.889792
      7          1           0       -1.465942    1.328348    0.892517
      8          1           0       -1.465941    1.328347   -0.892517
 ---------------------------------------------------------------------
 Rotational constants (GHZ):     29.2883845      2.9570868      2.7805238

 **********************************************************************

            Population analysis using the SCF density.

 **********************************************************************

 Orbital symmetries:
       Occupied  (A) (A) (A) (A) (A) (A) (A) (A) (A) (A) (A) (A)
                 (A) (A) (A) (A) (A) (A) (A) (A) (A)
       Virtual   (A) (A) (A) (A) (A) (A) (A) (A) (A) (A) (A) (A)
                 (A) (A) (A) (A) (A) (A) (A) (A) (A) (A) (A) (A)
                 (A) (A) (A) (A) (A) (A) (A) (A) (A) (A) (A) (A)
                 (A) (A) (A) (A) (A) (A) (A) (A) (A) (A) (A) (A)
                 (A) (A) (A) (A) (A) (A) (A) (A) (A) (A)
 The electronic state is 1-A.
 Alpha  occ. eigenvalues --  -10.60760 -10.56431  -7.08762  -5.08345  -5.07019
 Alpha  occ. eigenvalues --   -5.07007  -2.05174  -2.04707  -2.04698  -2.03606
 Alpha  occ. eigenvalues --   -2.03606  -0.88085  -0.77037  -0.68568  -0.54030
 Alpha  occ. eigenvalues --   -0.50412  -0.46609  -0.43424  -0.38160  -0.30502
 Alpha  occ. eigenvalues --   -0.30395
 Alpha virt. eigenvalues --    0.00944   0.09993   0.14176   0.14518   0.16870
 Alpha virt. eigenvalues --    0.17965   0.23784   0.33582   0.39336   0.39460
 Alpha virt. eigenvalues --    0.41725   0.45185   0.45795   0.46626   0.47595
 Alpha virt. eigenvalues --    0.51685   0.53938   0.54466   0.65255   0.68335
 Alpha virt. eigenvalues --    0.70089   0.71779   0.72068   0.72630   0.74311
 Alpha virt. eigenvalues --    0.75909   0.76244   0.91953   1.01969   1.20226
 Alpha virt. eigenvalues --    1.23936   1.39301   1.55495   1.57136   1.73381
 Alpha virt. eigenvalues --    1.76919   1.78123   1.81295   1.84629   1.86709
 Alpha virt. eigenvalues --    1.88069   1.96752   2.05262   2.16195   2.25161
 Alpha virt. eigenvalues --    2.36043   2.42940   2.49986   2.55828   2.72533
 Alpha virt. eigenvalues --    2.83475   2.94535   2.95928   3.00213  18.65322
 Alpha virt. eigenvalues --   18.66542  18.93248  55.81878
          Condensed to atoms (all electrons):
               1          2          3          4          5          6
     1  C    4.628123   0.371609  -0.083602   0.376771   0.406594   0.406594
     2  C    0.371609   4.931723   0.283604  -0.012579  -0.031543  -0.031542
     3  I   -0.083602   0.283604  24.946354   0.007765  -0.000862  -0.000861
     4  H    0.376771  -0.012579   0.007765   0.620105  -0.020070  -0.020070
     5  H    0.406594  -0.031543  -0.000862  -0.020070   0.603607  -0.023846
     6  H    0.406594  -0.031542  -0.000861  -0.020070  -0.023846   0.603607
     7  H   -0.019816   0.384657  -0.044862  -0.005809   0.007088  -0.007358
     8  H   -0.019816   0.384658  -0.044862  -0.005809  -0.007357   0.007088
               7          8
     1  C   -0.019816  -0.019816
     2  C    0.384657   0.384658
     3  I   -0.044862  -0.044862
     4  H   -0.005809  -0.005809
     5  H    0.007088  -0.007357
     6  H   -0.007358   0.007088
     7  H    0.599670  -0.022195
     8  H   -0.022195   0.599670
 Mulliken charges:
               1
     1  C   -0.066458
     2  C   -0.280587
     3  I   -0.062673
     4  H    0.059696
     5  H    0.066388
     6  H    0.066388
     7  H    0.108623
     8  H    0.108623
 Sum of Mulliken charges =   0.00000
 Mulliken charges with hydrogens summed into heavy atoms:
               1
     1  C    0.126013
     2  C   -0.063340
     3  I   -0.062673
 Electronic spatial extent (au):  <R**2>=            431.9413
 Charge=              0.0000 electrons
 Dipole moment (field-independent basis, Debye):
    X=             -1.9394    Y=              0.4978    Z=              0.0000  Tot=              2.0023
 Quadrupole moment (field-independent basis, Debye-Ang):
   XX=            -36.8043   YY=            -40.5083   ZZ=            -41.0346
   XY=             -1.5687   XZ=              0.0000   YZ=              0.0000
 Traceless Quadrupole moment (field-independent basis, Debye-Ang):
   XX=              2.6447   YY=             -1.0592   ZZ=             -1.5855
   XY=             -1.5687   XZ=              0.0000   YZ=              0.0000
 Octapole moment (field-independent basis, Debye-Ang**2):
  XXX=             29.1067  YYY=             -0.6522  ZZZ=              0.0001  XYY=              8.6303
  XXY=             -1.2451  XXZ=             -0.0001  XZZ=              8.2857  YZZ=              0.1184
  YYZ=              0.0000  XYZ=              0.0000
 Hexadecapole moment (field-independent basis, Debye-Ang**3):
 XXXX=           -447.5032 YYYY=            -98.1483 ZZZZ=            -65.7923 XXXY=             -8.6412
 XXXZ=              0.0004 YYYX=             -4.0006 YYYZ=              0.0001 ZZZX=             -0.0002
 ZZZY=              0.0000 XXYY=            -93.5187 XXZZ=            -88.8435 YYZZ=            -24.8798
 XXYZ=             -0.0001 YYXZ=              0.0000 ZZXY=             -1.1953
 N-N= 1.206234456182D+02 E-N=-1.054841328028D+03  KE= 1.916811591476D+02
 1\1\GINC-KATANA3\FOpt\RM062X\def2SVP\C2H5I1\Z5358697\19-Mar-2025\0\\#m
 062X/def2SVP OPT Freq=noraman\\iodoethane\\0,1\C,0.1229645795,-0.69868
 72696,0.8296594533\C,1.3747300085,-0.3769517184,1.6163281857\I,3.15602
 50407,-0.5024074335,0.3928721407\H,-0.7529592143,-0.621737066,1.492413
 525\H,-0.0151697801,0.0008190249,-0.005308181\H,0.1576395594,-1.717844
 6866,0.4226258721\H,1.5507208399,-1.0786307589,2.4387560993\H,1.377348
 9664,0.6453399081,2.0095529049\\Version=ES64L-G09RevD.01\State=1-A\HF=
 -376.7372022\RMSD=4.836e-09\RMSF=7.870e-05\Dipole=-0.6876961,0.0262844
 ,0.3833601\Quadrupole=1.2166872,-1.1686938,-0.0479934,-0.1778951,-1.68
 21541,0.1123523\PG=C01 [X(C2H5I1)]\\@


 TOM, TOM, THE BURGLAR'S SON
 STOLE A MACHINE AND AWAY HE RUN
 THE JOB WAS NEAT, BUT TOM GOT BEAT
 BY THE TIME HE GOT HOME IT WAS OBSOLETE.
 Job cpu time:       0 days  0 hours  0 minutes 41.5 seconds.
 File lengths (MBytes):  RWF=     77 Int=      0 D2E=      0 Chk=      2 Scr=      2
 Normal termination of Gaussian 09 at Wed Mar 19 11:43:35 2025.
 Link1:  Proceeding to internal job step number  2.
 -------------------------------------------------------------------
 #N Geom=AllCheck Guess=TCheck SCRF=Check GenChk RM062X/def2SVP Freq
 -------------------------------------------------------------------
 1/10=4,29=7,30=1,38=1,40=1/1,3;
 2/12=2,40=1/2;
 3/5=43,7=101,11=2,14=-4,16=1,25=1,30=1,70=2,71=2,74=-55,116=1,140=1/1,2,3;
 4/5=101/1;
 5/5=2,98=1/2;
 8/6=4,10=90,11=11/1;
 11/6=1,8=1,9=11,15=111,16=1/1,2,10;
 10/6=1/2;
 6/7=2,8=2,9=2,10=2,18=1,28=1/1;
 7/8=1,10=1,25=1/1,2,3,16;
 1/10=4,30=1/3;
 99//99;
 Structure from the checkpoint file:  "/srv/scratch/z5358697/gauss/Gau-3510518.chk"
 ----------
 iodoethane
 ----------
 Charge =  0 Multiplicity = 1
 Redundant internal coordinates found in file.
 C,0,0.1229645795,-0.6986872696,0.8296594533
 C,0,1.3747300085,-0.3769517184,1.6163281857
 I,0,3.1560250407,-0.5024074335,0.3928721407
 H,0,-0.7529592143,-0.621737066,1.492413525
 H,0,-0.0151697801,0.0008190249,-0.005308181
 H,0,0.1576395594,-1.7178446866,0.4226258721
 H,0,1.5507208399,-1.0786307589,2.4387560993
 H,0,1.3773489664,0.6453399081,2.0095529049
 Recover connectivity data from disk.

 GradGradGradGradGradGradGradGradGradGradGradGradGradGradGradGradGradGrad
 Berny optimization.
 Initialization pass.
                           ----------------------------
                           !    Initial Parameters    !
                           ! (Angstroms and Degrees)  !
 --------------------------                            --------------------------
 ! Name  Definition              Value          Derivative Info.                !
 --------------------------------------------------------------------------------
 ! R1    R(1,2)                  1.513          calculate D2E/DX2 analytically  !
 ! R2    R(1,4)                  1.1011         calculate D2E/DX2 analytically  !
 ! R3    R(1,5)                  1.098          calculate D2E/DX2 analytically  !
 ! R4    R(1,6)                  1.098          calculate D2E/DX2 analytically  !
 ! R5    R(2,3)                  2.1646         calculate D2E/DX2 analytically  !
 ! R6    R(2,7)                  1.0953         calculate D2E/DX2 analytically  !
 ! R7    R(2,8)                  1.0953         calculate D2E/DX2 analytically  !
 ! A1    A(2,1,4)              109.2887         calculate D2E/DX2 analytically  !
 ! A2    A(2,1,5)              111.3457         calculate D2E/DX2 analytically  !
 ! A3    A(2,1,6)              111.3456         calculate D2E/DX2 analytically  !
 ! A4    A(4,1,5)              108.2474         calculate D2E/DX2 analytically  !
 ! A5    A(4,1,6)              108.2476         calculate D2E/DX2 analytically  !
 ! A6    A(5,1,6)              108.265          calculate D2E/DX2 analytically  !
 ! A7    A(1,2,3)              112.001          calculate D2E/DX2 analytically  !
 ! A8    A(1,2,7)              112.7742         calculate D2E/DX2 analytically  !
 ! A9    A(1,2,8)              112.7743         calculate D2E/DX2 analytically  !
 ! A10   A(3,2,7)              104.7759         calculate D2E/DX2 analytically  !
 ! A11   A(3,2,8)              104.7758         calculate D2E/DX2 analytically  !
 ! A12   A(7,2,8)              109.1451         calculate D2E/DX2 analytically  !
 ! D1    D(4,1,2,3)           -179.998          calculate D2E/DX2 analytically  !
 ! D2    D(4,1,2,7)             62.1001         calculate D2E/DX2 analytically  !
 ! D3    D(4,1,2,8)            -62.0961         calculate D2E/DX2 analytically  !
 ! D4    D(5,1,2,3)            -60.4635         calculate D2E/DX2 analytically  !
 ! D5    D(5,1,2,7)           -178.3655         calculate D2E/DX2 analytically  !
 ! D6    D(5,1,2,8)             57.4384         calculate D2E/DX2 analytically  !
 ! D7    D(6,1,2,3)             60.4674         calculate D2E/DX2 analytically  !
 ! D8    D(6,1,2,7)            -57.4346         calculate D2E/DX2 analytically  !
 ! D9    D(6,1,2,8)            178.3693         calculate D2E/DX2 analytically  !
 --------------------------------------------------------------------------------
 Trust Radius=3.00D-01 FncErr=1.00D-07 GrdErr=1.00D-07
 Number of steps in this run=      2 maximum allowed number of steps=      2.
 GradGradGradGradGradGradGradGradGradGradGradGradGradGradGradGradGradGrad

                          Input orientation:                          
 ---------------------------------------------------------------------
 Center     Atomic      Atomic             Coordinates (Angstroms)
 Number     Number       Type             X           Y           Z
 ---------------------------------------------------------------------
      1          6           0        0.122965   -0.698687    0.829659
      2          6           0        1.374730   -0.376952    1.616328
      3         53           0        3.156025   -0.502407    0.392872
      4          1           0       -0.752959   -0.621737    1.492414
      5          1           0       -0.015170    0.000819   -0.005308
      6          1           0        0.157640   -1.717845    0.422626
      7          1           0        1.550721   -1.078631    2.438756
      8          1           0        1.377349    0.645340    2.009553
 ---------------------------------------------------------------------
                    Distance matrix (angstroms):
                    1          2          3          4          5
     1  C    0.000000
     2  C    1.513036   0.000000
     3  I    3.070629   2.164624   0.000000
     4  H    1.101093   2.145306   4.062436   0.000000
     5  H    1.097980   2.168925   3.235469   1.781875   0.000000
     6  H    1.097980   2.168923   3.235504   1.781878   1.779549
     7  H    2.184499   1.095315   2.663583   2.532046   3.096882
     8  H    2.184499   1.095314   2.663582   2.532021   2.532623
                    6          7          8
     6  H    0.000000
     7  H    2.532598   0.000000
     8  H    3.096881   1.785034   0.000000
 Stoichiometry    C2H5I
 Framework group  C1[X(C2H5I)]
 Deg. of freedom    18
 Full point group                 C1      NOp   1
 Largest Abelian subgroup         C1      NOp   1
 Largest concise Abelian subgroup C1      NOp   1
                         Standard orientation:                         
 ---------------------------------------------------------------------
 Center     Atomic      Atomic             Coordinates (Angstroms)
 Number     Number       Type             X           Y           Z
 ---------------------------------------------------------------------
      1          6           0       -2.408369   -0.428718    0.000000
      2          6           0       -1.397545    0.697120    0.000000
      3         53           0        0.637596   -0.040307    0.000000
      4          1           0       -3.424687   -0.005040   -0.000037
      5          1           0       -2.300239   -1.062912   -0.889757
      6          1           0       -2.300282   -1.062870    0.889792
      7          1           0       -1.465942    1.328348    0.892517
      8          1           0       -1.465941    1.328347   -0.892517
 ---------------------------------------------------------------------
 Rotational constants (GHZ):     29.2883845      2.9570868      2.7805238
 Standard basis: def2SVP (5D, 7F)
 There are    83 symmetry adapted cartesian basis functions of A   symmetry.
 There are    79 symmetry adapted basis functions of A   symmetry.
    79 basis functions,   152 primitive gaussians,    83 cartesian basis functions
    21 alpha electrons       21 beta electrons
       nuclear repulsion energy       120.6234456182 Hartrees.
 NAtoms=    8 NActive=    8 NUniq=    8 SFac= 1.00D+00 NAtFMM=   60 NAOKFM=F Big=F
 Integral buffers will be    131072 words long.
 Raffenetti 2 integral format.
 Two-electron integral symmetry is turned on.
 One-electron integrals computed using PRISM.
   1 Symmetry operations used in ECPInt.
 ECPInt:  NShTT=     703 NPrTT=    2701 LenC2=     704 LenP2D=    2406.
 LDataN:  DoStor=T MaxTD1= 6 Len=  172
 NBasis=    79 RedAO= T EigKep=  4.18D-03  NBF=    79
 NBsUse=    79 1.00D-06 EigRej= -1.00D+00 NBFU=    79
 Defaulting to unpruned grid for atomic number  53.
 Initial guess from the checkpoint file:  "/srv/scratch/z5358697/gauss/Gau-3510518.chk"
 B after Tr=     0.000000    0.000000    0.000000
         Rot=    1.000000    0.000000    0.000000    0.000000 Ang=   0.00 deg.
 Keep R1 ints in memory in canonical form, NReq=6045440.
 Requested convergence on RMS density matrix=1.00D-08 within 128 cycles.
 Requested convergence on MAX density matrix=1.00D-06.
 Requested convergence on             energy=1.00D-06.
 No special actions if energy rises.
 Defaulting to unpruned grid for atomic number  53.
 SCF Done:  E(RM062X) =  -376.737202195     A.U. after    1 cycles
            NFock=  1  Conv=0.15D-08     -V/T= 2.9654
 DoSCS=F DFT=T ScalE2(SS,OS)=  1.000000  1.000000
 Range of M.O.s used for correlation:     1    79
 NBasis=    79 NAE=    21 NBE=    21 NFC=     0 NFV=     0
 NROrb=     79 NOA=    21 NOB=    21 NVA=    58 NVB=    58
   1 Symmetry operations used in ECPInt.
 ECPInt:  NShTT=     703 NPrTT=    2701 LenC2=     704 LenP2D=    2406.
 LDataN:  DoStor=T MaxTD1= 7 Len=  274
 Symmetrizing basis deriv contribution to polar:
 IMax=3 JMax=2 DiffMx= 0.00D+00
 G2DrvN: will do     9 centers at a time, making    1 passes.
 Calling FoFCou, ICntrl=  3107 FMM=F I1Cent=   0 AccDes= 0.00D+00.
 Defaulting to unpruned grid for atomic number  53.
 End of G2Drv F.D. properties file   721 does not exist.
 End of G2Drv F.D. properties file   722 does not exist.
 End of G2Drv F.D. properties file   788 does not exist.
          IDoAtm=11111111
          Differentiating once with respect to electric field.
                with respect to dipole field.
          Differentiating once with respect to nuclear coordinates.
 Defaulting to unpruned grid for atomic number  53.
 Keep R1 ints in memory in canonical form, NReq=6022128.
 Defaulting to unpruned grid for atomic number  53.
          There are    27 degrees of freedom in the 1st order CPHF.  IDoFFX=6 NUNeed=     3.
     24 vectors produced by pass  0 Test12= 4.51D-15 3.70D-09 XBig12= 3.85D+01 4.78D+00.
 AX will form    24 AO Fock derivatives at one time.
     24 vectors produced by pass  1 Test12= 4.51D-15 3.70D-09 XBig12= 3.44D+00 4.15D-01.
     24 vectors produced by pass  2 Test12= 4.51D-15 3.70D-09 XBig12= 3.57D-02 5.17D-02.
     24 vectors produced by pass  3 Test12= 4.51D-15 3.70D-09 XBig12= 1.82D-04 3.19D-03.
     24 vectors produced by pass  4 Test12= 4.51D-15 3.70D-09 XBig12= 1.22D-06 2.42D-04.
     22 vectors produced by pass  5 Test12= 4.51D-15 3.70D-09 XBig12= 5.19D-09 1.31D-05.
      8 vectors produced by pass  6 Test12= 4.51D-15 3.70D-09 XBig12= 1.16D-11 6.76D-07.
      3 vectors produced by pass  7 Test12= 4.51D-15 3.70D-09 XBig12= 2.75D-14 3.94D-08.
 InvSVY:  IOpt=1 It=  1 EMax= 2.66D-15
 Solved reduced A of dimension   153 with    27 vectors.
 Isotropic polarizability for W=    0.000000       46.48 Bohr**3.
 End of Minotr F.D. properties file   721 does not exist.
 End of Minotr F.D. properties file   722 does not exist.
 End of Minotr F.D. properties file   788 does not exist.

 **********************************************************************

            Population analysis using the SCF density.

 **********************************************************************

 Orbital symmetries:
       Occupied  (A) (A) (A) (A) (A) (A) (A) (A) (A) (A) (A) (A)
                 (A) (A) (A) (A) (A) (A) (A) (A) (A)
       Virtual   (A) (A) (A) (A) (A) (A) (A) (A) (A) (A) (A) (A)
                 (A) (A) (A) (A) (A) (A) (A) (A) (A) (A) (A) (A)
                 (A) (A) (A) (A) (A) (A) (A) (A) (A) (A) (A) (A)
                 (A) (A) (A) (A) (A) (A) (A) (A) (A) (A) (A) (A)
                 (A) (A) (A) (A) (A) (A) (A) (A) (A) (A)
 The electronic state is 1-A.
 Alpha  occ. eigenvalues --  -10.60760 -10.56431  -7.08762  -5.08345  -5.07019
 Alpha  occ. eigenvalues --   -5.07007  -2.05174  -2.04707  -2.04698  -2.03606
 Alpha  occ. eigenvalues --   -2.03606  -0.88085  -0.77037  -0.68568  -0.54030
 Alpha  occ. eigenvalues --   -0.50412  -0.46609  -0.43424  -0.38160  -0.30502
 Alpha  occ. eigenvalues --   -0.30395
 Alpha virt. eigenvalues --    0.00944   0.09993   0.14176   0.14518   0.16870
 Alpha virt. eigenvalues --    0.17965   0.23784   0.33582   0.39336   0.39460
 Alpha virt. eigenvalues --    0.41725   0.45185   0.45795   0.46626   0.47595
 Alpha virt. eigenvalues --    0.51685   0.53938   0.54466   0.65255   0.68335
 Alpha virt. eigenvalues --    0.70089   0.71779   0.72068   0.72630   0.74311
 Alpha virt. eigenvalues --    0.75909   0.76244   0.91953   1.01969   1.20226
 Alpha virt. eigenvalues --    1.23936   1.39301   1.55495   1.57136   1.73381
 Alpha virt. eigenvalues --    1.76919   1.78123   1.81295   1.84629   1.86709
 Alpha virt. eigenvalues --    1.88069   1.96752   2.05262   2.16195   2.25161
 Alpha virt. eigenvalues --    2.36043   2.42940   2.49986   2.55828   2.72533
 Alpha virt. eigenvalues --    2.83475   2.94535   2.95928   3.00213  18.65322
 Alpha virt. eigenvalues --   18.66542  18.93248  55.81878
          Condensed to atoms (all electrons):
               1          2          3          4          5          6
     1  C    4.628123   0.371609  -0.083602   0.376771   0.406594   0.406594
     2  C    0.371609   4.931723   0.283604  -0.012579  -0.031543  -0.031542
     3  I   -0.083602   0.283604  24.946354   0.007765  -0.000862  -0.000861
     4  H    0.376771  -0.012579   0.007765   0.620105  -0.020070  -0.020070
     5  H    0.406594  -0.031543  -0.000862  -0.020070   0.603607  -0.023846
     6  H    0.406594  -0.031542  -0.000861  -0.020070  -0.023846   0.603607
     7  H   -0.019816   0.384657  -0.044862  -0.005809   0.007089  -0.007358
     8  H   -0.019816   0.384658  -0.044862  -0.005809  -0.007357   0.007088
               7          8
     1  C   -0.019816  -0.019816
     2  C    0.384657   0.384658
     3  I   -0.044862  -0.044862
     4  H   -0.005809  -0.005809
     5  H    0.007089  -0.007357
     6  H   -0.007358   0.007088
     7  H    0.599670  -0.022195
     8  H   -0.022195   0.599670
 Mulliken charges:
               1
     1  C   -0.066458
     2  C   -0.280587
     3  I   -0.062673
     4  H    0.059696
     5  H    0.066388
     6  H    0.066388
     7  H    0.108623
     8  H    0.108623
 Sum of Mulliken charges =   0.00000
[...]
 Red. masses --      1.2557                 1.0356                 1.1305
 Frc consts  --      1.4256                 1.2913                 1.4249
 IR Inten    --      4.8319                11.6540                 2.0345
  Atom  AN      X      Y      Z        X      Y      Z        X      Y      Z
     1   6    -0.11  -0.11   0.00     0.00   0.00  -0.05    -0.04  -0.01   0.00
     2   6     0.02   0.00   0.00     0.00   0.00  -0.02     0.03   0.09   0.00
     3  53     0.00   0.00   0.00     0.00   0.00   0.00     0.00   0.00   0.00
     4   1     0.19   0.57   0.00     0.00   0.00   0.70     0.03   0.16   0.00
     5   1     0.45   0.23  -0.16     0.50  -0.02   0.05     0.14  -0.09   0.08
     6   1     0.45   0.23   0.16    -0.50   0.02   0.05     0.14  -0.09  -0.08
     7   1    -0.03   0.14  -0.09    -0.03  -0.04   0.00    -0.03  -0.52   0.41
     8   1    -0.03   0.14   0.09     0.03   0.04   0.00    -0.03  -0.52  -0.41
                     13                     14                     15
                      A                      A                      A
 Frequencies --   1469.2901              3054.6152              3132.2683
 Red. masses --      1.0489                 1.0377                 1.0667
 Frc consts  --      1.3342                 5.7048                 6.1662
 IR Inten    --      1.6154                14.4367                 1.8901
  Atom  AN      X      Y      Z        X      Y      Z        X      Y      Z
     1   6    -0.02   0.05   0.00    -0.05  -0.03   0.00    -0.02   0.03   0.00
     2   6    -0.03  -0.01   0.00     0.00   0.00   0.00     0.00  -0.06   0.00
     3  53     0.00   0.00   0.00     0.00   0.00   0.00     0.00   0.00   0.00
     4   1     0.10   0.30   0.00     0.65  -0.28   0.00     0.26  -0.11   0.00
     5   1     0.16  -0.49   0.39    -0.06   0.28   0.41     0.02  -0.12  -0.17
     6   1     0.16  -0.49  -0.39    -0.06   0.28  -0.41     0.02  -0.12   0.17
     7   1     0.06   0.14  -0.10     0.00   0.00   0.01    -0.03   0.36   0.53
     8   1     0.06   0.14   0.10     0.00   0.00  -0.01    -0.03   0.36  -0.53
                     16                     17                     18
                      A                      A                      A
 Frequencies --   3145.8570              3162.5864              3209.9871
 Red. masses --      1.0941                 1.1061                 1.1116
 Frc consts  --      6.3795                 6.5181                 6.7483
 IR Inten    --      9.7413                 5.4769                 0.9433
  Atom  AN      X      Y      Z        X      Y      Z        X      Y      Z
     1   6    -0.06   0.06   0.00     0.00   0.00   0.09     0.00   0.00   0.02
     2   6     0.00   0.03   0.00     0.00   0.00  -0.02     0.00   0.00   0.10
     3  53     0.00   0.00   0.00     0.00   0.00   0.00     0.00   0.00   0.00
     4   1     0.58  -0.24   0.00     0.00   0.00   0.01     0.00   0.00   0.00
     5   1     0.04  -0.25  -0.38     0.08  -0.40  -0.56     0.01  -0.08  -0.11
     6   1     0.04  -0.25   0.38    -0.08   0.40  -0.56    -0.01   0.08  -0.11
     7   1     0.01  -0.17  -0.25    -0.01   0.08   0.11     0.04  -0.40  -0.56
     8   1     0.01  -0.17   0.25     0.01  -0.08   0.11    -0.04   0.40  -0.56

 -------------------
 - Thermochemistry -
 -------------------
 Temperature   298.150 Kelvin.  Pressure   1.00000 Atm.
 Atom     1 has atomic number  6 and mass  12.00000
 Atom     2 has atomic number  6 and mass  12.00000
 Atom     3 has atomic number 53 and mass 126.90040
 Atom     4 has atomic number  1 and mass   1.00783
 Atom     5 has atomic number  1 and mass   1.00783
 Atom     6 has atomic number  1 and mass   1.00783
 Atom     7 has atomic number  1 and mass   1.00783
 Atom     8 has atomic number  1 and mass   1.00783
 Molecular mass:   155.93953 amu.
 Principal axes and moments of inertia in atomic units:
                           1         2         3
     Eigenvalues --    61.61969 610.31052 649.06519
           X            0.99996   0.00866   0.00000
           Y           -0.00866   0.99996   0.00000
           Z            0.00000   0.00000   1.00000
 This molecule is an asymmetric top.
 Rotational symmetry number  1.
 Rotational temperatures (Kelvin)      1.40562     0.14192     0.13344
 Rotational constants (GHZ):          29.28838     2.95709     2.78052
 Zero-point vibrational energy     172129.4 (Joules/Mol)
                                   41.13990 (Kcal/Mol)
 Warning -- explicit consideration of   3 degrees of freedom as
           vibrations may cause significant error
 Vibrational temperatures:    332.41   378.69   770.27  1059.88  1400.77
          (Kelvin)           1424.34  1562.46  1780.72  1790.19  1997.19
                             2093.03  2104.42  2113.98  4394.90  4506.63
                             4526.18  4550.25  4618.45
 
 Zero-point correction=                           0.065561 (Hartree/Particle)
 Thermal correction to Energy=                    0.069832
 Thermal correction to Enthalpy=                  0.070776
 Thermal correction to Gibbs Free Energy=         0.037281
 Sum of electronic and zero-point Energies=           -376.671642
 Sum of electronic and thermal Energies=              -376.667370
 Sum of electronic and thermal Enthalpies=            -376.666426
 Sum of electronic and thermal Free Energies=         -376.699921
 
                     E (Thermal)             CV                S
                      KCal/Mol        Cal/Mol-Kelvin    Cal/Mol-Kelvin
 Total                   43.820             13.242             70.497
 Electronic               0.000              0.000              0.000
 Translational            0.889              2.981             41.042
 Rotational               0.889              2.981             24.705
 Vibrational             42.043              7.280              4.750
 Vibration     1          0.653              1.794              1.871
 Vibration     2          0.670              1.740              1.640
 Vibration     3          0.890              1.172              0.575
                       Q            Log10(Q)             Ln(Q)
 Total Bot       0.711250D-17        -17.147978        -39.484678
 Total V=0       0.101799D+14         13.007745         29.951441
 Vib (Bot)       0.166153D-29        -29.779493        -68.569817
 Vib (Bot)    1  0.852099D+00         -0.069510         -0.160052
 Vib (Bot)    2  0.736794D+00         -0.132654         -0.305447
 Vib (Bot)    3  0.297236D+00         -0.526899         -1.213229
 Vib (V=0)       0.237810D+01          0.376230          0.866302
 Vib (V=0)    1  0.148796D+01          0.172592          0.397409
 Vib (V=0)    2  0.139043D+01          0.143149          0.329613
 Vib (V=0)    3  0.108168D+01          0.034098          0.078513
 Electronic      0.100000D+01          0.000000          0.000000
 Translational   0.765402D+08          7.883890         18.153326
 Rotational      0.559275D+05          4.747626         10.931812
 ***** Axes restored to original set *****
 -------------------------------------------------------------------
 Center     Atomic                   Forces (Hartrees/Bohr)
 Number     Number              X              Y              Z
 -------------------------------------------------------------------
      1        6           0.000163699    0.000027556    0.000043754
      2        6          -0.000068574    0.000032399    0.000158422
      3       53           0.000034901   -0.000049191   -0.000211051
      4        1          -0.000079305    0.000008218    0.000066236
      5        1          -0.000060229    0.000022105    0.000049452
      6        1          -0.000057411   -0.000007552    0.000056602
      7        1           0.000034180   -0.000024266   -0.000079868
      8        1           0.000032739   -0.000009269   -0.000083548
 -------------------------------------------------------------------
 Cartesian Forces:  Max     0.000211051 RMS     0.000078697
 FormGI is forming the generalized inverse of G from B-inverse, IUseBI=4.

 GradGradGradGradGradGradGradGradGradGradGradGradGradGradGradGradGradGrad
 Berny optimization.
 Internal  Forces:  Max     0.000124670 RMS     0.000049249
 Search for a local minimum.
 Step number   1 out of a maximum of    2
 All quantities printed in internal units (Hartrees-Bohrs-Radians)
 Second derivative matrix not updated -- analytic derivatives used.
 ITU=  0
     Eigenvalues ---    0.00249   0.03921   0.04314   0.04386   0.04841
     Eigenvalues ---    0.11447   0.11651   0.12104   0.13394   0.16691
     Eigenvalues ---    0.16847   0.19699   0.32494   0.34149   0.34652
     Eigenvalues ---    0.34980   0.35433   0.35701
 Angle between quadratic step and forces=  37.55 degrees.
 Linear search not attempted -- first point.
 Iteration  1 RMS(Cart)=  0.00061027 RMS(Int)=  0.00000031
 Iteration  2 RMS(Cart)=  0.00000041 RMS(Int)=  0.00000008
 Variable       Old X    -DE/DX   Delta X   Delta X   Delta X     New X
                                 (Linear)    (Quad)   (Total)
    R1        2.85922  -0.00007   0.00000  -0.00023  -0.00023   2.85899
    R2        2.08077   0.00007   0.00000   0.00023   0.00023   2.08100
    R3        2.07488   0.00000   0.00000   0.00002   0.00002   2.07490
    R4        2.07488   0.00000   0.00000   0.00002   0.00002   2.07490
    R5        4.09055   0.00012   0.00000   0.00101   0.00101   4.09156
    R6        2.06984  -0.00003   0.00000  -0.00011  -0.00011   2.06974
    R7        2.06984  -0.00003   0.00000  -0.00011  -0.00011   2.06974
    A1        1.90745   0.00010   0.00000   0.00076   0.00076   1.90821
    A2        1.94335  -0.00002   0.00000  -0.00005  -0.00005   1.94330
    A3        1.94335  -0.00001   0.00000  -0.00005  -0.00005   1.94330
    A4        1.88927  -0.00004   0.00000  -0.00040  -0.00040   1.88888
    A5        1.88928  -0.00004   0.00000  -0.00040  -0.00040   1.88888
    A6        1.88958   0.00001   0.00000   0.00011   0.00011   1.88969
    A7        1.95479  -0.00012   0.00000  -0.00096  -0.00096   1.95382
    A8        1.96828  -0.00002   0.00000   0.00005   0.00005   1.96833
    A9        1.96828  -0.00002   0.00000   0.00005   0.00005   1.96833
   A10        1.82868   0.00006   0.00000  -0.00002  -0.00002   1.82867
   A11        1.82868   0.00006   0.00000  -0.00002  -0.00002   1.82867
   A12        1.90494   0.00006   0.00000   0.00091   0.00091   1.90585
    D1       -3.14156   0.00000   0.00000  -0.00004  -0.00004   3.14159
    D2        1.08385   0.00002   0.00000   0.00061   0.00061   1.08446
    D3       -1.08378  -0.00002   0.00000  -0.00069  -0.00069  -1.08447
    D4       -1.05529   0.00000   0.00000  -0.00007  -0.00007  -1.05536
    D5       -3.11306   0.00002   0.00000   0.00058   0.00058  -3.11248
    D6        1.00249  -0.00002   0.00000  -0.00072  -0.00072   1.00177
    D7        1.05536   0.00000   0.00000   0.00000   0.00000   1.05535
    D8       -1.00242   0.00002   0.00000   0.00065   0.00065  -1.00177
    D9        3.11313  -0.00002   0.00000  -0.00065  -0.00065   3.11248
         Item               Value     Threshold  Converged?
 Maximum Force            0.000125     0.000450     YES
 RMS     Force            0.000049     0.000300     YES
 Maximum Displacement     0.001508     0.001800     YES
 RMS     Displacement     0.000610     0.001200     YES
 Predicted change in Energy=-2.608402D-07
 Optimization completed.
    -- Stationary point found.
                           ----------------------------
                           !   Optimized Parameters   !
                           ! (Angstroms and Degrees)  !
 --------------------------                            --------------------------
 ! Name  Definition              Value          Derivative Info.                !
 --------------------------------------------------------------------------------
 ! R1    R(1,2)                  1.513          -DE/DX =   -0.0001              !
 ! R2    R(1,4)                  1.1011         -DE/DX =    0.0001              !
 ! R3    R(1,5)                  1.098          -DE/DX =    0.0                 !
 ! R4    R(1,6)                  1.098          -DE/DX =    0.0                 !
 ! R5    R(2,3)                  2.1646         -DE/DX =    0.0001              !
 ! R6    R(2,7)                  1.0953         -DE/DX =    0.0                 !
 ! R7    R(2,8)                  1.0953         -DE/DX =    0.0                 !
 ! A1    A(2,1,4)              109.2887         -DE/DX =    0.0001              !
 ! A2    A(2,1,5)              111.3457         -DE/DX =    0.0                 !
 ! A3    A(2,1,6)              111.3456         -DE/DX =    0.0                 !
 ! A4    A(4,1,5)              108.2474         -DE/DX =    0.0                 !
 ! A5    A(4,1,6)              108.2476         -DE/DX =    0.0                 !
 ! A6    A(5,1,6)              108.265          -DE/DX =    0.0                 !
 ! A7    A(1,2,3)              112.001          -DE/DX =   -0.0001              !
 ! A8    A(1,2,7)              112.7742         -DE/DX =    0.0                 !
 ! A9    A(1,2,8)              112.7743         -DE/DX =    0.0                 !
 ! A10   A(3,2,7)              104.7759         -DE/DX =    0.0001              !
 ! A11   A(3,2,8)              104.7758         -DE/DX =    0.0001              !
 ! A12   A(7,2,8)              109.1451         -DE/DX =    0.0001              !
 ! D1    D(4,1,2,3)            180.002          -DE/DX =    0.0                 !
 ! D2    D(4,1,2,7)             62.1001         -DE/DX =    0.0                 !
 ! D3    D(4,1,2,8)            -62.0961         -DE/DX =    0.0                 !
 ! D4    D(5,1,2,3)            -60.4635         -DE/DX =    0.0                 !
 ! D5    D(5,1,2,7)           -178.3655         -DE/DX =    0.0                 !
 ! D6    D(5,1,2,8)             57.4384         -DE/DX =    0.0                 !
 ! D7    D(6,1,2,3)             60.4674         -DE/DX =    0.0                 !
 ! D8    D(6,1,2,7)            -57.4346         -DE/DX =    0.0                 !
 ! D9    D(6,1,2,8)            178.3693         -DE/DX =    0.0                 !
 --------------------------------------------------------------------------------
 GradGradGradGradGradGradGradGradGradGradGradGradGradGradGradGradGradGrad

 1\1\GINC-KATANA3\Freq\RM062X\def2SVP\C2H5I1\Z5358697\19-Mar-2025\0\\#N
  Geom=AllCheck Guess=TCheck SCRF=Check GenChk RM062X/def2SVP Freq\\iod
 oethane\\0,1\C,0.1229645795,-0.6986872696,0.8296594533\C,1.3747300085,
 -0.3769517184,1.6163281857\I,3.1560250407,-0.5024074335,0.3928721407\H
 ,-0.7529592143,-0.621737066,1.492413525\H,-0.0151697801,0.0008190249,-
 0.005308181\H,0.1576395594,-1.7178446866,0.4226258721\H,1.5507208399,-
 1.0786307589,2.4387560993\H,1.3773489664,0.6453399081,2.0095529049\\Ve
 rsion=ES64L-G09RevD.01\State=1-A\HF=-376.7372022\RMSD=1.513e-09\RMSF=7
 .870e-05\ZeroPoint=0.0655606\Thermal=0.069832\Dipole=-0.687696,0.02628
 44,0.3833601\DipoleDeriv=-0.1416674,-0.0113709,0.0240247,0.0308122,0.0
 306333,-0.0134143,0.1934283,0.0036266,-0.0327114,0.6712367,-0.0040668,
 -0.2893907,-0.013263,-0.0026558,0.0138168,-0.3263295,0.0100994,0.16762
 59,-0.3420568,-0.0066191,0.0622829,0.0062834,-0.12216,-0.0030151,0.114
 1145,0.002197,-0.1593103,-0.1403882,-0.0040853,0.0807759,-0.0190421,0.
 0960376,-0.0092052,0.0207046,-0.0152478,0.0306568,0.0619604,-0.0180688
 ,-0.0058386,0.0085666,0.0064562,0.0739771,-0.0638489,0.0611552,-0.0069
 799,0.0601151,0.0329674,-0.0045593,-0.0181338,-0.0533443,-0.0502452,-0
 .044799,-0.0473031,0.0546614,-0.0854285,-0.0077761,0.0644541,0.0213705
 ,0.048968,0.0394982,0.0428606,0.0436121,-0.0525937,-0.0837714,0.019019
 6,0.0682512,-0.0165937,-0.0039351,-0.0514124,0.0638695,-0.0581393,-0.0
 013489\Polar=61.0783457,0.029776,35.9364345,-10.1014122,0.6376547,42.4
 163253\PG=C01 [X(C2H5I1)]\NImag=0\\0.50776297,-0.01537713,0.58648692,-
 0.02854399,-0.00793033,0.56968202,-0.17299341,-0.02751763,-0.07487814,
 0.34569304,-0.02885822,-0.09171905,-0.01637364,-0.00005883,0.59089108,
 -0.08026392,-0.01691569,-0.12026217,0.10095082,-0.02128952,0.46990345,
 -0.02706398,0.00181055,0.01846163,-0.06331487,0.00497846,0.03743049,0.
 10961198,-0.00249876,0.00093208,0.00217498,0.00451304,-0.02067963,-0.0
 0392606,-0.00606978,0.01231170,0.00115433,0.00043430,0.00192030,0.0355
 6154,-0.00411402,-0.05104544,-0.06404268,0.00602533,0.06149339,-0.2137
 8920,0.01580322,0.13126786,-0.02076036,0.00164552,0.01446556,-0.003109
 37,-0.00068826,-0.00111776,0.23199579,0.01534758,-0.04739529,-0.012241
 38,-0.00493948,-0.00076590,0.00415943,-0.00137031,0.00082659,-0.000013
 09,-0.01586060,0.04465870,0.12943727,-0.01242524,-0.14806156,-0.011981
 22,0.00150024,0.00955852,-0.00385618,-0.00028855,0.00136630,-0.1400876
 5,0.01376049,0.15466146,-0.04781389,0.01928835,-0.02159132,-0.00526858
 ,0.01960109,-0.02201681,0.00143414,0.00025539,-0.00031320,0.00401440,-
 0.01676221,0.01780923,0.05235260,0.02120182,-0.16398420,0.13669040,-0.
 00110471,0.00633673,-0.00743649,0.00014650,-0.00002803,-0.00019107,-0.
 00068193,0.00207513,-0.00406237,-0.02101821,0.16999153,-0.02481850,0.1
 3552641,-0.20560010,-0.00006895,0.01017318,-0.01236592,-0.00002632,-0.
 00030605,0.00110485,-0.00353068,0.01091446,-0.01225875,0.02909897,-0.1
 4635733,0.21878211,-0.04505241,0.01441384,0.00594615,-0.00048334,-0.02
 868320,-0.01031126,0.00147584,-0.00013853,-0.00029552,-0.00001389,0.02
 311215,0.00740412,-0.00116398,0.00277733,0.00186133,0.04901593,0.01116
 844,-0.28892770,-0.09399903,0.00064505,-0.00413363,-0.00168165,0.00008
 533,0.00037277,0.00050950,-0.00032114,0.00037203,0.00110194,0.00079646
 ,-0.01564811,-0.00848350,-0.01126068,0.30594957,0.00382379,-0.09337261
 ,-0.08341959,0.00236975,-0.01580953,-0.00668062,-0.00011954,0.00067097
 ,0.00066213,-0.00078691,-0.01684411,-0.00652738,-0.00076528,0.02254522
 ,0.01043761,-0.00180991,0.10303031,0.08616200,-0.00271961,0.01816436,-
 0.02064314,-0.04443341,0.02492519,-0.03588673,-0.00865806,-0.00835200,
 0.01759250,0.00079762,0.00019752,0.00062009,-0.00428058,-0.00194206,-0
 .00286688,0.00074284,-0.00036900,0.00061178,0.05766890,-0.00151407,0.0
 0698996,-0.00789957,0.02812438,-0.17362673,0.14086794,0.00236866,0.002
 80287,-0.00532633,0.00041756,0.00018762,0.00045540,-0.00197856,0.00057
 770,-0.00146075,0.00064105,0.00067330,-0.00014508,-0.03219099,0.177396
 97,-0.00152253,0.00992178,-0.00962114,-0.04322279,0.14353736,-0.207894
 36,0.00492256,0.00403403,-0.00828017,-0.00018737,0.00002448,0.00059096
 ,-0.00322941,-0.00106261,-0.00027863,0.00078456,0.00005774,0.00016808,
 0.04127021,-0.14840293,0.21460128,0.00166953,-0.02658556,-0.01001906,-
 0.03843908,0.00644998,-0.00436815,-0.01037567,0.01297891,0.01146080,0.
 00086501,0.00027534,0.00065434,0.00072590,0.00062125,0.00035104,-0.004
 52099,-0.00074446,-0.00332369,0.00088229,0.00413198,0.00118477,0.04919
 302,0.00053034,-0.00238272,-0.00042143,0.00033818,-0.30630286,-0.09377
 796,-0.00194942,0.00346164,0.00267538,-0.00031437,0.00004113,-0.000041
 91,-0.00018231,0.00067927,-0.00000642,-0.00086196,0.00134177,-0.000075
 16,-0.00043301,-0.01500168,-0.00810986,0.00287255,0.31816346,0.0007335
 6,-0.01523861,-0.00463776,-0.00873101,-0.09762409,-0.08121346,0.007230
 04,-0.00838464,-0.00722137,-0.00002305,0.00023972,0.00067045,0.0010078
 1,-0.00012576,0.00017883,-0.00357947,-0.00053530,-0.00080224,-0.000697
 83,0.02191131,0.01071397,0.00405996,0.09975736,0.08231157\\-0.00016370
 ,-0.00002756,-0.00004375,0.00006857,-0.00003240,-0.00015842,-0.0000349
 0,0.00004919,0.00021105,0.00007930,-0.00000822,-0.00006624,0.00006023,
 -0.00002211,-0.00004945,0.00005741,0.00000755,-0.00005660,-0.00003418,
 0.00002427,0.00007987,-0.00003274,0.00000927,0.00008355\\\@


 ALL SCIENCE IS EITHER PHYSICS, OR STAMP COLLECTING.
   --ERNEST RUTHERFORD, 1871-1937.
 Job cpu time:       0 days  0 hours  0 minutes 37.4 seconds.
 File lengths (MBytes):  RWF=     87 Int=      0 D2E=      0 Chk=      2 Scr=      2
 Normal termination of Gaussian 09 at Wed Mar 19 11:44:14 2025.
