 Entering Gaussian System, Link 0=g09
 Initial command:
 /apps/z_install_tree/linux-rocky8-ivybridge/gcc-12.2.0/gaussian-09-D.01-wczn3gur5lpur3omlkzwa2l5ecyxp5ef/g09/l1.exe "/srv/scratch/z5358697/gauss/Gau-2317530.inp" -scrdir="/srv/scratch/z5358697/gauss/"
 Entering Link 1 = /apps/z_install_tree/linux-rocky8-ivybridge/gcc-12.2.0/gaussian-09-D.01-wczn3gur5lpur3omlkzwa2l5ecyxp5ef/g09/l1.exe PID=   2317532.
  
 Copyright (c) 1988,1990,1992,1993,1995,1998,2003,2009,2013,
            Gaussian, Inc.  All Rights Reserved.
  
 This is part of the Gaussian(R) 09 program.  It is based on
 the Gaussian(R) 03 system (copyright 2003, Gaussian, Inc.),
 the Gaussian(R) 98 system (copyright 1998, Gaussian, Inc.),
 the Gaussian(R) 94 system (copyright 1995, Gaussian, Inc.),
 the Gaussian 92(TM) system (copyright 1992, Gaussian, Inc.),
 the Gaussian 90(TM) system (copyright 1990, Gaussian, Inc.),
 the Gaussian 88(TM) system (copyright 1988, Gaussian, Inc.),
 the Gaussian 86(TM) system (copyright 1986, Carnegie Mellon
 University), and the Gaussian 82(TM) system (copyright 1983,
 Carnegie Mellon University). Gaussian is a federally registered
 trademark of Gaussian, Inc.
  
 This software contains proprietary and confidential information,
 including trade secrets, belonging to Gaussian, Inc.
  
 This software is provided under written license and may be
 used, copied, transmitted, or stored only in accord with that
 written license.
  
 The following legend is applicable only to US Government
 contracts under FAR:
  
                    RESTRICTED RIGHTS LEGEND
  
 Use, reproduction and disclosure by the US Government is
 subject to restrictions as set forth in subparagraphs (a)
 and (c) of the Commercial Computer Software - Restricted
 Rights clause in FAR 52.227-19.
  
 Gaussian, Inc.
 340 Quinnipiac St., Bldg. 40, Wallingford CT 06492
  
  
 ---------------------------------------------------------------
 Warning -- This program may not be used in any manner that
 competes with the business of Gaussian, Inc. or will provide
 assistance to any competitor of Gaussian, Inc.  The licensee
 of this program is prohibited from giving any competitor of
 Gaussian, Inc. access to this program.  By using this program,
 the user acknowledges that Gaussian, Inc. is engaged in the
 business of creating and licensing software in the field of
 computational chemistry and represents and warrants to the
 licensee that it is not a competitor of Gaussian, Inc. and that
 it will not use this program in any manner prohibited above.
 ---------------------------------------------------------------
  

 Cite this work as:
 Gaussian 09, Revision D.01,
 M. J. Frisch, G. W. Trucks, H. B. Schlegel, G. E. Scuseria, 
 M. A. Robb, J. R. Cheeseman, G. Scalmani, V. Barone, B. Mennucci, 
 G. A. Petersson, H. Nakatsuji, M. Caricato, X. Li, H. P. Hratchian, 
 A. F. Izmaylov, J. Bloino, G. Zheng, J. L. Sonnenberg, M. Hada, 
 M. Ehara, K. Toyota, R. Fukuda, J. Hasegawa, M. Ishida, T. Nakajima, 
 Y. Honda, O. Kitao, H. Nakai, T. Vreven, J. A. Montgomery, Jr., 
 J. E. Peralta, F. Ogliaro, M. Bearpark, J. J. Heyd, E. Brothers, 
 K. N. Kudin, V. N. Staroverov, T. Keith, R. Kobayashi, J. Normand, 
 K. Raghavachari, A. Rendell, J. C. Burant, S. S. Iyengar, J. Tomasi, 
 M. Cossi, N. Rega, J. M. Millam, M. Klene, J. E. Knox, J. B. Cross, 
 V. Bakken, C. Adamo, J. Jaramillo, R. Gomperts, R. E. Stratmann, 
 O. Yazyev, A. J. Austin, R. Cammi, C. Pomelli, J. W. Ochterski, 
 R. L. Martin, K. Morokuma, V. G. Zakrzewski, G. A. Voth, 
 P. Salvador, J. J. Dannenberg, S. Dapprich, A. D. Daniels, 
 O. Farkas, J. B. Foresman, J. V. Ortiz, J. Cioslowski, 
 and D. J. Fox, Gaussian, Inc., Wallingford CT, 2013.
 
 ******************************************
 Gaussian 09:  ES64L-G09RevD.01 24-Apr-2013
                18-Mar-2025 
 ******************************************
 ---------------------------------
 #m062X/6-31+G(d) OPT Freq=noraman
 ---------------------------------
 1/14=-1,18=20,19=15,26=3,38=1/1,3;
 2/9=110,12=2,17=6,18=5,40=1/2;
 3/5=1,6=6,7=11,11=2,16=1,25=1,30=1,71=1,74=-55/1,2,3;
 4//1;
 5/5=2,38=5/2;
 6/7=2,8=2,9=2,10=2,28=1/1;
 7//1,2,3,16;
 1/14=-1,18=20,19=15,26=3/3(2);
 2/9=110/2;
 99//99;
 2/9=110/2;
 3/5=1,6=6,7=11,11=2,16=1,25=1,30=1,71=1,74=-55/1,2,3;
 4/5=5,16=3,69=1/1;
 5/5=2,38=5/2;
 7//1,2,3,16;
 1/14=-1,18=20,19=15,26=3/3(-5);
 2/9=110/2;
 6/7=2,8=2,9=2,10=2,19=2,28=1/1;
 99/9=1/99;
 ----------
 neopentane
 ----------
 Symbolic Z-matrix:
 Charge =  0 Multiplicity = 1
 C                    -0.6138   -0.1246    0.899 
 C                     0.2605   -0.3499    2.1409 
 C                     1.1851    0.8592    2.3421 
 C                     1.1078   -1.6156    1.9474 
 C                    -0.6372   -0.5188    3.375 
 H                    -1.2862   -0.9729    0.7289 
 H                    -1.2316    0.7738    1.0075 
 H                     0.       -0.0004   -0.0001 
 H                     1.8231    0.7275    3.2232 
 H                     0.608     1.78      2.4832 
 H                     1.8396    1.0056    1.4756 
 H                     1.7442   -1.8033    2.8195 
 H                     0.4743   -2.4976    1.801 
 H                     1.7605   -1.525     1.0719 
 H                    -0.0405   -0.6817    4.2795 
 H                    -1.3101   -1.376     3.2607 
 H                    -1.2556    0.3709    3.5395 
 

 GradGradGradGradGradGradGradGradGradGradGradGradGradGradGradGradGradGrad
 Berny optimization.
 Initialization pass.
                           ----------------------------
                           !    Initial Parameters    !
                           ! (Angstroms and Degrees)  !
 --------------------------                            --------------------------
 ! Name  Definition              Value          Derivative Info.                !
 --------------------------------------------------------------------------------
 ! R1    R(1,2)                  1.5354         estimate D2E/DX2                !
 ! R2    R(1,6)                  1.0958         estimate D2E/DX2                !
 ! R3    R(1,7)                  1.0957         estimate D2E/DX2                !
 ! R4    R(1,8)                  1.0957         estimate D2E/DX2                !
 ! R5    R(2,3)                  1.5353         estimate D2E/DX2                !
 ! R6    R(2,4)                  1.5354         estimate D2E/DX2                !
 ! R7    R(2,5)                  1.5354         estimate D2E/DX2                !
 ! R8    R(3,9)                  1.0958         estimate D2E/DX2                !
 ! R9    R(3,10)                 1.0958         estimate D2E/DX2                !
 ! R10   R(3,11)                 1.0957         estimate D2E/DX2                !
 ! R11   R(4,12)                 1.0958         estimate D2E/DX2                !
 ! R12   R(4,13)                 1.0958         estimate D2E/DX2                !
 ! R13   R(4,14)                 1.0958         estimate D2E/DX2                !
 ! R14   R(5,15)                 1.0958         estimate D2E/DX2                !
 ! R15   R(5,16)                 1.0957         estimate D2E/DX2                !
 ! R16   R(5,17)                 1.0959         estimate D2E/DX2                !
 ! A1    A(2,1,6)              111.1854         estimate D2E/DX2                !
 ! A2    A(2,1,7)              111.179          estimate D2E/DX2                !
 ! A3    A(2,1,8)              111.1836         estimate D2E/DX2                !
 ! A4    A(6,1,7)              107.7066         estimate D2E/DX2                !
 ! A5    A(6,1,8)              107.7058         estimate D2E/DX2                !
 ! A6    A(7,1,8)              107.7083         estimate D2E/DX2                !
 ! A7    A(1,2,3)              109.4723         estimate D2E/DX2                !
 ! A8    A(1,2,4)              109.4672         estimate D2E/DX2                !
 ! A9    A(1,2,5)              109.4715         estimate D2E/DX2                !
 ! A10   A(3,2,4)              109.4739         estimate D2E/DX2                !
 ! A11   A(3,2,5)              109.4751         estimate D2E/DX2                !
 ! A12   A(4,2,5)              109.4674         estimate D2E/DX2                !
 ! A13   A(2,3,9)              111.1831         estimate D2E/DX2                !
 ! A14   A(2,3,10)             111.1898         estimate D2E/DX2                !
 ! A15   A(2,3,11)             111.18           estimate D2E/DX2                !
 ! A16   A(9,3,10)             107.703          estimate D2E/DX2                !
 ! A17   A(9,3,11)             107.7069         estimate D2E/DX2                !
 ! A18   A(10,3,11)            107.7055         estimate D2E/DX2                !
 ! A19   A(2,4,12)             111.1861         estimate D2E/DX2                !
 ! A20   A(2,4,13)             111.1824         estimate D2E/DX2                !
 ! A21   A(2,4,14)             111.1768         estimate D2E/DX2                !
 ! A22   A(12,4,13)            107.711          estimate D2E/DX2                !
 ! A23   A(12,4,14)            107.704          estimate D2E/DX2                !
 ! A24   A(13,4,14)            107.7084         estimate D2E/DX2                !
 ! A25   A(2,5,15)             111.1888         estimate D2E/DX2                !
 ! A26   A(2,5,16)             111.1779         estimate D2E/DX2                !
 ! A27   A(2,5,17)             111.1776         estimate D2E/DX2                !
 ! A28   A(15,5,16)            107.711          estimate D2E/DX2                !
 ! A29   A(15,5,17)            107.7018         estimate D2E/DX2                !
 ! A30   A(16,5,17)            107.7117         estimate D2E/DX2                !
 ! D1    D(6,1,2,3)           -179.9988         estimate D2E/DX2                !
 ! D2    D(6,1,2,4)             59.9998         estimate D2E/DX2                !
 ! D3    D(6,1,2,5)            -59.9932         estimate D2E/DX2                !
 ! D4    D(7,1,2,3)            -59.9998         estimate D2E/DX2                !
 ! D5    D(7,1,2,4)            179.9987         estimate D2E/DX2                !
 ! D6    D(7,1,2,5)             60.0058         estimate D2E/DX2                !
 ! D7    D(8,1,2,3)             60.0002         estimate D2E/DX2                !
 ! D8    D(8,1,2,4)            -60.0013         estimate D2E/DX2                !
 ! D9    D(8,1,2,5)           -179.9943         estimate D2E/DX2                !
 ! D10   D(1,2,3,9)           -179.9995         estimate D2E/DX2                !
 ! D11   D(1,2,3,10)            60.0003         estimate D2E/DX2                !
 ! D12   D(1,2,3,11)           -60.001          estimate D2E/DX2                !
 ! D13   D(4,2,3,9)            -60.0022         estimate D2E/DX2                !
 ! D14   D(4,2,3,10)           179.9976         estimate D2E/DX2                !
 ! D15   D(4,2,3,11)            59.9964         estimate D2E/DX2                !
 ! D16   D(5,2,3,9)             59.9971         estimate D2E/DX2                !
 ! D17   D(5,2,3,10)           -60.0031         estimate D2E/DX2                !
 ! D18   D(5,2,3,11)           179.9957         estimate D2E/DX2                !
 ! D19   D(1,2,4,12)           179.9941         estimate D2E/DX2                !
 ! D20   D(1,2,4,13)           -59.9985         estimate D2E/DX2                !
 ! D21   D(1,2,4,14)            59.9993         estimate D2E/DX2                !
 ! D22   D(3,2,4,12)            59.9936         estimate D2E/DX2                !
 ! D23   D(3,2,4,13)          -179.999          estimate D2E/DX2                !
 ! D24   D(3,2,4,14)           -60.0012         estimate D2E/DX2                !
 ! D25   D(5,2,4,12)           -60.0104         estimate D2E/DX2                !
 ! D26   D(5,2,4,13)            59.997          estimate D2E/DX2                !
 ! D27   D(5,2,4,14)           179.9949         estimate D2E/DX2                !
 ! D28   D(1,2,5,15)           179.9969         estimate D2E/DX2                !
 ! D29   D(1,2,5,16)            59.9907         estimate D2E/DX2                !
 ! D30   D(1,2,5,17)           -60.0089         estimate D2E/DX2                !
 ! D31   D(3,2,5,15)           -59.9993         estimate D2E/DX2                !
 ! D32   D(3,2,5,16)           179.9946         estimate D2E/DX2                !
 ! D33   D(3,2,5,17)            59.995          estimate D2E/DX2                !
 ! D34   D(4,2,5,15)            60.004          estimate D2E/DX2                !
 ! D35   D(4,2,5,16)           -60.0022         estimate D2E/DX2                !
 ! D36   D(4,2,5,17)           179.9982         estimate D2E/DX2                !
 --------------------------------------------------------------------------------
 Trust Radius=3.00D-01 FncErr=1.00D-07 GrdErr=1.00D-06
 Number of steps in this run=     92 maximum allowed number of steps=    102.
 GradGradGradGradGradGradGradGradGradGradGradGradGradGradGradGradGradGrad

                          Input orientation:                          
 ---------------------------------------------------------------------
 Center     Atomic      Atomic             Coordinates (Angstroms)
 Number     Number       Type             X           Y           Z
 ---------------------------------------------------------------------
      1          6           0       -0.613800   -0.124600    0.899000
      2          6           0        0.260500   -0.349900    2.140900
      3          6           0        1.185100    0.859200    2.342100
      4          6           0        1.107800   -1.615600    1.947400
      5          6           0       -0.637200   -0.518800    3.375000
      6          1           0       -1.286200   -0.972900    0.728900
      7          1           0       -1.231600    0.773800    1.007500
      8          1           0        0.000000   -0.000400   -0.000100
      9          1           0        1.823100    0.727500    3.223200
     10          1           0        0.608000    1.780000    2.483200
     11          1           0        1.839600    1.005600    1.475600
     12          1           0        1.744200   -1.803300    2.819500
     13          1           0        0.474300   -2.497600    1.801000
     14          1           0        1.760500   -1.525000    1.071900
     15          1           0       -0.040500   -0.681700    4.279500
     16          1           0       -1.310100   -1.376000    3.260700
     17          1           0       -1.255600    0.370900    3.539500
 ---------------------------------------------------------------------
                    Distance matrix (angstroms):
                    1          2          3          4          5
     1  C    0.000000
     2  C    1.535407   0.000000
     3  C    2.507278   1.535347   0.000000
     4  C    2.507216   1.535368   2.507269   0.000000
     5  C    2.507293   1.535381   2.507298   2.507197   0.000000
     6  H    1.095750   2.184984   3.473662   2.762072   2.762110
     7  H    1.095706   2.184871   2.762044   3.473534   2.762097
     8  H    1.095699   2.184924   2.762114   2.762037   3.473624
     9  H    3.473681   2.184922   1.095776   2.762144   2.762134
    10  H    2.762243   2.185040   1.095822   3.473756   2.762302
    11  H    2.762063   2.184848   1.095731   2.762031   3.473623
    12  H    3.473689   2.185002   2.762139   1.095808   2.762171
    13  H    2.762009   2.184916   3.473634   1.095755   2.761984
    14  H    2.761940   2.184862   2.762047   1.095776   3.473568
    15  H    3.473732   2.185018   2.762243   2.762146   1.095768
    16  H    2.761967   2.184861   3.473610   2.761957   1.095742
    17  H    2.762185   2.184993   2.762104   3.473705   1.095922
                    6          7          8          9         10
     6  H    0.000000
     7  H    1.769621   0.000000
     8  H    1.769607   1.769599   0.000000
     9  H    4.333663   3.773945   3.774016   0.000000
    10  H    3.774125   2.564031   3.115488   1.769696   0.000000
    11  H    3.773943   3.115304   2.563953   1.769666   1.769687
    12  H    3.774056   4.333610   3.773967   2.564010   3.774134
    13  H    2.563878   3.773830   3.115274   3.774014   4.333721
    14  H    3.115260   3.773764   2.563776   3.115408   3.773996
    15  H    3.774033   3.774014   4.333680   2.564102   3.115640
    16  H    2.563800   3.115239   3.773785   3.773998   3.774116
    17  H    3.115479   2.563967   3.774012   3.115382   2.564047
                   11         12         13         14         15
    11  H    0.000000
    12  H    3.115299   0.000000
    13  H    3.773902   1.769757   0.000000
    14  H    2.563819   1.769696   1.769703   0.000000
    15  H    3.774071   2.564126   3.115361   3.774050   0.000000
    16  H    4.333499   3.115444   2.563746   3.773809   1.769715
    17  H    3.773962   3.774168   3.774020   4.333630   1.769756
                   16         17
    16  H    0.000000
    17  H    1.769847   0.000000
 Stoichiometry    C5H12
 Framework group  C1[X(C5H12)]
 Deg. of freedom    45
 Full point group                 C1      NOp   1
 Largest Abelian subgroup         C1      NOp   1
 Largest concise Abelian subgroup C1      NOp   1
                         Standard orientation:                         
 ---------------------------------------------------------------------
 Center     Atomic      Atomic             Coordinates (Angstroms)
 Number     Number       Type             X           Y           Z
 ---------------------------------------------------------------------
      1          6           0       -0.671062   -1.139351   -0.780353
      2          6           0        0.000047    0.000009   -0.000002
      3          6           0        1.502813   -0.285685    0.131768
      4          6           0       -0.626322    0.100908    1.398153
      5          6           0       -0.205483    1.324143   -0.749550
      6          1           0       -1.746927   -0.963472   -0.891035
      7          1           0       -0.244167   -1.236311   -1.784808
      8          1           0       -0.541268   -2.099644   -0.268936
      9          1           0        2.010455    0.512037    0.685540
     10          1           0        1.978988   -0.363421   -0.852122
     11          1           0        1.681729   -1.226694    0.663855
     12          1           0       -0.166802    0.907295    1.980712
     13          1           0       -1.701180    0.304824    1.336699
     14          1           0       -0.495474   -0.831473    1.958752
     15          1           0        0.263465    2.158332   -0.215767
     16          1           0       -1.270854    1.555542   -0.859506
     17          1           0        0.232077    1.282844   -1.753482
 ---------------------------------------------------------------------
 Rotational constants (GHZ):      4.4360860      4.4360417      4.4358918
 Standard basis: 6-31+G(d) (6D, 7F)
 There are   119 symmetry adapted cartesian basis functions of A   symmetry.
 There are   119 symmetry adapted basis functions of A   symmetry.
   119 basis functions,   208 primitive gaussians,   119 cartesian basis functions
    21 alpha electrons       21 beta electrons
       nuclear repulsion energy       198.1856748946 Hartrees.
 NAtoms=   17 NActive=   17 NUniq=   17 SFac= 1.00D+00 NAtFMM=   60 NAOKFM=F Big=F
 Integral buffers will be    131072 words long.
 Raffenetti 2 integral format.
 Two-electron integral symmetry is turned on.
 One-electron integrals computed using PRISM.
 NBasis=   119 RedAO= T EigKep=  6.03D-05  NBF=   119
 NBsUse=   119 1.00D-06 EigRej= -1.00D+00 NBFU=   119
 ExpMin= 4.38D-02 ExpMax= 3.05D+03 ExpMxC= 4.57D+02 IAcc=2 IRadAn=         4 AccDes= 0.00D+00
 Harris functional with IExCor= 1009 and IRadAn=       4 diagonalized for initial guess.
 HarFok:  IExCor= 1009 AccDes= 0.00D+00 IRadAn=         4 IDoV= 1 UseB2=F ITyADJ=14
 ICtDFT=  3500011 ScaDFX=  1.000000  1.000000  1.000000  1.000000
 FoFCou: FMM=F IPFlag=           0 FMFlag=      100000 FMFlg1=           0
         NFxFlg=           0 DoJE=T BraDBF=F KetDBF=T FulRan=T
         wScrn=  0.000000 ICntrl=     500 IOpCl=  0 I1Cent=   200000004 NGrid=           0
         NMat0=    1 NMatS0=      1 NMatT0=    0 NMatD0=    1 NMtDS0=    0 NMtDT0=    0
 Petite list used in FoFCou.
 Keep R1 ints in memory in canonical form, NReq=26497163.
 Requested convergence on RMS density matrix=1.00D-08 within 128 cycles.
 Requested convergence on MAX density matrix=1.00D-06.
 Requested convergence on             energy=1.00D-06.
 No special actions if energy rises.
 SCF Done:  E(RM062X) =  -197.660572790     A.U. after    9 cycles
            NFock=  9  Conv=0.90D-08     -V/T= 2.0095

 **********************************************************************

            Population analysis using the SCF density.

 **********************************************************************

 Orbital symmetries:
       Occupied  (A) (A) (A) (A) (A) (A) (A) (A) (A) (A) (A) (A)
                 (A) (A) (A) (A) (A) (A) (A) (A) (A)
       Virtual   (A) (A) (A) (A) (A) (A) (A) (A) (A) (A) (A) (A)
                 (A) (A) (A) (A) (A) (A) (A) (A) (A) (A) (A) (A)
                 (A) (A) (A) (A) (A) (A) (A) (A) (A) (A) (A) (A)
                 (A) (A) (A) (A) (A) (A) (A) (A) (A) (A) (A) (A)
                 (A) (A) (A) (A) (A) (A) (A) (A) (A) (A) (A) (A)
                 (A) (A) (A) (A) (A) (A) (A) (A) (A) (A) (A) (A)
                 (A) (A) (A) (A) (A) (A) (A) (A) (A) (A) (A) (A)
                 (A) (A) (A) (A) (A) (A) (A) (A) (A) (A) (A) (A)
                 (A) (A)
 The electronic state is 1-A.
 Alpha  occ. eigenvalues --  -10.55641 -10.53195 -10.53194 -10.53193 -10.53191
 Alpha  occ. eigenvalues --   -0.92165  -0.77433  -0.77432  -0.77431  -0.61053
 Alpha  occ. eigenvalues --   -0.51654  -0.51653  -0.51651  -0.46514  -0.46512
 Alpha  occ. eigenvalues --   -0.42487  -0.42486  -0.42484  -0.37736  -0.37733
 Alpha  occ. eigenvalues --   -0.37732
 Alpha virt. eigenvalues --    0.02553   0.04075   0.04075   0.04076   0.07092
 Alpha virt. eigenvalues --    0.07094   0.07094   0.07871   0.08627   0.08627
 Alpha virt. eigenvalues --    0.12169   0.12169   0.12169   0.12316   0.12317
 Alpha virt. eigenvalues --    0.12317   0.18642   0.18642   0.18643   0.21019
 Alpha virt. eigenvalues --    0.22796   0.22798   0.28959   0.28962   0.28964
 Alpha virt. eigenvalues --    0.31998   0.31998   0.32001   0.32351   0.32354
 Alpha virt. eigenvalues --    0.32355   0.33640   0.39505   0.39506   0.39508
 Alpha virt. eigenvalues --    0.55622   0.67075   0.67077   0.68436   0.68436
 Alpha virt. eigenvalues --    0.68439   0.76650   0.80014   0.80016   0.80019
 Alpha virt. eigenvalues --    0.83590   0.83591   0.83592   0.92922   0.92927
 Alpha virt. eigenvalues --    0.92928   1.04723   1.04727   1.04937   1.04941
 Alpha virt. eigenvalues --    1.04941   1.10632   1.10635   1.10636   1.11472
 Alpha virt. eigenvalues --    1.22305   1.22313   1.22321   1.24421   1.47250
 Alpha virt. eigenvalues --    1.47254   1.53072   1.53077   1.53078   1.78463
 Alpha virt. eigenvalues --    1.78463   1.78466   1.82192   1.94389   1.94395
 Alpha virt. eigenvalues --    1.94399   2.15824   2.15828   2.17895   2.17900
 Alpha virt. eigenvalues --    2.17902   2.31548   2.31554   2.31559   2.32953
 Alpha virt. eigenvalues --    2.34433   2.34446   2.34450   2.64442   2.64453
 Alpha virt. eigenvalues --    2.76108   2.76111   2.76119   4.25672   4.39549
 Alpha virt. eigenvalues --    4.39553   4.39556   4.69197
          Condensed to atoms (all electrons):
               1          2          3          4          5          6
     1  C    5.632002   0.350564  -0.211475  -0.211585  -0.211463   0.386596
     2  C    0.350564   5.710621   0.350126   0.350346   0.350434  -0.014820
     3  C   -0.211475   0.350126   5.632243  -0.211437  -0.211315   0.021800
     4  C   -0.211585   0.350346  -0.211437   5.632273  -0.211590  -0.026227
     5  C   -0.211463   0.350434  -0.211315  -0.211590   5.632077  -0.026223
     6  H    0.386596  -0.014820   0.021800  -0.026227  -0.026223   0.494209
     7  H    0.386491  -0.014573  -0.026280   0.021778  -0.026282  -0.027544
     8  H    0.386576  -0.014708  -0.026257  -0.026259   0.021776  -0.027557
     9  H    0.021773  -0.014644   0.386489  -0.026265  -0.026245  -0.000130
    10  H   -0.026251  -0.014689   0.386555   0.021775  -0.026273  -0.000004
    11  H   -0.026245  -0.014695   0.386572  -0.026278   0.021769  -0.000004
    12  H    0.021790  -0.014700  -0.026257   0.386553  -0.026268  -0.000004
    13  H   -0.026245  -0.014760   0.021797   0.386566  -0.026222   0.001840
    14  H   -0.026285  -0.014598  -0.026266   0.386477   0.021791  -0.000126
    15  H    0.021783  -0.014647  -0.026256  -0.026273   0.386505  -0.000004
    16  H   -0.026245  -0.014795   0.021793  -0.026230   0.386575   0.001841
    17  H   -0.026276  -0.014701  -0.026266   0.021814   0.386544  -0.000125
               7          8          9         10         11         12
     1  C    0.386491   0.386576   0.021773  -0.026251  -0.026245   0.021790
     2  C   -0.014573  -0.014708  -0.014644  -0.014689  -0.014695  -0.014700
     3  C   -0.026280  -0.026257   0.386489   0.386555   0.386572  -0.026257
     4  C    0.021778  -0.026259  -0.026265   0.021775  -0.026278   0.386553
     5  C   -0.026282   0.021776  -0.026245  -0.026273   0.021769  -0.026268
     6  H   -0.027544  -0.027557  -0.000130  -0.000004  -0.000004  -0.000004
     7  H    0.494205  -0.027553  -0.000004   0.001839  -0.000126  -0.000130
     8  H   -0.027553   0.494187  -0.000004  -0.000126   0.001840  -0.000004
     9  H   -0.000004  -0.000004   0.494219  -0.027551  -0.027550   0.001841
    10  H    0.001839  -0.000126  -0.027551   0.494228  -0.027554  -0.000004
    11  H   -0.000126   0.001840  -0.027550  -0.027554   0.494223  -0.000125
    12  H   -0.000130  -0.000004   0.001841  -0.000004  -0.000125   0.494183
    13  H   -0.000004  -0.000125  -0.000004  -0.000130  -0.000004  -0.027540
    14  H   -0.000004   0.001840  -0.000126  -0.000004   0.001840  -0.027551
    15  H   -0.000004  -0.000130   0.001839  -0.000125  -0.000004   0.001839
    16  H   -0.000126  -0.000004  -0.000004  -0.000004  -0.000131  -0.000125
    17  H    0.001838  -0.000004  -0.000125   0.001840  -0.000004  -0.000004
              13         14         15         16         17
     1  C   -0.026245  -0.026285   0.021783  -0.026245  -0.026276
     2  C   -0.014760  -0.014598  -0.014647  -0.014795  -0.014701
     3  C    0.021797  -0.026266  -0.026256   0.021793  -0.026266
     4  C    0.386566   0.386477  -0.026273  -0.026230   0.021814
     5  C   -0.026222   0.021791   0.386505   0.386575   0.386544
     6  H    0.001840  -0.000126  -0.000004   0.001841  -0.000125
     7  H   -0.000004  -0.000004  -0.000004  -0.000126   0.001838
     8  H   -0.000125   0.001840  -0.000130  -0.000004  -0.000004
     9  H   -0.000004  -0.000126   0.001839  -0.000004  -0.000125
    10  H   -0.000130  -0.000004  -0.000125  -0.000004   0.001840
    11  H   -0.000004   0.001840  -0.000004  -0.000131  -0.000004
    12  H   -0.027540  -0.027551   0.001839  -0.000125  -0.000004
    13  H    0.494194  -0.027558  -0.000126   0.001841  -0.000004
    14  H   -0.027558   0.494220  -0.000004  -0.000004  -0.000130
    15  H   -0.000126  -0.000004   0.494171  -0.027545  -0.027548
    16  H    0.001841  -0.000004  -0.027545   0.494215  -0.027539
    17  H   -0.000004  -0.000130  -0.027548  -0.027539   0.494253
 Mulliken charges:
               1
     1  C   -0.415504
     2  C   -0.935761
     3  C   -0.415564
     4  C   -0.415436
     5  C   -0.415589
     6  H    0.216481
     7  H    0.216479
     8  H    0.216513
     9  H    0.216492
    10  H    0.216478
    11  H    0.216477
    12  H    0.216509
    13  H    0.216485
    14  H    0.216487
    15  H    0.216528
    16  H    0.216486
    17  H    0.216438
 Sum of Mulliken charges =   0.00000
 Mulliken charges with hydrogens summed into heavy atoms:
               1
     1  C    0.233970
     2  C   -0.935761
     3  C    0.233883
     4  C    0.234045
     5  C    0.233863
 Electronic spatial extent (au):  <R**2>=            486.8194
 Charge=              0.0000 electrons
 Dipole moment (field-independent basis, Debye):
    X=              0.0001    Y=              0.0001    Z=             -0.0001  Tot=              0.0002
 Quadrupole moment (field-independent basis, Debye-Ang):
   XX=            -35.9574   YY=            -35.9578   ZZ=            -35.9591
   XY=              0.0004   XZ=              0.0001   YZ=              0.0006
 Traceless Quadrupole moment (field-independent basis, Debye-Ang):
   XX=              0.0007   YY=              0.0003   ZZ=             -0.0010
   XY=              0.0004   XZ=              0.0001   YZ=              0.0006
 Octapole moment (field-independent basis, Debye-Ang**2):
  XXX=             -2.7206  YYY=             -0.7870  ZZZ=             -1.7642  XYY=              1.0693
  XXY=              1.0190  XXZ=             -0.4451  XZZ=              1.6524  YZZ=             -0.2334
  YYZ=              2.2078  XYZ=              0.5153
 Hexadecapole moment (field-independent basis, Debye-Ang**3):
 XXXX=           -233.9913 YYYY=           -234.7579 ZZZZ=           -235.0469 XXXY=             -0.7349
 XXXZ=              0.3846 YYYX=              0.5374 YYYZ=             -0.6505 ZZZX=             -1.4468
 ZZZY=              0.2926 XXYY=            -79.0799 XXZZ=            -78.7930 YYZZ=            -78.0224
 XXYZ=              0.3669 YYXZ=              1.0642 ZZXY=              0.2031
 N-N= 1.981856748946D+02 E-N=-8.521661018337D+02  KE= 1.958040445074D+02
 Calling FoFJK, ICntrl=      2127 FMM=F ISym2X=0 I1Cent= 0 IOpClX= 0 NMat=1 NMatS=1 NMatT=0.
 ***** Axes restored to original set *****
 -------------------------------------------------------------------
 Center     Atomic                   Forces (Hartrees/Bohr)
 Number     Number              X              Y              Z
 -------------------------------------------------------------------
      1        6           0.000643930   -0.000197413    0.000948030
      2        6           0.000046117   -0.000049688    0.000042884
      3        6          -0.000581809   -0.000895375   -0.000088431
      4        6          -0.000583224    0.000836869    0.000152091
      5        6           0.000628977    0.000178172   -0.000822209
      6        1          -0.000149364   -0.000777186    0.000395768
      7        1          -0.000088250    0.000621700    0.000617653
      8        1           0.000841364    0.000058570   -0.000185710
      9        1           0.000021715   -0.000607899    0.000586390
     10        1          -0.000889767    0.000146330   -0.000005330
     11        1           0.000075473   -0.000371497   -0.000767623
     12        1           0.000119374    0.000429810    0.000755919
     13        1          -0.000854480   -0.000124664   -0.000028439
     14        1           0.000110111    0.000674126   -0.000608059
     15        1           0.000848112   -0.000006194    0.000147836
     16        1          -0.000143936   -0.000610574   -0.000664347
     17        1          -0.000044342    0.000694913   -0.000476422
 -------------------------------------------------------------------
 Cartesian Forces:  Max     0.000948030 RMS     0.000521676

 GradGradGradGradGradGradGradGradGradGradGradGradGradGradGradGradGradGrad
 Berny optimization.
 FormGI is forming the generalized inverse of G from B-inverse, IUseBI=4.
 Internal  Forces:  Max     0.002240701 RMS     0.000641974
 Search for a local minimum.
 Step number   1 out of a maximum of   92
 All quantities printed in internal units (Hartrees-Bohrs-Radians)
 Mixed Optimization -- En-DIIS/RFO-DIIS
 Second derivative matrix not updated -- first step.
 ITU=  0
     Eigenvalues ---    0.00298   0.00298   0.00298   0.00298   0.04789
     Eigenvalues ---    0.04789   0.04790   0.05444   0.05444   0.05444
     Eigenvalues ---    0.05444   0.05444   0.05444   0.05445   0.05445
     Eigenvalues ---    0.14413   0.14414   0.16000   0.16000   0.16000
     Eigenvalues ---    0.16000   0.16000   0.16000   0.16000   0.16000
     Eigenvalues ---    0.16000   0.16000   0.16000   0.16000   0.28930
     Eigenvalues ---    0.28932   0.28933   0.28935   0.34137   0.34148
     Eigenvalues ---    0.34150   0.34154   0.34154   0.34154   0.34156
     Eigenvalues ---    0.34156   0.34157   0.34159   0.34161   0.34162
 RFO step:  Lambda=-1.42978059D-04 EMin= 2.97574097D-03
 Linear search not attempted -- first point.
 Iteration  1 RMS(Cart)=  0.00629210 RMS(Int)=  0.00001099
 Iteration  2 RMS(Cart)=  0.00001189 RMS(Int)=  0.00000401
 Iteration  3 RMS(Cart)=  0.00000000 RMS(Int)=  0.00000401
 Variable       Old X    -DE/DX   Delta X   Delta X   Delta X     New X
                                 (Linear)    (Quad)   (Total)
    R1        2.90150  -0.00219   0.00000  -0.00757  -0.00757   2.89393
    R2        2.07067   0.00063   0.00000   0.00184   0.00184   2.07251
    R3        2.07058   0.00062   0.00000   0.00183   0.00183   2.07241
    R4        2.07057   0.00063   0.00000   0.00184   0.00184   2.07241
    R5        2.90138  -0.00222   0.00000  -0.00769  -0.00769   2.89370
    R6        2.90143  -0.00220   0.00000  -0.00759  -0.00759   2.89383
    R7        2.90145  -0.00224   0.00000  -0.00774  -0.00774   2.89371
    R8        2.07072   0.00056   0.00000   0.00164   0.00164   2.07235
    R9        2.07080   0.00058   0.00000   0.00171   0.00171   2.07251
   R10        2.07063   0.00061   0.00000   0.00178   0.00178   2.07241
   R11        2.07078   0.00059   0.00000   0.00174   0.00174   2.07251
   R12        2.07068   0.00061   0.00000   0.00177   0.00177   2.07245
   R13        2.07072   0.00060   0.00000   0.00176   0.00176   2.07248
   R14        2.07070   0.00059   0.00000   0.00172   0.00172   2.07242
   R15        2.07065   0.00063   0.00000   0.00184   0.00184   2.07249
   R16        2.07099   0.00052   0.00000   0.00153   0.00153   2.07252
    A1        1.94055  -0.00060   0.00000  -0.00359  -0.00360   1.93695
    A2        1.94044  -0.00063   0.00000  -0.00408  -0.00409   1.93635
    A3        1.94052  -0.00055   0.00000  -0.00347  -0.00347   1.93705
    A4        1.87983   0.00065   0.00000   0.00409   0.00408   1.88392
    A5        1.87982   0.00063   0.00000   0.00419   0.00419   1.88401
    A6        1.87986   0.00061   0.00000   0.00354   0.00353   1.88340
    A7        1.91065  -0.00001   0.00000  -0.00038  -0.00038   1.91027
    A8        1.91056   0.00001   0.00000   0.00023   0.00023   1.91079
    A9        1.91064  -0.00002   0.00000  -0.00042  -0.00042   1.91022
   A10        1.91068   0.00002   0.00000   0.00041   0.00041   1.91109
   A11        1.91070  -0.00002   0.00000  -0.00033  -0.00033   1.91037
   A12        1.91057   0.00003   0.00000   0.00049   0.00049   1.91106
   A13        1.94051  -0.00060   0.00000  -0.00366  -0.00366   1.93685
   A14        1.94063  -0.00069   0.00000  -0.00451  -0.00452   1.93611
   A15        1.94046  -0.00057   0.00000  -0.00351  -0.00352   1.93694
   A16        1.87977   0.00067   0.00000   0.00405   0.00404   1.88381
   A17        1.87984   0.00067   0.00000   0.00453   0.00452   1.88436
   A18        1.87982   0.00065   0.00000   0.00382   0.00381   1.88362
   A19        1.94056  -0.00061   0.00000  -0.00377  -0.00378   1.93678
   A20        1.94050  -0.00060   0.00000  -0.00377  -0.00378   1.93672
   A21        1.94040  -0.00068   0.00000  -0.00432  -0.00433   1.93607
   A22        1.87991   0.00066   0.00000   0.00420   0.00419   1.88410
   A23        1.87979   0.00069   0.00000   0.00427   0.00426   1.88405
   A24        1.87987   0.00067   0.00000   0.00412   0.00412   1.88398
   A25        1.94061  -0.00060   0.00000  -0.00362  -0.00362   1.93699
   A26        1.94042  -0.00063   0.00000  -0.00387  -0.00388   1.93654
   A27        1.94042  -0.00068   0.00000  -0.00439  -0.00440   1.93602
   A28        1.87991   0.00068   0.00000   0.00453   0.00452   1.88443
   A29        1.87975   0.00067   0.00000   0.00408   0.00407   1.88382
   A30        1.87992   0.00067   0.00000   0.00400   0.00399   1.88391
    D1       -3.14157   0.00003   0.00000  -0.00113  -0.00113   3.14048
    D2        1.04719   0.00001   0.00000  -0.00154  -0.00154   1.04566
    D3       -1.04708  -0.00002   0.00000  -0.00203  -0.00203  -1.04911
    D4       -1.04719   0.00003   0.00000  -0.00111  -0.00111  -1.04830
    D5        3.14157   0.00001   0.00000  -0.00151  -0.00151   3.14006
    D6        1.04730  -0.00002   0.00000  -0.00200  -0.00201   1.04529
    D7        1.04720   0.00000   0.00000  -0.00169  -0.00169   1.04551
    D8       -1.04722  -0.00002   0.00000  -0.00210  -0.00210  -1.04932
    D9       -3.14149  -0.00005   0.00000  -0.00259  -0.00259   3.13911
   D10       -3.14158  -0.00005   0.00000  -0.00246  -0.00246   3.13914
   D11        1.04720  -0.00003   0.00000  -0.00211  -0.00211   1.04510
   D12       -1.04721   0.00000   0.00000  -0.00155  -0.00155  -1.04876
   D13       -1.04724  -0.00004   0.00000  -0.00217  -0.00217  -1.04940
   D14        3.14155  -0.00002   0.00000  -0.00181  -0.00181   3.13974
   D15        1.04713   0.00001   0.00000  -0.00125  -0.00126   1.04588
   D16        1.04715   0.00000   0.00000  -0.00152  -0.00152   1.04563
   D17       -1.04725   0.00002   0.00000  -0.00116  -0.00116  -1.04841
   D18        3.14152   0.00005   0.00000  -0.00060  -0.00060   3.14091
   D19        3.14149  -0.00001   0.00000  -0.00172  -0.00172   3.13977
   D20       -1.04717   0.00000   0.00000  -0.00147  -0.00147  -1.04864
   D21        1.04719  -0.00001   0.00000  -0.00168  -0.00168   1.04550
   D22        1.04709  -0.00001   0.00000  -0.00164  -0.00164   1.04545
   D23       -3.14158   0.00000   0.00000  -0.00139  -0.00139   3.14022
   D24       -1.04722  -0.00001   0.00000  -0.00161  -0.00161  -1.04882
   D25       -1.04738  -0.00001   0.00000  -0.00178  -0.00178  -1.04916
   D26        1.04715   0.00000   0.00000  -0.00154  -0.00154   1.04561
   D27        3.14150  -0.00001   0.00000  -0.00175  -0.00175   3.13975
   D28        3.14154   0.00005   0.00000   0.00429   0.00429  -3.13736
   D29        1.04703   0.00001   0.00000   0.00359   0.00359   1.05062
   D30       -1.04735   0.00003   0.00000   0.00407   0.00407  -1.04328
   D31       -1.04718   0.00000   0.00000   0.00336   0.00336  -1.04382
   D32        3.14150  -0.00003   0.00000   0.00266   0.00266  -3.13903
   D33        1.04711  -0.00001   0.00000   0.00315   0.00315   1.05026
   D34        1.04727   0.00003   0.00000   0.00396   0.00396   1.05123
   D35       -1.04724  -0.00001   0.00000   0.00326   0.00326  -1.04398
   D36        3.14156   0.00002   0.00000   0.00374   0.00374  -3.13788
         Item               Value     Threshold  Converged?
 Maximum Force            0.002241     0.000450     NO 
 RMS     Force            0.000642     0.000300     NO 
 Maximum Displacement     0.017751     0.001800     NO 
 RMS     Displacement     0.006301     0.001200     NO 
 Predicted change in Energy=-7.154891D-05
 GradGradGradGradGradGradGradGradGradGradGradGradGradGradGradGradGradGrad

                          Input orientation:                          
 ---------------------------------------------------------------------
 Center     Atomic      Atomic             Coordinates (Angstroms)
 Number     Number       Type             X           Y           Z
 ---------------------------------------------------------------------
      1          6           0       -0.611335   -0.124769    0.902651
      2          6           0        0.260876   -0.350408    2.141010
      3          6           0        1.182981    0.855497    2.341840
      4          6           0        1.105486   -1.613046    1.947586
      5          6           0       -0.634708   -0.518211    3.371703
      6          1           0       -1.282185   -0.975939    0.734484
      7          1           0       -1.228613    0.774510    1.016477
      8          1           0        0.006069    0.001336    0.005100
      9          1           0        1.818352    0.720928    3.225479
     10          1           0        0.601181    1.774701    2.481039
     11          1           0        1.837219    0.998425    1.473372
     12          1           0        1.742204   -1.797005    2.821405
     13          1           0        0.467726   -2.493396    1.802732
     14          1           0        1.755719   -1.518693    1.069482
     15          1           0       -0.034296   -0.677347    4.275518
     16          1           0       -1.304795   -1.378506    3.254816
     17          1           0       -1.253780    0.373123    3.530106
 ---------------------------------------------------------------------
                    Distance matrix (angstroms):
                    1          2          3          4          5
     1  C    0.000000
     2  C    1.531404   0.000000
     3  C    2.500351   1.531280   0.000000
     4  C    2.500866   1.531350   2.501028   0.000000
     5  C    2.500312   1.531285   2.500337   2.501009   0.000000
     6  H    1.096727   2.179597   3.466236   2.752907   2.753846
     7  H    1.096672   2.179126   2.752986   3.466324   2.751534
     8  H    1.096672   2.179625   2.752284   2.754669   3.466200
     9  H    3.466138   2.179350   1.096642   2.754745   2.752155
    10  H    2.751271   2.178880   1.096725   3.466371   2.752845
    11  H    2.753672   2.179438   1.096674   2.753197   3.466161
    12  H    3.466574   2.179430   2.752903   1.096728   2.754606
    13  H    2.754072   2.179362   3.466599   1.096694   2.752887
    14  H    2.752054   2.178903   2.753852   1.096710   3.466313
    15  H    3.466200   2.179481   2.751451   2.755704   1.096677
    16  H    2.754164   2.179191   3.466024   2.751966   1.096716
    17  H    2.750301   2.178823   2.753628   3.466320   1.096731
                    6          7          8          9         10
     6  H    0.000000
     7  H    1.773826   0.000000
     8  H    1.773884   1.773449   0.000000
     9  H    4.324089   3.763849   3.764708   0.000000
    10  H    3.763448   2.548229   3.103104   1.773735   0.000000
    11  H    3.764937   3.107767   2.550122   1.774047   1.773637
    12  H    3.765146   4.323911   3.765604   2.551286   3.764953
    13  H    2.550690   3.764966   3.109389   3.765671   4.323722
    14  H    3.104137   3.764017   2.550426   3.109365   3.764558
    15  H    3.766339   3.762396   4.324201   2.547560   3.104276
    16  H    2.552381   3.106677   3.766031   3.763314   3.764863
    17  H    3.104236   2.545599   3.761797   3.106729   2.550656
                   11         12         13         14         15
    11  H    0.000000
    12  H    3.104940   0.000000
    13  H    3.765210   1.773965   0.000000
    14  H    2.550618   1.773943   1.773873   0.000000
    15  H    3.763350   2.554219   3.108816   3.767052   0.000000
    16  H    4.323841   3.105993   2.548208   3.763255   1.774154
    17  H    3.765029   3.766648   3.763554   4.323277   1.773772
                   16         17
    16  H    0.000000
    17  H    1.773863   0.000000
 Stoichiometry    C5H12
 Framework group  C1[X(C5H12)]
 Deg. of freedom    45
 Full point group                 C1      NOp   1
 Largest Abelian subgroup         C1      NOp   1
 Largest concise Abelian subgroup C1      NOp   1
                         Standard orientation:                         
 ---------------------------------------------------------------------
 Center     Atomic      Atomic             Coordinates (Angstroms)
 Number     Number       Type             X           Y           Z
 ---------------------------------------------------------------------
      1          6           0        0.352105   -1.432842    0.409041
      2          6           0       -0.000398    0.000193   -0.000045
      3          6           0        0.633506    0.983161    0.988265
      4          6           0       -1.521742    0.174657    0.010324
      5          6           0        0.535941    0.275105   -1.407737
      6          1           0       -0.091261   -2.159055   -0.282949
      7          1           0        1.438187   -1.584884    0.408119
      8          1           0       -0.018858   -1.656158    1.416615
      9          1           0        0.398398    2.019305    0.716693
     10          1           0        1.724981    0.876747    1.001074
     11          1           0        0.265404    0.808476    2.006440
     12          1           0       -1.801750    1.195126   -0.277861
     13          1           0       -2.000995   -0.518356   -0.691663
     14          1           0       -1.931463   -0.018937    1.009034
     15          1           0        0.300618    1.298254   -1.724737
     16          1           0        0.094984   -0.414995   -2.137191
     17          1           0        1.625276    0.152836   -1.442665
 ---------------------------------------------------------------------
 Rotational constants (GHZ):      4.4603863      4.4588943      4.4587942
 Standard basis: 6-31+G(d) (6D, 7F)
 There are   119 symmetry adapted cartesian basis functions of A   symmetry.
 There are   119 symmetry adapted basis functions of A   symmetry.
   119 basis functions,   208 primitive gaussians,   119 cartesian basis functions
    21 alpha electrons       21 beta electrons
       nuclear repulsion energy       198.5881867924 Hartrees.
 NAtoms=   17 NActive=   17 NUniq=   17 SFac= 1.00D+00 NAtFMM=   60 NAOKFM=F Big=F
 Integral buffers will be    131072 words long.
 Raffenetti 2 integral format.
 Two-electron integral symmetry is turned on.
 One-electron integrals computed using PRISM.
 NBasis=   119 RedAO= T EigKep=  5.87D-05  NBF=   119
 NBsUse=   119 1.00D-06 EigRej= -1.00D+00 NBFU=   119
 Initial guess from the checkpoint file:  "/srv/scratch/z5358697/gauss/Gau-2317532.chk"
 B after Tr=     0.000000    0.000000    0.000000
         Rot=    0.763450    0.407166    0.440114   -0.240127 Ang=  80.46 deg.
 Keep R1 ints in memory in canonical form, NReq=26497163.
 Requested convergence on RMS density matrix=1.00D-08 within 128 cycles.
 Requested convergence on MAX density matrix=1.00D-06.
 Requested convergence on             energy=1.00D-06.
 No special actions if energy rises.
 DSYEVD-2 returned Info=         149 IAlg= 4 N=   119 NDim=   119 NE2=       67089 trying  DSYEV.
 SCF Done:  E(RM062X) =  -197.660631729     A.U. after    8 cycles
            NFock=  8  Conv=0.68D-08     -V/T= 2.0094
 Calling FoFJK, ICntrl=      2127 FMM=F ISym2X=0 I1Cent= 0 IOpClX= 0 NMat=1 NMatS=1 NMatT=0.
 ***** Axes restored to original set *****
 -------------------------------------------------------------------
 Center     Atomic                   Forces (Hartrees/Bohr)
 Number     Number              X              Y              Z
 -------------------------------------------------------------------
      1        6          -0.000307119    0.000040639   -0.000426870
      2        6          -0.000052298   -0.000015889   -0.000187833
      3        6           0.000192638    0.000458042    0.000103953
      4        6           0.000310342   -0.000320401   -0.000013113
      5        6          -0.000304778   -0.000030272    0.000315901
      6        1          -0.000008387    0.000104860    0.000022503
      7        1          -0.000045153   -0.000045552   -0.000035650
      8        1          -0.000003146   -0.000068175    0.000041900
      9        1           0.000104825    0.000036613   -0.000066216
     10        1           0.000120689   -0.000010787    0.000024080
     11        1           0.000024139   -0.000004500    0.000011732
     12        1          -0.000020698   -0.000011515   -0.000087218
     13        1           0.000031273    0.000036014   -0.000005144
     14        1          -0.000004996   -0.000071651    0.000046187
     15        1          -0.000005180   -0.000083252    0.000014885
     16        1          -0.000019887    0.000079171    0.000108617
     17        1          -0.000012262   -0.000093346    0.000132286
 -------------------------------------------------------------------
 Cartesian Forces:  Max     0.000458042 RMS     0.000146379

 GradGradGradGradGradGradGradGradGradGradGradGradGradGradGradGradGradGrad
 Berny optimization.
 Using GEDIIS/GDIIS optimizer.
 FormGI is forming the generalized inverse of G from B-inverse, IUseBI=4.
 Internal  Forces:  Max     0.000673552 RMS     0.000141459
 Search for a local minimum.
 Step number   2 out of a maximum of   92
 All quantities printed in internal units (Hartrees-Bohrs-Radians)
 Mixed Optimization -- En-DIIS/RFO-DIIS
 Swapping is turned off.
 Update second derivatives using D2CorX and points    1    2
 DE= -5.89D-05 DEPred=-7.15D-05 R= 8.24D-01
 TightC=F SS=  1.41D+00  RLast= 2.92D-02 DXNew= 5.0454D-01 8.7658D-02
 Trust test= 8.24D-01 RLast= 2.92D-02 DXMaxT set to 3.00D-01
 ITU=  1  0
     Eigenvalues ---    0.00298   0.00298   0.00298   0.00303   0.04785
     Eigenvalues ---    0.04787   0.04811   0.05481   0.05482   0.05484
     Eigenvalues ---    0.05485   0.05488   0.05488   0.05489   0.05495
     Eigenvalues ---    0.14409   0.14413   0.15470   0.16000   0.16000
     Eigenvalues ---    0.16000   0.16000   0.16000   0.16000   0.16000
     Eigenvalues ---    0.16000   0.16000   0.16000   0.16424   0.28896
     Eigenvalues ---    0.28931   0.28934   0.33099   0.34066   0.34138
     Eigenvalues ---    0.34149   0.34152   0.34154   0.34154   0.34156
     Eigenvalues ---    0.34157   0.34158   0.34161   0.34162   0.35074
 En-DIIS/RFO-DIIS IScMMF=        0 using points:     2    1
 RFO step:  Lambda=-3.05329565D-06.
 DidBck=F Rises=F RFO-DIIS coefs:    0.84472    0.15528
 Iteration  1 RMS(Cart)=  0.00341333 RMS(Int)=  0.00000824
 Iteration  2 RMS(Cart)=  0.00000850 RMS(Int)=  0.00000060
 Iteration  3 RMS(Cart)=  0.00000000 RMS(Int)=  0.00000060
 Variable       Old X    -DE/DX   Delta X   Delta X   Delta X     New X
                                 (Linear)    (Quad)   (Total)
    R1        2.89393   0.00053   0.00117   0.00019   0.00136   2.89529
    R2        2.07251  -0.00008  -0.00029   0.00013  -0.00016   2.07235
    R3        2.07241  -0.00003  -0.00028   0.00027  -0.00002   2.07239
    R4        2.07241  -0.00003  -0.00029   0.00026  -0.00003   2.07238
    R5        2.89370   0.00065   0.00119   0.00051   0.00171   2.89541
    R6        2.89383   0.00048   0.00118   0.00004   0.00122   2.89505
    R7        2.89371   0.00067   0.00120   0.00056   0.00176   2.89547
    R8        2.07235   0.00001  -0.00025   0.00031   0.00006   2.07241
    R9        2.07251  -0.00006  -0.00026   0.00015  -0.00011   2.07240
   R10        2.07241  -0.00001  -0.00028   0.00031   0.00003   2.07245
   R11        2.07251  -0.00007  -0.00027   0.00014  -0.00013   2.07239
   R12        2.07245  -0.00005  -0.00028   0.00019  -0.00008   2.07237
   R13        2.07248  -0.00005  -0.00027   0.00020  -0.00008   2.07240
   R14        2.07242   0.00001  -0.00027   0.00033   0.00006   2.07248
   R15        2.07249  -0.00005  -0.00029   0.00021  -0.00008   2.07241
   R16        2.07252  -0.00005  -0.00024   0.00016  -0.00007   2.07245
    A1        1.93695   0.00004   0.00056  -0.00058  -0.00002   1.93693
    A2        1.93635   0.00011   0.00063  -0.00007   0.00057   1.93692
    A3        1.93705  -0.00008   0.00054  -0.00106  -0.00052   1.93652
    A4        1.88392  -0.00008  -0.00063   0.00031  -0.00033   1.88359
    A5        1.88401   0.00000  -0.00065   0.00057  -0.00008   1.88393
    A6        1.88340   0.00001  -0.00055   0.00093   0.00038   1.88378
    A7        1.91027   0.00002   0.00006   0.00040   0.00046   1.91074
    A8        1.91079   0.00001  -0.00004  -0.00011  -0.00014   1.91065
    A9        1.91022   0.00002   0.00006   0.00047   0.00053   1.91075
   A10        1.91109  -0.00004  -0.00006  -0.00058  -0.00064   1.91044
   A11        1.91037   0.00004   0.00005   0.00036   0.00041   1.91078
   A12        1.91106  -0.00005  -0.00008  -0.00054  -0.00062   1.91044
   A13        1.93685   0.00009   0.00057  -0.00026   0.00031   1.93716
   A14        1.93611   0.00013   0.00070   0.00003   0.00073   1.93684
   A15        1.93694  -0.00002   0.00055  -0.00087  -0.00032   1.93662
   A16        1.88381  -0.00008  -0.00063   0.00056  -0.00007   1.88375
   A17        1.88436  -0.00008  -0.00070   0.00003  -0.00067   1.88369
   A18        1.88362  -0.00004  -0.00059   0.00057  -0.00002   1.88360
   A19        1.93678   0.00002   0.00059  -0.00061  -0.00003   1.93676
   A20        1.93672  -0.00001   0.00059  -0.00072  -0.00014   1.93659
   A21        1.93607   0.00010   0.00067  -0.00022   0.00046   1.93653
   A22        1.88410  -0.00001  -0.00065   0.00062  -0.00003   1.88407
   A23        1.88405  -0.00006  -0.00066   0.00046  -0.00020   1.88384
   A24        1.88398  -0.00004  -0.00064   0.00056  -0.00008   1.88391
   A25        1.93699  -0.00001   0.00056  -0.00081  -0.00024   1.93675
   A26        1.93654   0.00011   0.00060  -0.00023   0.00037   1.93692
   A27        1.93602   0.00019   0.00068   0.00037   0.00105   1.93707
   A28        1.88443  -0.00009  -0.00070   0.00007  -0.00063   1.88380
   A29        1.88382  -0.00007  -0.00063   0.00051  -0.00012   1.88370
   A30        1.88391  -0.00014  -0.00062   0.00012  -0.00050   1.88341
    D1        3.14048  -0.00003   0.00018   0.00341   0.00359  -3.13912
    D2        1.04566   0.00001   0.00024   0.00394   0.00418   1.04983
    D3       -1.04911   0.00004   0.00031   0.00438   0.00470  -1.04441
    D4       -1.04830  -0.00003   0.00017   0.00337   0.00354  -1.04477
    D5        3.14006   0.00000   0.00024   0.00389   0.00413  -3.13900
    D6        1.04529   0.00004   0.00031   0.00434   0.00465   1.04994
    D7        1.04551   0.00000   0.00026   0.00378   0.00404   1.04955
    D8       -1.04932   0.00004   0.00033   0.00431   0.00463  -1.04468
    D9        3.13911   0.00007   0.00040   0.00475   0.00515  -3.13893
   D10        3.13914   0.00007   0.00038   0.00481   0.00519  -3.13885
   D11        1.04510   0.00003   0.00033   0.00426   0.00458   1.04968
   D12       -1.04876   0.00001   0.00024   0.00410   0.00434  -1.04442
   D13       -1.04940   0.00006   0.00034   0.00457   0.00491  -1.04449
   D14        3.13974   0.00002   0.00028   0.00402   0.00430  -3.13915
   D15        1.04588   0.00001   0.00019   0.00386   0.00406   1.04994
   D16        1.04563   0.00001   0.00024   0.00377   0.00401   1.04964
   D17       -1.04841  -0.00003   0.00018   0.00322   0.00340  -1.04501
   D18        3.14091  -0.00005   0.00009   0.00306   0.00315  -3.13912
   D19        3.13977   0.00000   0.00027   0.00063   0.00090   3.14067
   D20       -1.04864  -0.00001   0.00023   0.00052   0.00075  -1.04789
   D21        1.04550   0.00000   0.00026   0.00061   0.00087   1.04637
   D22        1.04545   0.00001   0.00025   0.00056   0.00081   1.04626
   D23        3.14022   0.00000   0.00022   0.00045   0.00067   3.14088
   D24       -1.04882   0.00000   0.00025   0.00053   0.00078  -1.04804
   D25       -1.04916   0.00001   0.00028   0.00080   0.00108  -1.04808
   D26        1.04561   0.00000   0.00024   0.00070   0.00094   1.04654
   D27        3.13975   0.00001   0.00027   0.00078   0.00105   3.14081
   D28       -3.13736  -0.00007  -0.00067  -0.00702  -0.00768   3.13814
   D29        1.05062  -0.00002  -0.00056  -0.00642  -0.00698   1.04364
   D30       -1.04328  -0.00004  -0.00063  -0.00666  -0.00729  -1.05057
   D31       -1.04382  -0.00001  -0.00052  -0.00602  -0.00654  -1.05036
   D32       -3.13903   0.00004  -0.00041  -0.00542  -0.00583   3.13833
   D33        1.05026   0.00002  -0.00049  -0.00566  -0.00615   1.04411
   D34        1.05123  -0.00007  -0.00061  -0.00684  -0.00746   1.04377
   D35       -1.04398  -0.00002  -0.00051  -0.00624  -0.00675  -1.05073
   D36       -3.13788  -0.00004  -0.00058  -0.00648  -0.00707   3.13824
         Item               Value     Threshold  Converged?
 Maximum Force            0.000674     0.000450     NO 
 RMS     Force            0.000141     0.000300     YES
 Maximum Displacement     0.013759     0.001800     NO 
 RMS     Displacement     0.003413     0.001200     NO 
 Predicted change in Energy=-3.886134D-06
 GradGradGradGradGradGradGradGradGradGradGradGradGradGradGradGradGradGrad

                          Input orientation:                          
 ---------------------------------------------------------------------
 Center     Atomic      Atomic             Coordinates (Angstroms)
 Number     Number       Type             X           Y           Z
 ---------------------------------------------------------------------
      1          6           0       -0.611729   -0.125492    0.901320
      2          6           0        0.260407   -0.349901    2.140845
      3          6           0        1.182872    0.856864    2.341742
      4          6           0        1.106380   -1.612535    1.948258
      5          6           0       -0.635612   -0.518703    3.372246
      6          1           0       -1.284739   -0.975348    0.735702
      7          1           0       -1.226940    0.775579    1.012038
      8          1           0        0.006376   -0.004122    0.003615
      9          1           0        1.821539    0.720775    3.222808
     10          1           0        0.601608    1.775748    2.484769
     11          1           0        1.834479    1.001719    1.471594
     12          1           0        1.742117   -1.796132    2.822784
     13          1           0        0.469238   -2.493170    1.802743
     14          1           0        1.757741   -1.518192    1.071042
     15          1           0       -0.035070   -0.684628    4.274793
     16          1           0       -1.309620   -1.375532    3.252870
     17          1           0       -1.250946    0.374272    3.535631
 ---------------------------------------------------------------------
                    Distance matrix (angstroms):
                    1          2          3          4          5
     1  C    0.000000
     2  C    1.532124   0.000000
     3  C    2.502086   1.532183   0.000000
     4  C    2.501855   1.531994   2.501722   0.000000
     5  C    2.502131   1.532218   2.502201   2.501748   0.000000
     6  H    1.096643   2.180157   3.467776   2.755676   2.753407
     7  H    1.096664   2.180163   2.753528   3.467561   2.755978
     8  H    1.096658   2.179873   2.755409   2.752932   3.467653
     9  H    3.467891   2.180396   1.096673   2.753228   2.756126
    10  H    2.755760   2.180158   1.096665   3.467435   2.753695
    11  H    2.753136   2.180018   1.096691   2.755298   3.467782
    12  H    3.467514   2.179929   2.753642   1.096661   2.754511
    13  H    2.754442   2.179799   3.467350   1.096650   2.753643
    14  H    2.753690   2.179769   2.754278   1.096669   3.467371
    15  H    3.467779   2.180157   2.756132   2.752577   1.096711
    16  H    2.753078   2.180253   3.467890   2.755946   1.096674
    17  H    2.756439   2.180377   2.753495   3.467584   1.096692
                    6          7          8          9         10
     6  H    0.000000
     7  H    1.773541   0.000000
     8  H    1.773756   1.773675   0.000000
     9  H    4.325678   3.766130   3.766098   0.000000
    10  H    3.766440   2.552031   3.111007   1.773669   0.000000
    11  H    3.765615   3.103969   2.551204   1.773653   1.773588
    12  H    3.767154   4.325251   3.764546   2.549735   3.764750
    13  H    2.553193   3.766557   3.105875   3.764936   4.325083
    14  H    3.108668   3.764730   2.549330   3.105985   3.766340
    15  H    3.764486   3.768067   4.325248   2.555156   3.108535
    16  H    2.548902   3.107320   3.764342   3.768231   3.764750
    17  H    3.108411   2.555415   3.768180   3.107746   2.549589
                   11         12         13         14         15
    11  H    0.000000
    12  H    3.108411   0.000000
    13  H    3.766668   1.773856   0.000000
    14  H    2.552702   1.773724   1.773755   0.000000
    15  H    3.767877   2.549934   3.104220   3.764708   0.000000
    16  H    4.325463   3.110462   2.552708   3.766886   1.773741
    17  H    3.764809   3.765266   3.766186   4.325254   1.773692
                   16         17
    16  H    0.000000
    17  H    1.773474   0.000000
 Stoichiometry    C5H12
 Framework group  C1[X(C5H12)]
 Deg. of freedom    45
 Full point group                 C1      NOp   1
 Largest Abelian subgroup         C1      NOp   1
 Largest concise Abelian subgroup C1      NOp   1
                         Standard orientation:                         
 ---------------------------------------------------------------------
 Center     Atomic      Atomic             Coordinates (Angstroms)
 Number     Number       Type             X           Y           Z
 ---------------------------------------------------------------------
      1          6           0       -0.144281   -1.507145    0.235174
      2          6           0        0.000005   -0.000061    0.000055
      3          6           0       -1.141722    0.738730    0.705910
      4          6           0       -0.056687    0.290022   -1.503156
      5          6           0        1.342741    0.478457    0.561992
      6          1           0        0.663591   -2.060627   -0.258410
      7          1           0       -0.109603   -1.742579    1.305707
      8          1           0       -1.097879   -1.876373   -0.161035
      9          1           0       -1.063917    1.821628    0.551092
     10          1           0       -1.122918    0.549876    1.786028
     11          1           0       -2.116169    0.412146    0.323121
     12          1           0        0.043538    1.364284   -1.699580
     13          1           0        0.751976   -0.227361   -2.033267
     14          1           0       -1.009353   -0.044178   -1.931433
     15          1           0        1.473067    1.555765    0.403262
     16          1           0        2.178633   -0.038172    0.075092
     17          1           0        1.408703    0.285579    1.639574
 ---------------------------------------------------------------------
 Rotational constants (GHZ):      4.4556146      4.4553576      4.4544538
 Standard basis: 6-31+G(d) (6D, 7F)
 There are   119 symmetry adapted cartesian basis functions of A   symmetry.
 There are   119 symmetry adapted basis functions of A   symmetry.
   119 basis functions,   208 primitive gaussians,   119 cartesian basis functions
    21 alpha electrons       21 beta electrons
       nuclear repulsion energy       198.5111936404 Hartrees.
 NAtoms=   17 NActive=   17 NUniq=   17 SFac= 1.00D+00 NAtFMM=   60 NAOKFM=F Big=F
 Integral buffers will be    131072 words long.
 Raffenetti 2 integral format.
 Two-electron integral symmetry is turned on.
 One-electron integrals computed using PRISM.
 NBasis=   119 RedAO= T EigKep=  5.90D-05  NBF=   119
 NBsUse=   119 1.00D-06 EigRej= -1.00D+00 NBFU=   119
 Initial guess from the checkpoint file:  "/srv/scratch/z5358697/gauss/Gau-2317532.chk"
 B after Tr=     0.000000    0.000000    0.000000
         Rot=    0.704735   -0.091271    0.702696   -0.035157 Ang= -90.38 deg.
 Keep R1 ints in memory in canonical form, NReq=26497163.
 Requested convergence on RMS density matrix=1.00D-08 within 128 cycles.
 Requested convergence on MAX density matrix=1.00D-06.
 Requested convergence on             energy=1.00D-06.
 No special actions if energy rises.
 SCF Done:  E(RM062X) =  -197.660696515     A.U. after    8 cycles
            NFock=  8  Conv=0.51D-08     -V/T= 2.0094
 Calling FoFJK, ICntrl=      2127 FMM=F ISym2X=0 I1Cent= 0 IOpClX= 0 NMat=1 NMatS=1 NMatT=0.
 ***** Axes restored to original set *****
 -------------------------------------------------------------------
 Center     Atomic                   Forces (Hartrees/Bohr)
 Number     Number              X              Y              Z
 -------------------------------------------------------------------
      1        6           0.000052171    0.000049000   -0.000039693
      2        6           0.000026707   -0.000063136    0.000133668
      3        6           0.000105254    0.000161963   -0.000028295
      4        6           0.000001579   -0.000087764   -0.000049429
      5        6          -0.000114718    0.000058043    0.000048456
      6        1           0.000041761   -0.000006253    0.000022372
      7        1          -0.000023526   -0.000013784   -0.000017852
      8        1          -0.000113677    0.000042706   -0.000021789
      9        1          -0.000019269   -0.000018495   -0.000011656
     10        1          -0.000017266   -0.000023573    0.000006931
     11        1          -0.000052115   -0.000010034   -0.000006361
     12        1          -0.000024308   -0.000031269   -0.000036338
     13        1           0.000059916    0.000002693    0.000014771
     14        1          -0.000044277    0.000006218   -0.000036512
     15        1          -0.000000476   -0.000010125   -0.000012396
     16        1           0.000098348   -0.000011586    0.000022922
     17        1           0.000023897   -0.000044603    0.000011202
 -------------------------------------------------------------------
 Cartesian Forces:  Max     0.000161963 RMS     0.000052931

 GradGradGradGradGradGradGradGradGradGradGradGradGradGradGradGradGradGrad
 Berny optimization.
 Using GEDIIS/GDIIS optimizer.
 FormGI is forming the generalized inverse of G from B-inverse, IUseBI=4.
 Internal  Forces:  Max     0.000132827 RMS     0.000035192
 Search for a local minimum.
 Step number   3 out of a maximum of   92
 All quantities printed in internal units (Hartrees-Bohrs-Radians)
 Mixed Optimization -- En-DIIS/RFO-DIIS
 Swapping is turned off.
 Update second derivatives using D2CorX and points    1    2    3
 DE= -6.48D-05 DEPred=-3.89D-06 R= 1.67D+01
 TightC=F SS=  1.41D+00  RLast= 2.79D-02 DXNew= 5.0454D-01 8.3792D-02
 Trust test= 1.67D+01 RLast= 2.79D-02 DXMaxT set to 3.00D-01
 ITU=  1  1  0
     Eigenvalues ---    0.00283   0.00298   0.00298   0.00426   0.04710
     Eigenvalues ---    0.04790   0.05007   0.05362   0.05481   0.05482
     Eigenvalues ---    0.05483   0.05483   0.05484   0.05485   0.05567
     Eigenvalues ---    0.14383   0.14454   0.15465   0.15887   0.16000
     Eigenvalues ---    0.16000   0.16000   0.16000   0.16000   0.16000
     Eigenvalues ---    0.16000   0.16000   0.16000   0.17472   0.28595
     Eigenvalues ---    0.28925   0.28931   0.29394   0.34027   0.34125
     Eigenvalues ---    0.34141   0.34150   0.34152   0.34154   0.34156
     Eigenvalues ---    0.34156   0.34157   0.34159   0.34162   0.34239
 En-DIIS/RFO-DIIS IScMMF=        0 using points:     3    2    1
 RFO step:  Lambda=-2.87958264D-07.
 DidBck=T Rises=F RFO-DIIS coefs:    0.66584    0.26194    0.07222
 Iteration  1 RMS(Cart)=  0.00138568 RMS(Int)=  0.00000142
 Iteration  2 RMS(Cart)=  0.00000147 RMS(Int)=  0.00000026
 Iteration  3 RMS(Cart)=  0.00000000 RMS(Int)=  0.00000026
 Variable       Old X    -DE/DX   Delta X   Delta X   Delta X     New X
                                 (Linear)    (Quad)   (Total)
    R1        2.89529   0.00008   0.00009   0.00022   0.00031   2.89561
    R2        2.07235  -0.00003  -0.00008   0.00001  -0.00008   2.07228
    R3        2.07239  -0.00001  -0.00013   0.00011  -0.00002   2.07237
    R4        2.07238  -0.00003  -0.00012   0.00007  -0.00006   2.07233
    R5        2.89541   0.00009  -0.00002   0.00038   0.00037   2.89577
    R6        2.89505   0.00010   0.00014   0.00020   0.00035   2.89539
    R7        2.89547   0.00005  -0.00003   0.00031   0.00028   2.89576
    R8        2.07241  -0.00001  -0.00014   0.00012  -0.00002   2.07239
    R9        2.07240  -0.00001  -0.00009   0.00005  -0.00004   2.07236
   R10        2.07245  -0.00003  -0.00014   0.00008  -0.00006   2.07239
   R11        2.07239  -0.00003  -0.00008   0.00001  -0.00007   2.07232
   R12        2.07237  -0.00004  -0.00010   0.00002  -0.00008   2.07229
   R13        2.07240  -0.00001  -0.00010   0.00007  -0.00003   2.07238
   R14        2.07248  -0.00002  -0.00015   0.00010  -0.00004   2.07244
   R15        2.07241  -0.00005  -0.00011   0.00000  -0.00011   2.07230
   R16        2.07245  -0.00004  -0.00009   0.00001  -0.00008   2.07237
    A1        1.93693  -0.00007   0.00027  -0.00062  -0.00036   1.93658
    A2        1.93692   0.00004   0.00011   0.00014   0.00024   1.93716
    A3        1.93652   0.00013   0.00043   0.00012   0.00055   1.93707
    A4        1.88359   0.00001  -0.00019   0.00014  -0.00005   1.88354
    A5        1.88393  -0.00003  -0.00028   0.00010  -0.00018   1.88375
    A6        1.88378  -0.00008  -0.00038   0.00015  -0.00023   1.88354
    A7        1.91074  -0.00002  -0.00013  -0.00004  -0.00017   1.91056
    A8        1.91065  -0.00003   0.00003  -0.00030  -0.00027   1.91038
    A9        1.91075   0.00001  -0.00015   0.00010  -0.00005   1.91070
   A10        1.91044   0.00005   0.00019   0.00013   0.00031   1.91076
   A11        1.91078   0.00000  -0.00011   0.00026   0.00015   1.91093
   A12        1.91044   0.00000   0.00017  -0.00014   0.00003   1.91047
   A13        1.93716  -0.00003   0.00016  -0.00025  -0.00009   1.93707
   A14        1.93684  -0.00002   0.00008  -0.00012  -0.00004   1.93680
   A15        1.93662  -0.00003   0.00036  -0.00050  -0.00014   1.93648
   A16        1.88375   0.00002  -0.00027   0.00033   0.00006   1.88381
   A17        1.88369   0.00004  -0.00010   0.00024   0.00013   1.88382
   A18        1.88360   0.00002  -0.00027   0.00035   0.00009   1.88369
   A19        1.93676   0.00003   0.00028  -0.00014   0.00014   1.93690
   A20        1.93659   0.00005   0.00032  -0.00018   0.00014   1.93673
   A21        1.93653  -0.00003   0.00016  -0.00020  -0.00004   1.93649
   A22        1.88407  -0.00005  -0.00029   0.00000  -0.00030   1.88378
   A23        1.88384   0.00002  -0.00024   0.00041   0.00017   1.88401
   A24        1.88391  -0.00002  -0.00027   0.00014  -0.00013   1.88377
   A25        1.93675   0.00002   0.00034  -0.00034   0.00000   1.93675
   A26        1.93692  -0.00004   0.00015  -0.00032  -0.00017   1.93675
   A27        1.93707   0.00002  -0.00003   0.00028   0.00025   1.93732
   A28        1.88380  -0.00001  -0.00012  -0.00015  -0.00026   1.88354
   A29        1.88370  -0.00001  -0.00025   0.00029   0.00003   1.88373
   A30        1.88341   0.00003  -0.00012   0.00027   0.00015   1.88356
    D1       -3.13912   0.00000  -0.00112  -0.00136  -0.00247  -3.14159
    D2        1.04983  -0.00002  -0.00128  -0.00130  -0.00259   1.04725
    D3       -1.04441  -0.00001  -0.00142  -0.00100  -0.00243  -1.04684
    D4       -1.04477  -0.00001  -0.00110  -0.00151  -0.00261  -1.04738
    D5       -3.13900  -0.00003  -0.00127  -0.00145  -0.00272   3.14146
    D6        1.04994  -0.00002  -0.00141  -0.00115  -0.00256   1.04738
    D7        1.04955   0.00001  -0.00123  -0.00115  -0.00238   1.04717
    D8       -1.04468  -0.00002  -0.00140  -0.00109  -0.00249  -1.04718
    D9       -3.13893   0.00000  -0.00154  -0.00080  -0.00233  -3.14126
   D10       -3.13885   0.00001  -0.00156   0.00253   0.00097  -3.13789
   D11        1.04968   0.00001  -0.00138   0.00236   0.00098   1.05066
   D12       -1.04442   0.00001  -0.00134   0.00233   0.00099  -1.04344
   D13       -1.04449  -0.00002  -0.00148   0.00221   0.00072  -1.04377
   D14       -3.13915  -0.00001  -0.00131   0.00204   0.00073  -3.13841
   D15        1.04994  -0.00001  -0.00126   0.00201   0.00074   1.05068
   D16        1.04964   0.00001  -0.00123   0.00227   0.00105   1.05068
   D17       -1.04501   0.00001  -0.00105   0.00211   0.00106  -1.04396
   D18       -3.13912   0.00001  -0.00101   0.00207   0.00106  -3.13805
   D19        3.14067   0.00000  -0.00018  -0.00073  -0.00091   3.13976
   D20       -1.04789  -0.00001  -0.00014  -0.00095  -0.00109  -1.04899
   D21        1.04637  -0.00002  -0.00017  -0.00102  -0.00119   1.04518
   D22        1.04626   0.00002  -0.00015  -0.00057  -0.00072   1.04553
   D23        3.14088   0.00001  -0.00012  -0.00079  -0.00091   3.13997
   D24       -1.04804   0.00000  -0.00015  -0.00086  -0.00101  -1.04905
   D25       -1.04808   0.00000  -0.00023  -0.00089  -0.00112  -1.04920
   D26        1.04654  -0.00002  -0.00020  -0.00110  -0.00130   1.04524
   D27        3.14081  -0.00002  -0.00023  -0.00118  -0.00140   3.13940
   D28        3.13814   0.00000   0.00226   0.00007   0.00233   3.14047
   D29        1.04364   0.00003   0.00207   0.00070   0.00278   1.04642
   D30       -1.05057   0.00001   0.00214   0.00040   0.00254  -1.04804
   D31       -1.05036  -0.00003   0.00194   0.00024   0.00218  -1.04818
   D32        3.13833   0.00000   0.00176   0.00087   0.00263   3.14095
   D33        1.04411  -0.00001   0.00183   0.00056   0.00239   1.04650
   D34        1.04377   0.00003   0.00221   0.00047   0.00268   1.04645
   D35       -1.05073   0.00006   0.00202   0.00110   0.00312  -1.04760
   D36        3.13824   0.00004   0.00209   0.00079   0.00288   3.14112
         Item               Value     Threshold  Converged?
 Maximum Force            0.000133     0.000450     YES
 RMS     Force            0.000035     0.000300     YES
 Maximum Displacement     0.004965     0.001800     NO 
 RMS     Displacement     0.001386     0.001200     NO 
 Predicted change in Energy=-6.496982D-07
 GradGradGradGradGradGradGradGradGradGradGradGradGradGradGradGradGradGrad

                          Input orientation:                          
 ---------------------------------------------------------------------
 Center     Atomic      Atomic             Coordinates (Angstroms)
 Number     Number       Type             X           Y           Z
 ---------------------------------------------------------------------
      1          6           0       -0.611394   -0.125126    0.901212
      2          6           0        0.260562   -0.349801    2.141021
      3          6           0        1.183379    0.856952    2.341859
      4          6           0        1.105991   -1.612996    1.948271
      5          6           0       -0.635867   -0.518375    3.372341
      6          1           0       -1.282704   -0.976037    0.734382
      7          1           0       -1.228390    0.774619    1.012670
      8          1           0        0.006461   -0.001495    0.003680
      9          1           0        1.822579    0.720334    3.222442
     10          1           0        0.602258    1.775779    2.485687
     11          1           0        1.834320    1.002029    1.471287
     12          1           0        1.742345   -1.796625    2.822296
     13          1           0        0.468541   -2.493520    1.803756
     14          1           0        1.756503   -1.519332    1.070369
     15          1           0       -0.035510   -0.682110    4.275383
     16          1           0       -1.308028   -1.376700    3.253836
     17          1           0       -1.252945    0.373603    3.534309
 ---------------------------------------------------------------------
                    Distance matrix (angstroms):
                    1          2          3          4          5
     1  C    0.000000
     2  C    1.532290   0.000000
     3  C    2.502229   1.532377   0.000000
     4  C    2.501900   1.532177   2.502308   0.000000
     5  C    2.502343   1.532368   2.502614   2.502048   0.000000
     6  H    1.096603   2.180017   3.467765   2.754108   2.754393
     7  H    1.096653   2.180476   2.755023   3.467765   2.755171
     8  H    1.096629   2.180393   2.754841   2.754512   3.468087
     9  H    3.468016   2.180495   1.096662   2.753442   2.756960
    10  H    2.756256   2.180284   1.096645   3.467904   2.753589
    11  H    2.752631   2.180069   1.096661   2.756144   3.468063
    12  H    3.467645   2.180164   2.754039   1.096624   2.755425
    13  H    2.755020   2.180031   3.467883   1.096608   2.753429
    14  H    2.753064   2.179894   2.755338   1.096654   3.467625
    15  H    3.467982   2.180273   2.755525   2.754092   1.096687
    16  H    2.754374   2.180219   3.468143   2.754601   1.096615
    17  H    2.755633   2.180657   2.755220   3.467950   1.096651
                    6          7          8          9         10
     6  H    0.000000
     7  H    1.773468   0.000000
     8  H    1.773585   1.773491   0.000000
     9  H    4.325609   3.767552   3.765601   0.000000
    10  H    3.767312   2.554089   3.110311   1.773683   0.000000
    11  H    3.764520   3.105195   2.549902   1.773706   1.773604
    12  H    3.766122   4.325657   3.765685   2.549831   3.764993
    13  H    2.552092   3.766447   3.108694   3.764963   4.325485
    14  H    3.105614   3.764987   2.550353   3.106749   3.767381
    15  H    3.765710   3.767004   4.325788   2.555000   3.106602
    16  H    2.551240   3.107627   3.765978   3.768188   3.765285
    17  H    3.108376   2.553444   3.767246   3.110680   2.550976
                   11         12         13         14         15
    11  H    0.000000
    12  H    3.109042   0.000000
    13  H    3.767592   1.773602   0.000000
    14  H    2.554223   1.773793   1.773624   0.000000
    15  H    3.767697   2.552327   3.105513   3.766214   0.000000
    16  H    4.325527   3.109235   2.550729   3.765531   1.773504
    17  H    3.765923   3.766778   3.765464   4.325619   1.773660
                   16         17
    16  H    0.000000
    17  H    1.773488   0.000000
 Stoichiometry    C5H12
 Framework group  C1[X(C5H12)]
 Deg. of freedom    45
 Full point group                 C1      NOp   1
 Largest Abelian subgroup         C1      NOp   1
 Largest concise Abelian subgroup C1      NOp   1
                         Standard orientation:                         
 ---------------------------------------------------------------------
 Center     Atomic      Atomic             Coordinates (Angstroms)
 Number     Number       Type             X           Y           Z
 ---------------------------------------------------------------------
      1          6           0       -0.367952   -1.210626    0.864056
      2          6           0       -0.000028    0.000148    0.000013
      3          6           0       -1.163592    0.997286   -0.003832
      4          6           0        0.281219   -0.462337   -1.433366
      5          6           0        1.250289    0.675737    0.573107
      6          1           0        0.449520   -1.941301    0.883841
      7          1           0       -0.574627   -0.907484    1.897515
      8          1           0       -1.261245   -1.713865    0.474990
      9          1           0       -0.927710    1.873747   -0.619336
     10          1           0       -1.383862    1.347310    1.011842
     11          1           0       -2.073523    0.536583   -0.406876
     12          1           0        0.545826    0.386694   -2.075015
     13          1           0        1.112584   -1.176983   -1.459093
     14          1           0       -0.598784   -0.952331   -1.867128
     15          1           0        1.536485    1.546721   -0.028725
     16          1           0        2.099421   -0.018041    0.587667
     17          1           0        1.076294    1.017689    1.600453
 ---------------------------------------------------------------------
 Rotational constants (GHZ):      4.4549571      4.4542293      4.4535725
 Standard basis: 6-31+G(d) (6D, 7F)
 There are   119 symmetry adapted cartesian basis functions of A   symmetry.
 There are   119 symmetry adapted basis functions of A   symmetry.
   119 basis functions,   208 primitive gaussians,   119 cartesian basis functions
    21 alpha electrons       21 beta electrons
       nuclear repulsion energy       198.4957056349 Hartrees.
 NAtoms=   17 NActive=   17 NUniq=   17 SFac= 1.00D+00 NAtFMM=   60 NAOKFM=F Big=F
 Integral buffers will be    131072 words long.
[...]
   D35       -1.04593   0.00000   0.00000  -0.00078  -0.00078  -1.04671
   D36       -3.14055  -0.00001   0.00000  -0.00109  -0.00109   3.14155
         Item               Value     Threshold  Converged?
 Maximum Force            0.000085     0.000450     YES
 RMS     Force            0.000026     0.000300     YES
 Maximum Displacement     0.002475     0.001800     NO 
 RMS     Displacement     0.000740     0.001200     YES
 Predicted change in Energy=-2.505191D-07
 GradGradGradGradGradGradGradGradGradGradGradGradGradGradGradGradGradGrad

 1\1\GINC-KATANA1\Freq\RM062X\6-31+G(d)\C5H12\Z5358697\18-Mar-2025\0\\#
 N Geom=AllCheck Guess=TCheck SCRF=Check GenChk RM062X/6-31+G(d) Freq\\
 neopentane\\0,1\C,-0.6117340494,-0.1248765712,0.9012897127\C,0.2604313
 761,-0.349876078,2.1409254382\C,1.1834392219,0.8567092757,2.341808525\
 C,1.1059576123,-1.6130024593,1.9478933658\C,-0.6357026642,-0.518448360
 2,3.372514317\H,-1.2832358422,-0.9756504817,0.734513185\H,-1.228429657
 8,0.7750668064,1.0128397115\H,0.0061856506,-0.0013726021,0.003794137\H
 ,1.8213334607,0.7205607885,3.223379929\H,0.6025023152,1.7758871269,2.4
 841032231\H,1.8356896806,1.0008614801,1.4720774308\H,1.7417812668,-1.7
 970197833,2.8221835289\H,0.4685913129,-2.4934353659,1.8025318868\H,1.7
 570534963,-1.5189335346,1.0704805699\H,-0.0351499549,-0.6803852086,4.2
 757152195\H,-1.3067245864,-1.3778054725,3.255069281\H,-1.2538886384,0.
 3729204397,3.5336805388\\Version=ES64L-G09RevD.01\State=1-A\HF=-197.66
 06411\RMSD=1.110e-09\RMSF=4.026e-05\ZeroPoint=0.1610959\Thermal=0.1679
 462\Dipole=-0.0000396,-0.0001182,-0.0000345\DipoleDeriv=0.0460561,0.00
 42066,-0.034196,0.0051757,0.0715489,0.0078678,-0.0356065,0.0104391,0.0
 207012,0.1031703,0.0001682,-0.0003924,0.0003651,0.1026696,0.0011734,0.
 0022336,-0.000608,0.1028816,0.0425654,-0.034866,-0.0068759,-0.0366369,
 0.0234773,-0.0087356,-0.0084455,-0.0071031,0.0679142,0.0457111,0.03347
 68,0.0044678,0.0354132,0.017994,-0.0075732,0.0048483,-0.0078973,0.0681
 074,0.0446794,-0.0054085,0.0387414,-0.003955,0.0714483,0.0069245,0.034
 9541,0.0076773,0.0201188,-0.0302078,-0.0857833,-0.0524299,-0.131189,-0
 .0807036,-0.0470329,-0.0200611,0.0065705,0.0385782,-0.0171781,0.094119
 8,-0.0223659,0.1270509,-0.0952804,0.0093643,0.0204366,-0.0493535,0.040
 0701,-0.0245099,-0.0179053,0.1324819,-0.0055847,0.0633827,0.0233712,0.
 0576503,0.0268653,-0.1077927,-0.0227339,-0.0193933,-0.0951922,0.024556
 9,0.0401662,0.050005,-0.1274848,-0.0027062,-0.0868886,-0.018183,0.1274
 194,0.0186488,0.0526814,-0.1179663,-0.0286342,0.0070783,-0.0286569,0.0
 628926,-0.0262672,-0.04778,0.0864795,-0.0161231,0.0424363,-0.0080323,0
 .1325942,0.0444278,-0.0863228,-0.0198813,0.0512666,-0.0854489,0.019113
 9,0.0392745,-0.0038099,-0.1268125,0.0521816,-0.0869373,-0.0289815,-0.1
 321704,-0.0216702,-0.0582643,-0.1054293,-0.0280592,-0.0108592,-0.02917
 67,0.0623536,-0.0243508,0.0232722,0.0986145,-0.0199542,0.040121,0.0439
 184,0.1300704,-0.0106533,-0.0862555,-0.0207198,0.0233045,-0.1305281,0.
 0110625,0.0621946,0.0317265,-0.0529337,0.0306024,-0.1099628,-0.0304704
 ,-0.0975889,0.0213618,-0.1308901,-0.0807423,0.0053155,-0.0255388,-0.04
 80494,0.0399116,-0.0186987,0.0836617,0.0483037,0.1271776,-0.0945916,-0
 .0477893,0.0178762,0.0054403,0.0406306\Polar=60.2063784,-0.0346682,60.
 3296437,0.0392269,0.0563554,60.2092397\PG=C01 [X(C5H12)]\NImag=0\\0.55
 198583,0.00891093,0.58320103,-0.04862314,0.01248558,0.51706286,-0.1143
 1910,0.00959057,-0.05383923,0.51714475,0.00956467,-0.07914354,0.013828
 66,-0.00060733,0.51853878,-0.05399345,0.01380433,-0.15362487,0.0002726
 2,0.00121675,0.51909488,-0.01760463,-0.01759430,-0.00791081,-0.1183693
 7,-0.05516158,-0.00941406,0.54767971,-0.00111979,0.00203890,-0.0030225
 9,-0.05505962,-0.14895407,-0.01259465,-0.05057891,0.52019250,-0.020538
 30,-0.02313319,-0.00749079,-0.00961931,-0.01251275,-0.07853873,-0.0082
 5952,-0.01026969,0.58466464,-0.01636756,0.02010653,-0.00173585,-0.1121
 2855,0.05323663,0.00824807,0.01123980,-0.01567854,-0.00240643,0.554612
 08,0.00825029,-0.00842779,0.00330642,0.05307362,-0.15599010,-0.0122003
 0,0.01281886,-0.03321884,-0.00514874,0.04802889,0.51386895,-0.01761167
 ,0.02429666,0.00131896,0.00821675,-0.01240814,-0.07839696,0.00215234,-
 0.00536510,-0.00101708,0.00769993,-0.01121212,0.58445242,0.01114145,0.
 00188050,-0.01398320,-0.11629574,-0.00727283,0.05466724,-0.01835492,-0
 .00758894,0.01906385,-0.01656739,0.00224171,0.01894815,0.55104460,-0.0
 0264591,-0.00094093,0.00579787,-0.00718150,-0.07794273,0.00998891,-0.0
 1962421,-0.00664971,0.02305772,0.01889076,0.00082440,-0.02416734,-0.00
 713027,0.58559579,0.01459484,0.00482983,-0.03348854,0.05511293,0.01019
 754,-0.15186996,0.00181185,0.00327079,0.00137596,0.00755134,-0.0034541
 0,-0.00717833,0.04977408,0.00923337,0.51766583,-0.14647054,-0.12608193
 ,-0.02244572,-0.01232414,-0.01505156,-0.00127361,-0.00178720,0.0019926
 2,-0.00373252,0.00032770,-0.00133010,0.00049814,0.00041550,0.00010383,
 0.00121753,0.15762624,-0.12646256,-0.21091044,-0.02962930,0.00346730,0
 .00242904,0.00084137,0.00063919,0.00088758,0.00011857,0.00065141,0.001
 01478,0.00033183,0.00036072,0.00025463,0.00011569,0.13907900,0.2272099
 3,-0.02200754,-0.02910388,-0.05294562,-0.01561516,-0.02180114,-0.00425
 906,-0.00270660,0.00178648,-0.00466340,0.00076653,-0.00108014,0.000618
 50,-0.00078826,-0.00129049,0.00145326,0.02741943,0.03178787,0.05662317
 ,-0.13071969,0.12145706,0.01708139,-0.01137122,0.01538454,0.00359290,0
 .00034576,0.00114400,0.00084113,-0.00185743,-0.00056435,-0.00406197,0.
 00036331,-0.00046049,0.00107534,0.01280051,-0.01711508,-0.00231564,0.1
 4026777,0.12173687,-0.22835188,-0.02482623,0.00199510,-0.00536514,-0.0
 0124528,-0.00080821,0.00072374,-0.00029866,0.00041850,0.00093299,0.001
 96334,-0.00011375,0.00002739,-0.00058855,0.01505438,-0.01978622,-0.002
 85033,-0.13502639,0.24641513,0.01752730,-0.02526711,-0.05125560,-0.014
 35955,0.02243886,0.00280448,0.00062189,0.00106374,0.00085621,-0.002760
 62,0.00023876,-0.00456391,-0.00085329,0.00091943,0.00158974,0.00281493
 ,-0.00305155,-0.00168093,-0.01626791,0.02689634,0.05456111,-0.13606500
 ,-0.01698429,0.12468455,0.01004896,0.00205408,-0.01529104,0.00126464,0
 .00056225,-0.00042312,0.00116654,-0.00046022,-0.00062767,-0.00164312,0
 .00050219,-0.00282826,-0.01130065,-0.00057937,0.01573282,-0.01045223,-
 0.00351593,0.01374650,0.14622960,-0.01693750,-0.05156216,0.02379749,-0
 .00294084,-0.00228681,0.00355106,0.00031676,0.00007623,-0.00076448,-0.
 00086793,0.00016507,0.00066873,0.00086533,-0.00012249,0.00066630,-0.01
 440048,-0.00240171,0.02208829,0.01543209,0.00412204,-0.02314460,0.0183
 0208,0.05100271,0.12407136,0.02377285,-0.22261864,0.01673720,0.0026527
 4,-0.02181596,0.00154749,0.00058806,0.00066678,0.00133365,-0.00087069,
 0.00065455,-0.00515850,0.00075004,-0.00366155,-0.00348443,-0.00029359,
 0.00484864,0.00113235,0.00025291,-0.00239286,-0.13465558,-0.02703715,0
 .24404863,-0.00209936,-0.00423788,0.00067799,-0.01228873,0.00414910,-0
 .01613460,-0.13650524,0.02119698,-0.12282546,0.00042310,0.00111934,0.0
 0041337,0.00042618,0.00094799,-0.00116647,-0.00058036,-0.00011951,-0.0
 0141640,0.00031578,-0.00004761,0.00033455,0.00019979,0.00003240,-0.000
 18690,0.14691388,-0.00289503,-0.00439649,-0.00014981,-0.01433615,0.003
 26271,-0.02153475,0.02161173,-0.05258831,0.02931577,-0.00079792,0.0015
 9750,-0.00091249,0.00062504,0.00088059,-0.00100549,-0.00122019,0.00043
 292,-0.00133079,-0.00029127,0.00015763,0.00006360,0.00017051,-0.000133
 97,0.00009338,-0.02088782,0.05582619,-0.00038524,-0.00180934,0.0009455
 5,-0.00184060,0.00108481,-0.00500777,-0.12320448,0.02892161,-0.2212402
 7,0.00012795,0.00052547,0.00001138,0.00085840,0.00025833,0.00077940,-0
 .00056860,0.00002177,-0.00006001,0.00004389,0.00018447,0.00002474,0.00
 017342,0.00009725,0.00044225,0.13650795,-0.03151880,0.23866570,0.00120
 200,-0.00063076,0.00043342,0.01012334,-0.01628098,-0.00246434,-0.12592
 201,0.12032972,0.01843137,-0.00206547,-0.00300612,-0.00050595,0.001302
 89,-0.00044750,-0.00057259,0.00018197,0.00011323,0.00023004,-0.0001486
 2,0.00024795,-0.00004703,-0.00008798,0.00013179,-0.00009070,-0.0101708
 2,0.01475719,0.00391202,0.13526548,0.00127357,0.00065698,0.00074832,0.
 01566198,-0.02174751,-0.00299420,0.11977996,-0.23160089,-0.02837156,-0
 .00536901,-0.00347662,-0.00060909,0.00150036,0.00072296,-0.00051686,-0
 .00019980,0.00033763,0.00022588,-0.00072283,0.00048496,-0.00050988,-0.
 00011818,-0.00005615,-0.00000885,0.00151129,-0.00306910,-0.00043807,-0
 .12992044,0.25373236,0.00073209,-0.00065825,0.00010915,0.00272970,-0.0
 0336207,-0.00241975,0.01838669,-0.02834659,-0.05310414,-0.00088897,-0.
 00058074,-0.00008105,-0.00029209,0.00086669,0.00010959,-0.00001681,0.0
 0025613,-0.00002221,-0.00053133,-0.00006720,-0.00002707,0.00010923,-0.
 00008042,-0.00008545,-0.01417565,0.02329156,0.00447630,-0.02002750,0.0
 3190087,0.05275252,0.00043909,0.00053995,0.00143220,-0.01284436,-0.001
 09931,0.01631014,-0.14114007,-0.01848635,0.12508758,0.00047223,0.00123
 418,-0.00005159,-0.00211876,-0.00388528,-0.00199159,0.00035352,0.00011
 376,-0.00024761,-0.00010528,-0.00001097,0.00003328,-0.00018797,-0.0002
 4811,-0.00092930,0.01283225,0.00238787,-0.01581304,-0.01036766,-0.0030
 2964,0.01374227,0.15220120,0.00086590,0.00066350,0.00100699,-0.0148353
 0,-0.00363577,0.02171177,-0.01815835,-0.05184655,0.02553545,-0.0006572
 7,0.00128195,0.00128008,-0.00286874,-0.00445173,-0.00165432,0.00033156
 ,-0.00005536,0.00004280,0.00003605,-0.00005158,-0.00019876,0.00001147,
 0.00027649,-0.00058586,-0.00274278,-0.00156659,0.00354012,0.01559121,0
 .00453909,-0.02300412,0.02321282,0.05487426,-0.00065722,-0.00030212,0.
 00097005,-0.00295723,-0.00074638,0.00215255,0.12534520,0.02592522,-0.2
 1858961,-0.00036520,-0.00008270,0.00027638,-0.00059414,-0.00002017,0.0
 0096338,0.00006425,0.00012238,0.00021356,0.00000451,0.00013434,-0.0000
 6156,0.00020629,-0.00014807,0.00027088,0.01634290,0.00237943,-0.019804
 97,0.00086859,0.00039141,-0.00277977,-0.13807876,-0.02784479,0.2354954
 3,-0.00166220,0.00361227,0.00186381,-0.01140538,0.00162043,-0.01497873
 ,0.00039816,-0.00114997,0.00012637,-0.13611598,0.02377213,-0.12235672,
 0.00030734,-0.00049272,-0.00131877,0.00033928,-0.00006197,0.00033166,-
 0.00046695,0.00058310,-0.00119522,0.00018003,0.00001375,-0.00020668,0.
 00055189,0.00030265,0.00015355,-0.00003331,-0.00009599,0.00024922,-0.0
 0002560,0.00006443,0.00016381,0.14608334,0.00266145,-0.00480889,-0.001
 72333,0.01492382,-0.00464323,0.02267982,0.00078832,0.00136358,0.001343
 47,0.02359310,-0.05431866,0.03366344,-0.00079621,0.00071263,0.00107132
 ,0.00024637,0.00019927,-0.00002369,0.00136413,-0.00011507,0.00138249,-
 0.00022043,-0.00001373,-0.00022879,-0.00029057,-0.00057049,-0.00059817
 ,-0.00016250,0.00035079,-0.00024715,-0.00006759,-0.00007476,0.00003932
 ,-0.02901754,0.05815711,0.00055496,-0.00000836,0.00098305,0.00287222,-
 0.00083878,0.00201663,0.00035233,-0.00011104,0.00026747,-0.12274055,0.
 03398943,-0.22022026,0.00055412,-0.00031885,0.00097947,0.00012250,-0.0
 0012927,-0.00003890,-0.00015232,0.00000146,0.00038649,0.00009834,-0.00
 025582,0.00033179,0.00009519,0.00037831,0.00022672,0.00018942,0.000132
 96,0.00018929,-0.00015119,0.00000393,-0.00011799,0.13507053,-0.0367904
 1,0.23735273,0.00116585,0.00042595,0.00057591,0.01003883,0.01457086,0.
 00247693,-0.00155273,0.00287995,0.00043913,-0.14207246,-0.12612491,-0.
 02097485,0.00123958,0.00053700,-0.00041752,-0.00005573,-0.00019770,-0.
 00000530,0.00018770,-0.00016679,0.00017632,-0.00009056,-0.00010635,-0.
 00012281,-0.00002145,0.00012030,0.00022566,0.00089191,0.00088865,0.000
 14736,-0.00002031,0.00018047,-0.00018151,-0.01097568,-0.01447660,-0.00
 076545,0.15265638,-0.00156242,0.00073545,-0.00061545,-0.01747059,-0.02
 187621,-0.00338731,0.00524149,-0.00394664,-0.00058006,-0.12552316,-0.2
 1627381,-0.02766518,-0.00133930,0.00074210,0.00080104,0.00088215,0.000
 19598,0.00060573,0.00020754,0.00044837,-0.00009498,0.00008534,-0.00008
 123,0.00000303,0.00002806,0.00028622,-0.00011093,-0.00104904,-0.001701
 89,-0.00038988,0.00012228,0.00033855,0.00015162,0.00398070,0.00520916,
 0.00048838,0.13630357,0.23725446,0.00036395,0.00081674,0.00011762,-0.0
 0260970,-0.00308869,-0.00243929,0.00081295,-0.00061021,-0.00006830,-0.
 02079853,-0.02758089,-0.05339221,-0.00081044,-0.00062229,0.00009774,-0
 .00023543,0.00018940,0.00021738,0.00003668,-0.00010380,-0.00013191,0.0
 0014020,0.00007139,-0.00005251,0.00028503,0.00026915,0.00023275,-0.000
 16094,-0.00036406,0.00059055,-0.00026162,-0.00023113,0.00018128,-0.015
 26945,-0.02228339,-0.00285612,0.02249500,0.03119481,0.05308817,0.00037
 886,-0.00094873,0.00111390,-0.01167776,-0.00327619,0.01446161,0.000433
 52,-0.00100732,-0.00047996,-0.14067618,-0.01544525,0.12505514,-0.00167
 063,0.00411587,-0.00068123,-0.00011922,-0.00000339,0.00005191,0.000326
 63,-0.00005069,-0.00027848,-0.00009293,0.00053754,-0.00081809,-0.00002
 738,0.00010727,-0.00012706,-0.00003073,-0.00001513,-0.00027191,0.00059
 351,0.00034955,-0.00006255,0.01279791,0.00177993,-0.01593107,-0.011348
 93,-0.00095936,0.01558070,0.15110399,-0.00058882,0.00098597,-0.0011107
 1,0.01560759,0.00251702,-0.02242377,0.00083212,0.00153024,-0.00089630,
 -0.01607922,-0.04993611,0.02134741,0.00273211,-0.00486203,-0.00009742,
 -0.00000714,-0.00007420,0.00019300,-0.00034955,0.00003924,-0.00007574,
 -0.00000580,0.00000853,0.00060387,-0.00011277,-0.00007473,0.00000616,-
 0.00009595,0.00029995,0.00028728,-0.00026412,-0.00047750,0.00037362,-0
 .00329395,-0.00159466,0.00337231,-0.01440137,-0.00206155,0.02221205,0.
 01465074,0.05334846,-0.00085394,0.00032047,0.00072678,0.00186554,0.001
 03504,-0.00481579,-0.00010067,0.00048778,-0.00000796,0.12516451,0.0208
 0554,-0.21942494,0.00023250,-0.00180969,0.00094333,-0.00003545,-0.0001
 3439,-0.00003821,-0.00005306,-0.00018285,0.00013973,0.00014099,0.00011
 845,0.00039085,0.00012698,-0.00001152,-0.00011492,-0.00022969,-0.00009
 512,0.00022740,-0.00020750,-0.00064090,0.00015507,0.01625322,0.0025395
 4,-0.01980997,-0.00386858,-0.00014182,0.00445918,-0.13879961,-0.022567
 66,0.23675274,-0.00186240,-0.00042209,0.00296450,0.01030463,-0.0027964
 1,0.01564768,0.00125506,0.00037703,0.00065182,0.00121318,-0.00061426,0
 .00035289,-0.13140782,0.02196134,-0.12203336,-0.00001207,0.00018678,0.
 00018328,-0.00003639,-0.00021561,0.00010430,0.00087662,-0.00016025,0.0
 0096583,-0.00020882,-0.00001485,-0.00013124,-0.00009029,-0.00009406,-0
 .00013368,0.00019448,0.00022412,-0.00011768,-0.00019663,0.00006195,-0.
 00012662,-0.00009250,0.00012190,-0.00011797,0.00018460,-0.00019900,-0.
 00017310,0.14104023,-0.00078511,-0.00003962,0.00050964,0.00224037,-0.0
 0230251,0.00273107,0.00076861,0.00008367,0.00059538,-0.00037761,0.0001
 5778,-0.00082635,0.02198155,-0.05421003,0.03172207,0.00025934,0.000170
 49,0.00023332,-0.00026455,0.00024749,-0.00028051,0.00013868,0.00059207
 ,0.00033969,-0.00055296,0.00000735,0.00014189,0.00010520,-0.00009244,0
 .00008757,-0.00002081,-0.00002313,-0.00024605,0.00028709,0.00022271,-0
 .00017187,-0.00013866,-0.00005893,-0.00006878,-0.00004905,-0.00012774,
 0.00010555,-0.02388607,0.05382380,0.00529489,0.00043811,-0.00370307,-0
 .01658432,0.00359982,-0.02176676,-0.00137108,-0.00074090,0.00074111,-0
 .00152509,0.00064389,0.00068150,-0.12130495,0.03173958,-0.22469761,0.0
 0009824,-0.00013556,0.00034098,0.00001620,0.00009781,0.00028737,-0.000
 91702,0.00039531,-0.00166221,0.00086722,0.00057015,0.00034116,0.000127
 97,0.00000312,-0.00005269,0.00017629,-0.00025584,0.00032195,0.00089188
 ,-0.00064735,0.00017210,0.00008726,-0.00001175,-0.00007421,0.00018700,
 0.00009054,0.00044264,0.13170049,-0.03560435,0.24625068,0.00043445,0.0
 0045430,-0.00110721,-0.01285668,-0.01508624,-0.00347133,-0.00188227,0.
 00075376,0.00420796,0.00040613,-0.00111555,-0.00092495,-0.14677597,-0.
 12682320,-0.01978473,0.00063411,0.00007690,0.00031243,-0.00002585,0.00
 011723,0.00011602,-0.00000848,0.00028135,-0.00001836,0.00034739,0.0003
 3834,0.00004363,0.00019451,-0.00017427,-0.00004104,-0.00061511,-0.0013
 5804,0.00014272,-0.00009873,-0.00003296,0.00000952,-0.00014692,0.00073
 163,0.00051830,0.00033907,0.00027038,-0.00003268,-0.01093739,-0.014326
 61,-0.00118307,0.15818248,0.00007767,0.00000708,-0.00048487,-0.0015538
 2,-0.00439660,-0.00088540,-0.00024765,0.00092035,0.00167776,0.00090303
 ,0.00076369,-0.00029407,-0.12715671,-0.21317377,-0.02461881,0.00019200
 ,0.00021014,0.00054904,-0.00012351,-0.00013953,0.00000491,0.00023663,0
 .00021416,0.00010590,0.00003026,0.00001667,-0.00017867,0.00018340,0.00
 044095,-0.00009710,-0.00055477,0.00000163,-0.00000788,0.00001330,-0.00
 004839,0.00013559,-0.00018714,0.00046194,-0.00005360,0.00004240,0.0001
 2854,0.00018416,0.00437055,0.00482666,0.00035431,0.14076710,0.22960253
 ,0.00085104,0.00086405,0.00157536,0.01561140,0.02123300,0.00273709,0.0
 0281812,0.00005438,-0.00451340,-0.00054185,0.00108654,0.00087926,-0.01
 986964,-0.02484160,-0.05190316,-0.00036147,-0.00041810,-0.00051802,-0.
 00012476,-0.00000286,-0.00005542,-0.00012134,-0.00026497,0.00028974,0.
 00026875,-0.00009625,0.00013002,-0.00018588,-0.00009675,-0.00013748,0.
 00129074,0.00131394,0.00039828,-0.00003137,-0.00019753,-0.00006578,-0.
 00006425,-0.00049634,0.00005007,-0.00032911,0.00009823,0.00002606,-0.0
 1530737,-0.02240273,-0.00249218,0.01893262,0.02687858,0.05519193,0.000
 42296,-0.00007809,-0.00118251,-0.01177948,0.01605211,0.00134397,0.0005
 0178,0.00143313,-0.00056460,-0.00200974,-0.00187824,0.00377865,-0.1314
 0650,0.12163210,0.01965659,-0.00002891,-0.00014872,0.00007440,0.000576
 21,-0.00019718,0.00028702,-0.00003726,-0.00025164,-0.00011652,-0.00010
 810,0.00002232,0.00002378,-0.00024523,-0.00087644,0.00028242,0.0003388
 3,-0.00024711,-0.00012401,0.00032253,-0.00035467,-0.00005193,0.0001970
 2,0.00019922,0.00003126,-0.00051434,0.00130475,0.00057052,-0.01022450,
 0.01462059,0.00343808,0.01280926,-0.01699275,-0.00283563,0.14118547,-0
 .00034420,0.00029285,0.00008131,-0.00257521,0.00153667,0.00074058,-0.0
 0062382,0.00098821,0.00033129,-0.00047819,0.00103480,-0.00009163,0.122
 07943,-0.22740706,-0.02997241,0.00014995,-0.00011445,-0.00003195,-0.00
 010737,0.00021044,-0.00038500,-0.00017901,0.00020095,-0.00013752,-0.00
 002353,-0.00006810,-0.00012790,0.00013360,0.00017892,0.00014342,0.0000
 5606,0.00020750,-0.00011918,-0.00013772,-0.00002736,0.00012203,-0.0001
 0724,0.00032804,0.00025330,0.00017182,0.00035055,-0.00001258,0.0010989
 3,-0.00327764,-0.00053688,0.01512587,-0.01983608,-0.00271159,-0.134239
 37,0.24540176,0.00068007,-0.00134636,0.00131776,0.01400673,-0.02252927
 ,-0.00385072,-0.00088167,-0.00103728,0.00066152,0.00287109,0.00161435,
 -0.00461822,0.01955618,-0.02954149,-0.05315856,-0.00008099,0.00000674,
 -0.00008912,-0.00031742,0.00063508,-0.00048062,-0.00016830,0.00024126,
 0.00034507,-0.00001445,0.00019855,-0.00004805,0.00009176,0.00060187,0.
 00025483,-0.00034031,-0.00001936,-0.00004490,0.00025289,0.00002040,0.0
 0020329,-0.00022331,0.00024908,-0.00002018,0.00132881,-0.00141287,-0.0
 0005199,-0.01442979,0.02313445,0.00486926,0.00228019,-0.00326986,-0.00
 159238,-0.02461149,0.03245472,0.05630300\\0.00004269,-0.00000058,0.000
 00020,-0.00007200,-0.00008915,-0.00001223,0.00009589,0.00008045,-0.000
 00993,-0.00002139,-0.00007442,-0.00000799,0.00002982,0.00002291,0.0001
 1861,0.00002520,-0.00000664,-0.00000979,-0.00001906,-0.00000033,-0.000
 07010,-0.00000809,0.00003836,-0.00001130,-0.00001821,-0.00000297,0.000
 03300,-0.00005415,-0.00001614,0.00001078,-0.00002403,0.00000472,0.0000
 1479,-0.00002438,0.00003382,0.00001989,0.00006131,0.00002074,-0.000008
 19,0.00002116,0.00003431,-0.00001036,-0.00005550,-0.00001291,0.0000198
 4,0.00003143,-0.00002762,-0.00005199,-0.00001067,-0.00000454,-0.000025
 24\\\@


 RESEARCH IS WHAT I AM DOING WHEN I DON'T KNOW WHAT I AM DOING.
     -- WERNER VON BRAUN
 Job cpu time:       0 days  0 hours  3 minutes 27.4 seconds.
 File lengths (MBytes):  RWF=    132 Int=      0 D2E=      0 Chk=      3 Scr=      2
 Normal termination of Gaussian 09 at Tue Mar 18 10:18:49 2025.
