 Entering Gaussian System, Link 0=g09
 Initial command:
 /apps/z_install_tree/linux-rocky8-ivybridge/gcc-12.2.0/gaussian-09-D.01-wczn3gur5lpur3omlkzwa2l5ecyxp5ef/g09/l1.exe "/srv/scratch/z5358697/gauss/Gau-4053262.inp" -scrdir="/srv/scratch/z5358697/gauss/"
 Entering Link 1 = /apps/z_install_tree/linux-rocky8-ivybridge/gcc-12.2.0/gaussian-09-D.01-wczn3gur5lpur3omlkzwa2l5ecyxp5ef/g09/l1.exe PID=   4053264.
  
 Copyright (c) 1988,1990,1992,1993,1995,1998,2003,2009,2013,
            Gaussian, Inc.  All Rights Reserved.
  
 This is part of the Gaussian(R) 09 program.  It is based on
 the Gaussian(R) 03 system (copyright 2003, Gaussian, Inc.),
 the Gaussian(R) 98 system (copyright 1998, Gaussian, Inc.),
 the Gaussian(R) 94 system (copyright 1995, Gaussian, Inc.),
 the Gaussian 92(TM) system (copyright 1992, Gaussian, Inc.),
 the Gaussian 90(TM) system (copyright 1990, Gaussian, Inc.),
 the Gaussian 88(TM) system (copyright 1988, Gaussian, Inc.),
 the Gaussian 86(TM) system (copyright 1986, Carnegie Mellon
 University), and the Gaussian 82(TM) system (copyright 1983,
 Carnegie Mellon University). Gaussian is a federally registered
 trademark of Gaussian, Inc.
  
 This software contains proprietary and confidential information,
 including trade secrets, belonging to Gaussian, Inc.
  
 This software is provided under written license and may be
 used, copied, transmitted, or stored only in accord with that
 written license.
  
 The following legend is applicable only to US Government
 contracts under FAR:
  
                    RESTRICTED RIGHTS LEGEND
  
 Use, reproduction and disclosure by the US Government is
 subject to restrictions as set forth in subparagraphs (a)
 and (c) of the Commercial Computer Software - Restricted
 Rights clause in FAR 52.227-19.
  
 Gaussian, Inc.
 340 Quinnipiac St., Bldg. 40, Wallingford CT 06492
  
  
 ---------------------------------------------------------------
 Warning -- This program may not be used in any manner that
 competes with the business of Gaussian, Inc. or will provide
 assistance to any competitor of Gaussian, Inc.  The licensee
 of this program is prohibited from giving any competitor of
 Gaussian, Inc. access to this program.  By using this program,
 the user acknowledges that Gaussian, Inc. is engaged in the
 business of creating and licensing software in the field of
 computational chemistry and represents and warrants to the
 licensee that it is not a competitor of Gaussian, Inc. and that
 it will not use this program in any manner prohibited above.
 ---------------------------------------------------------------
  

 Cite this work as:
 Gaussian 09, Revision D.01,
 M. J. Frisch, G. W. Trucks, H. B. Schlegel, G. E. Scuseria, 
 M. A. Robb, J. R. Cheeseman, G. Scalmani, V. Barone, B. Mennucci, 
 G. A. Petersson, H. Nakatsuji, M. Caricato, X. Li, H. P. Hratchian, 
 A. F. Izmaylov, J. Bloino, G. Zheng, J. L. Sonnenberg, M. Hada, 
 M. Ehara, K. Toyota, R. Fukuda, J. Hasegawa, M. Ishida, T. Nakajima, 
 Y. Honda, O. Kitao, H. Nakai, T. Vreven, J. A. Montgomery, Jr., 
 J. E. Peralta, F. Ogliaro, M. Bearpark, J. J. Heyd, E. Brothers, 
 K. N. Kudin, V. N. Staroverov, T. Keith, R. Kobayashi, J. Normand, 
 K. Raghavachari, A. Rendell, J. C. Burant, S. S. Iyengar, J. Tomasi, 
 M. Cossi, N. Rega, J. M. Millam, M. Klene, J. E. Knox, J. B. Cross, 
 V. Bakken, C. Adamo, J. Jaramillo, R. Gomperts, R. E. Stratmann, 
 O. Yazyev, A. J. Austin, R. Cammi, C. Pomelli, J. W. Ochterski, 
 R. L. Martin, K. Morokuma, V. G. Zakrzewski, G. A. Voth, 
 P. Salvador, J. J. Dannenberg, S. Dapprich, A. D. Daniels, 
 O. Farkas, J. B. Foresman, J. V. Ortiz, J. Cioslowski, 
 and D. J. Fox, Gaussian, Inc., Wallingford CT, 2013.
 
 ******************************************
 Gaussian 09:  ES64L-G09RevD.01 24-Apr-2013
                17-Mar-2025 
 ******************************************
 ---------------------------------
 #m062X/6-31+G(d) OPT Freq=noraman
 ---------------------------------
 1/14=-1,18=20,19=15,26=3,38=1/1,3;
 2/9=110,12=2,17=6,18=5,40=1/2;
 3/5=1,6=6,7=11,11=2,16=1,25=1,30=1,71=1,74=-55/1,2,3;
 4//1;
 5/5=2,38=5/2;
 6/7=2,8=2,9=2,10=2,28=1/1;
 7//1,2,3,16;
 1/14=-1,18=20,19=15,26=3/3(2);
 2/9=110/2;
 99//99;
 2/9=110/2;
 3/5=1,6=6,7=11,11=2,16=1,25=1,30=1,71=1,74=-55/1,2,3;
 4/5=5,16=3,69=1/1;
 5/5=2,38=5/2;
 7//1,2,3,16;
 1/14=-1,18=20,19=15,26=3/3(-5);
 2/9=110/2;
 6/7=2,8=2,9=2,10=2,19=2,28=1/1;
 99/9=1/99;
 ----------
 morpholine
 ----------
 Symbolic Z-matrix:
 Charge =  0 Multiplicity = 1
 C                     0.2626   -1.3894   -0.0634 
 C                     1.2055   -0.3403   -0.6416 
 O                     1.0983    0.8808    0.0925 
 C                    -0.2374    1.3863    0.0488 
 C                    -1.2071    0.3696    0.6399 
 N                    -1.122    -0.9071   -0.0762 
 H                     0.5532   -1.6269    0.9672 
 H                     0.3306   -2.3116   -0.6495 
 H                     2.2415   -0.6854   -0.5648 
 H                     0.9963   -0.1487   -1.701 
 H                    -0.2629    2.3114    0.6333 
 H                    -0.498     1.6393   -0.9861 
 H                    -0.9783    0.2057    1.7 
 H                    -2.2304    0.7532    0.5766 
 H                    -1.7253   -1.5926    0.3771 
 

 GradGradGradGradGradGradGradGradGradGradGradGradGradGradGradGradGradGrad
 Berny optimization.
 Initialization pass.
                           ----------------------------
                           !    Initial Parameters    !
                           ! (Angstroms and Degrees)  !
 --------------------------                            --------------------------
 ! Name  Definition              Value          Derivative Info.                !
 --------------------------------------------------------------------------------
 ! R1    R(1,2)                  1.5245         estimate D2E/DX2                !
 ! R2    R(1,6)                  1.4663         estimate D2E/DX2                !
 ! R3    R(1,7)                  1.0968         estimate D2E/DX2                !
 ! R4    R(1,8)                  1.0948         estimate D2E/DX2                !
 ! R5    R(2,3)                  1.4288         estimate D2E/DX2                !
 ! R6    R(2,9)                  1.0947         estimate D2E/DX2                !
 ! R7    R(2,10)                 1.0967         estimate D2E/DX2                !
 ! R8    R(3,4)                  1.4288         estimate D2E/DX2                !
 ! R9    R(4,5)                  1.5243         estimate D2E/DX2                !
 ! R10   R(4,11)                 1.0946         estimate D2E/DX2                !
 ! R11   R(4,12)                 1.0968         estimate D2E/DX2                !
 ! R12   R(5,6)                  1.4663         estimate D2E/DX2                !
 ! R13   R(5,13)                 1.0968         estimate D2E/DX2                !
 ! R14   R(5,14)                 1.0947         estimate D2E/DX2                !
 ! R15   R(6,15)                 1.0195         estimate D2E/DX2                !
 ! A1    A(2,1,6)              110.7563         estimate D2E/DX2                !
 ! A2    A(2,1,7)              109.9699         estimate D2E/DX2                !
 ! A3    A(2,1,8)              109.7683         estimate D2E/DX2                !
 ! A4    A(6,1,7)              109.246          estimate D2E/DX2                !
 ! A5    A(6,1,8)              109.3328         estimate D2E/DX2                !
 ! A6    A(7,1,8)              107.7086         estimate D2E/DX2                !
 ! A7    A(1,2,3)              110.2955         estimate D2E/DX2                !
 ! A8    A(1,2,9)              109.9868         estimate D2E/DX2                !
 ! A9    A(1,2,10)             111.6304         estimate D2E/DX2                !
 ! A10   A(3,2,9)              107.7214         estimate D2E/DX2                !
 ! A11   A(3,2,10)             109.4318         estimate D2E/DX2                !
 ! A12   A(9,2,10)             107.6604         estimate D2E/DX2                !
 ! A13   A(2,3,4)              110.9027         estimate D2E/DX2                !
 ! A14   A(3,4,5)              110.2961         estimate D2E/DX2                !
 ! A15   A(3,4,11)             107.7254         estimate D2E/DX2                !
 ! A16   A(3,4,12)             109.4258         estimate D2E/DX2                !
 ! A17   A(5,4,11)             109.9886         estimate D2E/DX2                !
 ! A18   A(5,4,12)             111.6303         estimate D2E/DX2                !
 ! A19   A(11,4,12)            107.6602         estimate D2E/DX2                !
 ! A20   A(4,5,6)              110.76           estimate D2E/DX2                !
 ! A21   A(4,5,13)             109.9849         estimate D2E/DX2                !
 ! A22   A(4,5,14)             109.7877         estimate D2E/DX2                !
 ! A23   A(6,5,13)             109.257          estimate D2E/DX2                !
 ! A24   A(6,5,14)             109.3373         estimate D2E/DX2                !
 ! A25   A(13,5,14)            107.6533         estimate D2E/DX2                !
 ! A26   A(1,6,5)              109.6909         estimate D2E/DX2                !
 ! A27   A(1,6,15)             109.497          estimate D2E/DX2                !
 ! A28   A(5,6,15)             109.5094         estimate D2E/DX2                !
 ! D1    D(6,1,2,3)             57.564          estimate D2E/DX2                !
 ! D2    D(6,1,2,9)            176.2393         estimate D2E/DX2                !
 ! D3    D(6,1,2,10)           -64.3216         estimate D2E/DX2                !
 ! D4    D(7,1,2,3)            -63.2846         estimate D2E/DX2                !
 ! D5    D(7,1,2,9)             55.3907         estimate D2E/DX2                !
 ! D6    D(7,1,2,10)           174.8298         estimate D2E/DX2                !
 ! D7    D(8,1,2,3)            178.3887         estimate D2E/DX2                !
 ! D8    D(8,1,2,9)            -62.9361         estimate D2E/DX2                !
 ! D9    D(8,1,2,10)            56.503          estimate D2E/DX2                !
 ! D10   D(2,1,6,5)            -55.5942         estimate D2E/DX2                !
 ! D11   D(2,1,6,15)          -175.7921         estimate D2E/DX2                !
 ! D12   D(7,1,6,5)             65.6825         estimate D2E/DX2                !
 ! D13   D(7,1,6,15)           -54.5153         estimate D2E/DX2                !
 ! D14   D(8,1,6,5)           -176.6767         estimate D2E/DX2                !
 ! D15   D(8,1,6,15)            63.1254         estimate D2E/DX2                !
 ! D16   D(1,2,3,4)            -59.3339         estimate D2E/DX2                !
 ! D17   D(9,2,3,4)           -179.3842         estimate D2E/DX2                !
 ! D18   D(10,2,3,4)            63.8428         estimate D2E/DX2                !
 ! D19   D(2,3,4,5)             59.3381         estimate D2E/DX2                !
 ! D20   D(2,3,4,11)           179.3933         estimate D2E/DX2                !
 ! D21   D(2,3,4,12)           -63.8348         estimate D2E/DX2                !
 ! D22   D(3,4,5,6)            -57.5704         estimate D2E/DX2                !
 ! D23   D(3,4,5,13)            63.3043         estimate D2E/DX2                !
 ! D24   D(3,4,5,14)          -178.4158         estimate D2E/DX2                !
 ! D25   D(11,4,5,6)          -176.252          estimate D2E/DX2                !
 ! D26   D(11,4,5,13)          -55.3773         estimate D2E/DX2                !
 ! D27   D(11,4,5,14)           62.9026         estimate D2E/DX2                !
 ! D28   D(12,4,5,6)            64.308          estimate D2E/DX2                !
 ! D29   D(12,4,5,13)         -174.8173         estimate D2E/DX2                !
 ! D30   D(12,4,5,14)          -56.5374         estimate D2E/DX2                !
 ! D31   D(4,5,6,1)             55.6001         estimate D2E/DX2                !
 ! D32   D(4,5,6,15)           175.7904         estimate D2E/DX2                !
 ! D33   D(13,5,6,1)           -65.7049         estimate D2E/DX2                !
 ! D34   D(13,5,6,15)           54.4854         estimate D2E/DX2                !
 ! D35   D(14,5,6,1)           176.7121         estimate D2E/DX2                !
 ! D36   D(14,5,6,15)          -63.0976         estimate D2E/DX2                !
 --------------------------------------------------------------------------------
 Trust Radius=3.00D-01 FncErr=1.00D-07 GrdErr=1.00D-06
 Number of steps in this run=     89 maximum allowed number of steps=    100.
 GradGradGradGradGradGradGradGradGradGradGradGradGradGradGradGradGradGrad

                          Input orientation:                          
 ---------------------------------------------------------------------
 Center     Atomic      Atomic             Coordinates (Angstroms)
 Number     Number       Type             X           Y           Z
 ---------------------------------------------------------------------
      1          6           0        0.262600   -1.389400   -0.063400
      2          6           0        1.205500   -0.340300   -0.641600
      3          8           0        1.098300    0.880800    0.092500
      4          6           0       -0.237400    1.386300    0.048800
      5          6           0       -1.207100    0.369600    0.639900
      6          7           0       -1.122000   -0.907100   -0.076200
      7          1           0        0.553200   -1.626900    0.967200
      8          1           0        0.330600   -2.311600   -0.649500
      9          1           0        2.241500   -0.685400   -0.564800
     10          1           0        0.996300   -0.148700   -1.701000
     11          1           0       -0.262900    2.311400    0.633300
     12          1           0       -0.498000    1.639300   -0.986100
     13          1           0       -0.978300    0.205700    1.700000
     14          1           0       -2.230400    0.753200    0.576600
     15          1           0       -1.725300   -1.592600    0.377100
 ---------------------------------------------------------------------
                    Distance matrix (angstroms):
                    1          2          3          4          5
     1  C    0.000000
     2  C    1.524463   0.000000
     3  O    2.424151   1.428804   0.000000
     4  C    2.822605   2.353670   1.428823   0.000000
     5  C    2.397651   2.822559   2.424013   1.524269   0.000000
     6  N    1.466252   2.461340   2.855657   2.461265   1.466289
     7  H    1.096809   2.160804   2.711235   3.247750   2.681752
     8  H    1.094801   2.156742   3.366206   3.805879   3.349016
     9  H    2.159413   1.094664   2.047421   3.288372   3.802258
    10  H    2.181602   1.096724   2.070487   2.634396   3.256289
    11  H    3.802297   3.288325   2.047424   1.094578   2.159200
    12  H    3.256211   2.634276   2.070477   1.096786   2.181476
    13  H    2.682118   3.248105   2.711473   2.160836   1.096825
    14  H    3.348938   3.805938   3.366137   2.156719   1.094668
    15  H    2.046235   3.345982   3.764495   3.345964   2.046417
                    6          7          8          9         10
     6  N    0.000000
     7  H    2.100736   0.000000
     8  H    2.100319   1.769769   0.000000
     9  H    3.406026   2.466537   2.510625   0.000000
    10  H    2.775309   3.082321   2.495385   1.769045   0.000000
    11  H    3.405904   4.035804   4.834247   4.085128   3.617545
    12  H    2.775148   3.948223   4.050863   3.617538   2.437408
    13  H    2.100919   2.498182   3.683771   4.036148   3.948600
    14  H    2.100308   3.683188   4.177923   4.834279   4.051232
    15  H    1.019491   2.353924   2.407819   4.176804   3.716242
                   11         12         13         14         15
    11  H    0.000000
    12  H    1.769024   0.000000
    13  H    2.466499   3.082374   0.000000
    14  H    2.510430   2.495679   1.769050   0.000000
    15  H    4.176777   3.716148   2.354136   2.407842   0.000000
 Stoichiometry    C4H9NO
 Framework group  C1[X(C4H9NO)]
 Deg. of freedom    39
 Full point group                 C1      NOp   1
 Largest Abelian subgroup         C1      NOp   1
 Largest concise Abelian subgroup C1      NOp   1
                         Standard orientation:                         
 ---------------------------------------------------------------------
 Center     Atomic      Atomic             Coordinates (Angstroms)
 Number     Number       Type             X           Y           Z
 ---------------------------------------------------------------------
      1          6           0        1.197760    0.713312   -0.179375
      2          6           0        1.177996   -0.763160    0.199609
      3          8           0        0.002079   -1.391107   -0.314573
      4          6           0       -1.175671   -0.766632    0.199694
      5          6           0       -1.199888    0.709565   -0.179321
      6          7           0       -0.002096    1.393584    0.318089
      7          1           0        1.247634    0.819493   -1.269893
      8          1           0        2.087182    1.192102    0.242855
      9          1           0        2.044475   -1.272421   -0.234160
     10          1           0        1.220191   -0.902106    1.286677
     11          1           0       -2.040649   -1.278473   -0.233818
     12          1           0       -1.217215   -0.905646    1.286841
     13          1           0       -1.250545    0.815822   -1.269811
     14          1           0       -2.090736    1.185872    0.242366
     15          1           0       -0.003481    2.360612   -0.004737
 ---------------------------------------------------------------------
 Rotational constants (GHZ):      4.9304356      4.5704305      2.6567648
 Standard basis: 6-31+G(d) (6D, 7F)
 There are   132 symmetry adapted cartesian basis functions of A   symmetry.
 There are   132 symmetry adapted basis functions of A   symmetry.
   132 basis functions,   228 primitive gaussians,   132 cartesian basis functions
    24 alpha electrons       24 beta electrons
       nuclear repulsion energy       262.5995343528 Hartrees.
 NAtoms=   15 NActive=   15 NUniq=   15 SFac= 1.00D+00 NAtFMM=   60 NAOKFM=F Big=F
 Integral buffers will be    131072 words long.
 Raffenetti 2 integral format.
 Two-electron integral symmetry is turned on.
 One-electron integrals computed using PRISM.
 NBasis=   132 RedAO= T EigKep=  4.38D-05  NBF=   132
 NBsUse=   132 1.00D-06 EigRej= -1.00D+00 NBFU=   132
 ExpMin= 4.38D-02 ExpMax= 5.48D+03 ExpMxC= 8.25D+02 IAcc=2 IRadAn=         4 AccDes= 0.00D+00
 Harris functional with IExCor= 1009 and IRadAn=       4 diagonalized for initial guess.
 HarFok:  IExCor= 1009 AccDes= 0.00D+00 IRadAn=         4 IDoV= 1 UseB2=F ITyADJ=14
 ICtDFT=  3500011 ScaDFX=  1.000000  1.000000  1.000000  1.000000
 FoFCou: FMM=F IPFlag=           0 FMFlag=      100000 FMFlg1=           0
         NFxFlg=           0 DoJE=T BraDBF=F KetDBF=T FulRan=T
         wScrn=  0.000000 ICntrl=     500 IOpCl=  0 I1Cent=   200000004 NGrid=           0
         NMat0=    1 NMatS0=      1 NMatT0=    0 NMatD0=    1 NMtDS0=    0 NMtDT0=    0
 Petite list used in FoFCou.
 Requested convergence on RMS density matrix=1.00D-08 within 128 cycles.
 Requested convergence on MAX density matrix=1.00D-06.
 Requested convergence on             energy=1.00D-06.
 No special actions if energy rises.
 SCF Done:  E(RM062X) =  -287.669924784     A.U. after   12 cycles
            NFock= 12  Conv=0.32D-08     -V/T= 2.0088

 **********************************************************************

            Population analysis using the SCF density.

 **********************************************************************

 Orbital symmetries:
       Occupied  (A) (A) (A) (A) (A) (A) (A) (A) (A) (A) (A) (A)
                 (A) (A) (A) (A) (A) (A) (A) (A) (A) (A) (A) (A)
       Virtual   (A) (A) (A) (A) (A) (A) (A) (A) (A) (A) (A) (A)
                 (A) (A) (A) (A) (A) (A) (A) (A) (A) (A) (A) (A)
                 (A) (A) (A) (A) (A) (A) (A) (A) (A) (A) (A) (A)
                 (A) (A) (A) (A) (A) (A) (A) (A) (A) (A) (A) (A)
                 (A) (A) (A) (A) (A) (A) (A) (A) (A) (A) (A) (A)
                 (A) (A) (A) (A) (A) (A) (A) (A) (A) (A) (A) (A)
                 (A) (A) (A) (A) (A) (A) (A) (A) (A) (A) (A) (A)
                 (A) (A) (A) (A) (A) (A) (A) (A) (A) (A) (A) (A)
                 (A) (A) (A) (A) (A) (A) (A) (A) (A) (A) (A) (A)
 The electronic state is 1-A.
 Alpha  occ. eigenvalues --  -19.64568 -14.75320 -10.59343 -10.59341 -10.57175
 Alpha  occ. eigenvalues --  -10.57173  -1.15608  -1.01395  -0.86997  -0.77865
 Alpha  occ. eigenvalues --   -0.73793  -0.65389  -0.59969  -0.54489  -0.53764
 Alpha  occ. eigenvalues --   -0.51402  -0.50880  -0.48869  -0.45864  -0.42551
 Alpha  occ. eigenvalues --   -0.41221  -0.37281  -0.32809  -0.29279
 Alpha virt. eigenvalues --    0.01574   0.03437   0.03646   0.04758   0.05304
 Alpha virt. eigenvalues --    0.05938   0.07420   0.07775   0.09375   0.09729
 Alpha virt. eigenvalues --    0.09908   0.11677   0.13516   0.13761   0.15107
 Alpha virt. eigenvalues --    0.17843   0.18570   0.18603   0.20694   0.21561
 Alpha virt. eigenvalues --    0.24030   0.25620   0.25984   0.27468   0.28910
 Alpha virt. eigenvalues --    0.29422   0.29904   0.31626   0.31861   0.32567
 Alpha virt. eigenvalues --    0.33076   0.34300   0.35707   0.36321   0.38382
 Alpha virt. eigenvalues --    0.38630   0.39333   0.40763   0.44112   0.68750
 Alpha virt. eigenvalues --    0.70319   0.70390   0.70690   0.72784   0.73809
 Alpha virt. eigenvalues --    0.75166   0.80203   0.80532   0.85635   0.88507
 Alpha virt. eigenvalues --    0.99706   0.99803   1.02341   1.02630   1.05864
 Alpha virt. eigenvalues --    1.06529   1.09738   1.11758   1.12206   1.15516
 Alpha virt. eigenvalues --    1.16446   1.18849   1.22309   1.25584   1.32677
 Alpha virt. eigenvalues --    1.36954   1.42202   1.43901   1.45663   1.48678
 Alpha virt. eigenvalues --    1.52553   1.52833   1.67562   1.70798   1.73121
 Alpha virt. eigenvalues --    1.80088   1.82625   1.90791   1.94194   1.98241
 Alpha virt. eigenvalues --    2.04448   2.07077   2.12188   2.12786   2.15106
 Alpha virt. eigenvalues --    2.18843   2.20955   2.25067   2.32732   2.38470
 Alpha virt. eigenvalues --    2.43245   2.48305   2.49821   2.51881   2.51980
 Alpha virt. eigenvalues --    2.64284   2.73494   2.74467   2.78978   2.84715
 Alpha virt. eigenvalues --    2.86116   2.99224   4.09181   4.23270   4.30090
 Alpha virt. eigenvalues --    4.42321   4.55420   4.65836
          Condensed to atoms (all electrons):
               1          2          3          4          5          6
     1  C    5.795387  -0.101781  -0.062432   0.061592  -0.257533   0.210418
     2  C   -0.101781   5.586553   0.182155  -0.198706   0.061607  -0.049954
     3  O   -0.062432   0.182155   8.338409   0.182205  -0.062489  -0.027526
     4  C    0.061592  -0.198706   0.182205   5.586552  -0.101987  -0.049969
     5  C   -0.257533   0.061607  -0.062489  -0.101987   5.795768   0.210474
     6  N    0.210418  -0.049954  -0.027526  -0.049969   0.210474   7.259795
     7  H    0.472200  -0.093237   0.003473   0.000451  -0.001546  -0.112945
     8  H    0.385103  -0.028472   0.006397  -0.002968   0.012179  -0.047891
     9  H   -0.040880   0.402071  -0.052073   0.004647   0.002930   0.004708
    10  H   -0.084405   0.435038  -0.048012  -0.009274   0.000631   0.003598
    11  H    0.002929   0.004647  -0.052058   0.402056  -0.040875   0.004709
    12  H    0.000627  -0.009270  -0.048019   0.435099  -0.084451   0.003597
    13  H   -0.001574   0.000462   0.003465  -0.093240   0.472223  -0.112905
    14  H    0.012178  -0.002967   0.006399  -0.028446   0.385083  -0.047875
    15  H   -0.061923   0.024370  -0.000367   0.024360  -0.061888   0.319351
               7          8          9         10         11         12
     1  C    0.472200   0.385103  -0.040880  -0.084405   0.002929   0.000627
     2  C   -0.093237  -0.028472   0.402071   0.435038   0.004647  -0.009270
     3  O    0.003473   0.006397  -0.052073  -0.048012  -0.052058  -0.048019
     4  C    0.000451  -0.002968   0.004647  -0.009274   0.402056   0.435099
     5  C   -0.001546   0.012179   0.002930   0.000631  -0.040875  -0.084451
     6  N   -0.112945  -0.047891   0.004708   0.003598   0.004709   0.003597
     7  H    0.560333  -0.039229  -0.002609   0.004103   0.000031   0.000140
     8  H   -0.039229   0.516200  -0.000611  -0.001698   0.000016   0.000017
     9  H   -0.002609  -0.000611   0.508835  -0.033524  -0.000051  -0.000177
    10  H    0.004103  -0.001698  -0.033524   0.522982  -0.000177   0.007066
    11  H    0.000031   0.000016  -0.000051  -0.000177   0.508814  -0.033521
    12  H    0.000140   0.000017  -0.000177   0.007066  -0.033521   0.522974
    13  H    0.010194  -0.000392   0.000031   0.000140  -0.002608   0.004103
    14  H   -0.000393  -0.000058   0.000016   0.000017  -0.000610  -0.001700
    15  H   -0.002719  -0.003580  -0.000163  -0.000106  -0.000163  -0.000106
              13         14         15
     1  C   -0.001574   0.012178  -0.061923
     2  C    0.000462  -0.002967   0.024370
     3  O    0.003465   0.006399  -0.000367
     4  C   -0.093240  -0.028446   0.024360
     5  C    0.472223   0.385083  -0.061888
     6  N   -0.112905  -0.047875   0.319351
     7  H    0.010194  -0.000393  -0.002719
     8  H   -0.000392  -0.000058  -0.003580
     9  H    0.000031   0.000016  -0.000163
    10  H    0.000140   0.000017  -0.000106
    11  H   -0.002608  -0.000610  -0.000163
    12  H    0.004103  -0.001700  -0.000106
    13  H    0.560367  -0.039305  -0.002715
    14  H   -0.039305   0.516222  -0.003579
    15  H   -0.002715  -0.003579   0.381662
 Mulliken charges:
               1
     1  C   -0.329907
     2  C   -0.212517
     3  O   -0.369527
     4  C   -0.212372
     5  C   -0.330124
     6  N   -0.567585
     7  H    0.201752
     8  H    0.204988
     9  H    0.206849
    10  H    0.203621
    11  H    0.206861
    12  H    0.203621
    13  H    0.201753
    14  H    0.205018
    15  H    0.387568
 Sum of Mulliken charges =   0.00000
 Mulliken charges with hydrogens summed into heavy atoms:
               1
     1  C    0.076833
     2  C    0.197953
     3  O   -0.369527
     4  C    0.198110
     5  C    0.076648
     6  N   -0.180017
 Electronic spatial extent (au):  <R**2>=            522.7469
 Charge=              0.0000 electrons
 Dipole moment (field-independent basis, Debye):
    X=             -0.0025    Y=              1.4832    Z=             -0.2844  Tot=              1.5102
 Quadrupole moment (field-independent basis, Debye-Ang):
   XX=            -33.0995   YY=            -38.9710   ZZ=            -40.4822
   XY=              0.0085   XZ=              0.0069   YZ=             -3.8405
 Traceless Quadrupole moment (field-independent basis, Debye-Ang):
   XX=              4.4180   YY=             -1.4534   ZZ=             -2.9646
   XY=              0.0085   XZ=              0.0069   YZ=             -3.8405
 Octapole moment (field-independent basis, Debye-Ang**2):
  XXX=              0.0094  YYY=             12.7723  ZZZ=             -1.9406  XYY=             -0.0297
  XXY=             -3.1519  XXZ=              0.3199  XZZ=              0.0058  YZZ=             -3.6037
  YYZ=             -1.9356  XYZ=              0.0055
 Hexadecapole moment (field-independent basis, Debye-Ang**3):
 XXXX=           -302.5203 YYYY=           -284.2074 ZZZZ=            -88.8483 XXXY=             -0.0327
 XXXZ=             -0.0099 YYYX=              0.0027 YYYZ=             -7.2243 ZZZX=              0.0093
 ZZZY=             -5.6274 XXYY=            -94.0696 XXZZ=            -67.2820 YYZZ=            -69.7536
 XXYZ=              4.0227 YYXZ=              0.0253 ZZXY=              0.0033
 N-N= 2.625995343528D+02 E-N=-1.194762142060D+03  KE= 2.851568664583D+02
 Calling FoFJK, ICntrl=      2127 FMM=F ISym2X=0 I1Cent= 0 IOpClX= 0 NMat=1 NMatS=1 NMatT=0.
 ***** Axes restored to original set *****
 -------------------------------------------------------------------
 Center     Atomic                   Forces (Hartrees/Bohr)
 Number     Number              X              Y              Z
 -------------------------------------------------------------------
      1        6          -0.006344325   -0.002917500   -0.000948548
      2        6          -0.003206454    0.004323826    0.008310688
      3        8          -0.002849319   -0.000957030   -0.003526707
      4        6           0.006110197   -0.006783048    0.003762893
      5        6          -0.004585324   -0.005186574   -0.001711520
      6        7           0.003159036    0.006018330   -0.008427627
      7        1           0.007919492    0.000490609    0.003375985
      8        1          -0.000533526    0.000034173   -0.001245086
      9        1          -0.000470612    0.002737962    0.002610485
     10        1          -0.004075874   -0.000770124   -0.001898422
     11        1           0.003291799   -0.001708221    0.000844728
     12        1          -0.002385058   -0.002794153   -0.002666890
     13        1           0.003695795    0.005601811    0.005415290
     14        1          -0.000630373    0.000101873   -0.001318225
     15        1           0.000904546    0.001808066   -0.002577045
 -------------------------------------------------------------------
 Cartesian Forces:  Max     0.008427627 RMS     0.003854610

 GradGradGradGradGradGradGradGradGradGradGradGradGradGradGradGradGradGrad
 Berny optimization.
 FormGI is forming the generalized inverse of G from B-inverse, IUseBI=4.
 Internal  Forces:  Max     0.009072167 RMS     0.002990550
 Search for a local minimum.
 Step number   1 out of a maximum of   89
 All quantities printed in internal units (Hartrees-Bohrs-Radians)
 Mixed Optimization -- RFO/linear search
 Second derivative matrix not updated -- first step.
 ITU=  0
     Eigenvalues ---    0.00769   0.01021   0.01464   0.02623   0.03274
     Eigenvalues ---    0.04562   0.05050   0.05126   0.05537   0.05784
     Eigenvalues ---    0.06272   0.06370   0.07663   0.09013   0.09175
     Eigenvalues ---    0.09198   0.10630   0.11495   0.11532   0.11782
     Eigenvalues ---    0.13348   0.16277   0.16932   0.22577   0.28460
     Eigenvalues ---    0.29950   0.34036   0.34037   0.34040   0.34047
     Eigenvalues ---    0.34264   0.34279   0.34279   0.34289   0.34846
     Eigenvalues ---    0.35011   0.40086   0.40101   0.44419
 RFO step:  Lambda=-4.27310200D-03 EMin= 7.69036325D-03
 Linear search not attempted -- first point.
 Iteration  1 RMS(Cart)=  0.02977714 RMS(Int)=  0.00060646
 Iteration  2 RMS(Cart)=  0.00065312 RMS(Int)=  0.00028323
 Iteration  3 RMS(Cart)=  0.00000029 RMS(Int)=  0.00028322
 Variable       Old X    -DE/DX   Delta X   Delta X   Delta X     New X
                                 (Linear)    (Quad)   (Total)
    R1        2.88082  -0.00456   0.00000  -0.01502  -0.01502   2.86580
    R2        2.77081  -0.00093   0.00000  -0.00324  -0.00329   2.76753
    R3        2.07267   0.00516   0.00000   0.01498   0.01498   2.08765
    R4        2.06887   0.00061   0.00000   0.00175   0.00175   2.07062
    R5        2.70005  -0.00906   0.00000  -0.02119  -0.02114   2.67891
    R6        2.06861  -0.00112   0.00000  -0.00324  -0.00324   2.06538
    R7        2.07251   0.00247   0.00000   0.00717   0.00717   2.07968
    R8        2.70008  -0.00907   0.00000  -0.02121  -0.02115   2.67893
    R9        2.88045  -0.00450   0.00000  -0.01478  -0.01478   2.86567
   R10        2.06845  -0.00107   0.00000  -0.00307  -0.00307   2.06538
   R11        2.07263   0.00243   0.00000   0.00706   0.00706   2.07969
   R12        2.77089  -0.00098   0.00000  -0.00335  -0.00340   2.76749
   R13        2.07270   0.00517   0.00000   0.01499   0.01499   2.08769
   R14        2.06862   0.00070   0.00000   0.00202   0.00202   2.07065
   R15        1.92656  -0.00290   0.00000  -0.00647  -0.00647   1.92009
    A1        1.93306  -0.00502   0.00000  -0.03505  -0.03518   1.89789
    A2        1.91934  -0.00316   0.00000  -0.02919  -0.02853   1.89080
    A3        1.91582   0.00119   0.00000  -0.00389  -0.00422   1.91160
    A4        1.90670   0.00647   0.00000   0.06280   0.06239   1.96909
    A5        1.90822   0.00059   0.00000  -0.00440  -0.00499   1.90323
    A6        1.87987   0.00012   0.00000   0.01148   0.01087   1.89074
    A7        1.92502   0.00600   0.00000   0.01593   0.01597   1.94099
    A8        1.91963   0.00049   0.00000   0.01216   0.01223   1.93186
    A9        1.94832  -0.00465   0.00000  -0.02858  -0.02848   1.91984
   A10        1.88009  -0.00381   0.00000  -0.02524  -0.02520   1.85489
   A11        1.90994  -0.00070   0.00000   0.00244   0.00242   1.91237
   A12        1.87903   0.00258   0.00000   0.02341   0.02352   1.90255
   A13        1.93562  -0.00418   0.00000  -0.01245  -0.01285   1.92277
   A14        1.92503   0.00599   0.00000   0.01590   0.01594   1.94097
   A15        1.88016  -0.00382   0.00000  -0.02534  -0.02530   1.85487
   A16        1.90984  -0.00069   0.00000   0.00253   0.00251   1.91235
   A17        1.91966   0.00050   0.00000   0.01219   0.01226   1.93192
   A18        1.94832  -0.00466   0.00000  -0.02857  -0.02846   1.91985
   A19        1.87903   0.00258   0.00000   0.02340   0.02351   1.90253
   A20        1.93313  -0.00501   0.00000  -0.03508  -0.03521   1.89792
   A21        1.91960  -0.00317   0.00000  -0.02936  -0.02870   1.89090
   A22        1.91616   0.00117   0.00000  -0.00412  -0.00445   1.91171
   A23        1.90690   0.00645   0.00000   0.06257   0.06215   1.96904
   A24        1.90830   0.00059   0.00000  -0.00442  -0.00502   1.90328
   A25        1.87890   0.00017   0.00000   0.01222   0.01161   1.89052
   A26        1.91447   0.00108   0.00000   0.00316   0.00256   1.91702
   A27        1.91108  -0.00066   0.00000  -0.00005   0.00010   1.91118
   A28        1.91130  -0.00068   0.00000  -0.00026  -0.00011   1.91119
    D1        1.00468   0.00143   0.00000   0.02043   0.02024   1.02492
    D2        3.07596   0.00074   0.00000   0.00671   0.00671   3.08266
    D3       -1.12262   0.00131   0.00000   0.02573   0.02567  -1.09695
    D4       -1.10452  -0.00132   0.00000  -0.01616  -0.01643  -1.12096
    D5        0.96675  -0.00201   0.00000  -0.02989  -0.02996   0.93679
    D6        3.05136  -0.00144   0.00000  -0.01087  -0.01100   3.04035
    D7        3.11347  -0.00028   0.00000  -0.01021  -0.01029   3.10318
    D8       -1.09844  -0.00097   0.00000  -0.02393  -0.02382  -1.12226
    D9        0.98616  -0.00040   0.00000  -0.00491  -0.00486   0.98131
   D10       -0.97030  -0.00071   0.00000  -0.04607  -0.04569  -1.01600
   D11       -3.06815  -0.00013   0.00000  -0.04768  -0.04720  -3.11535
   D12        1.14638  -0.00361   0.00000  -0.06365  -0.06433   1.08205
   D13       -0.95147  -0.00303   0.00000  -0.06526  -0.06583  -1.01731
   D14       -3.08359   0.00062   0.00000  -0.01598  -0.01590  -3.09949
   D15        1.10175   0.00120   0.00000  -0.01759  -0.01741   1.08434
   D16       -1.03557   0.00052   0.00000   0.00179   0.00164  -1.03393
   D17       -3.13085  -0.00124   0.00000  -0.00683  -0.00684  -3.13768
   D18        1.11427  -0.00181   0.00000  -0.02190  -0.02197   1.09230
   D19        1.03564  -0.00054   0.00000  -0.00182  -0.00168   1.03396
   D20        3.13100   0.00123   0.00000   0.00675   0.00677   3.13777
   D21       -1.11413   0.00180   0.00000   0.02181   0.02187  -1.09226
   D22       -1.00479  -0.00143   0.00000  -0.02041  -0.02021  -1.02501
   D23        1.10487   0.00130   0.00000   0.01574   0.01601   1.12088
   D24       -3.11394   0.00030   0.00000   0.01046   0.01053  -3.10341
   D25       -3.07618  -0.00073   0.00000  -0.00656  -0.00657  -3.08275
   D26       -0.96652   0.00199   0.00000   0.02958   0.02966  -0.93686
   D27        1.09786   0.00099   0.00000   0.02430   0.02418   1.12204
   D28        1.12239  -0.00131   0.00000  -0.02560  -0.02554   1.09685
   D29       -3.05114   0.00142   0.00000   0.01055   0.01069  -3.04045
   D30       -0.98676   0.00042   0.00000   0.00527   0.00521  -0.98156
   D31        0.97041   0.00071   0.00000   0.04603   0.04565   1.01606
   D32        3.06812   0.00014   0.00000   0.04777   0.04729   3.11541
   D33       -1.14677   0.00363   0.00000   0.06400   0.06468  -1.08209
   D34        0.95095   0.00306   0.00000   0.06573   0.06631   1.01726
   D35        3.08421  -0.00065   0.00000   0.01561   0.01553   3.09974
   D36       -1.10126  -0.00122   0.00000   0.01734   0.01716  -1.08410
         Item               Value     Threshold  Converged?
 Maximum Force            0.009072     0.000450     NO 
 RMS     Force            0.002991     0.000300     NO 
 Maximum Displacement     0.134433     0.001800     NO 
 RMS     Displacement     0.029896     0.001200     NO 
 Predicted change in Energy=-2.261328D-03
 GradGradGradGradGradGradGradGradGradGradGradGradGradGradGradGradGradGrad

                          Input orientation:                          
 ---------------------------------------------------------------------
 Center     Atomic      Atomic             Coordinates (Angstroms)
 Number     Number       Type             X           Y           Z
 ---------------------------------------------------------------------
      1          6           0        0.263801   -1.392581   -0.051651
      2          6           0        1.190613   -0.338998   -0.626804
      3          8           0        1.095306    0.877242    0.095220
      4          6           0       -0.234619    1.366489    0.055111
      5          6           0       -1.205529    0.365810    0.651422
      6          7           0       -1.110063   -0.887639   -0.099900
      7          1           0        0.598409   -1.626800    0.974808
      8          1           0        0.330257   -2.306321   -0.652715
      9          1           0        2.232935   -0.659064   -0.551547
     10          1           0        0.946185   -0.159768   -1.684762
     11          1           0       -0.236502    2.296067    0.629935
     12          1           0       -0.514594    1.588208   -0.985853
     13          1           0       -0.963945    0.242819    1.722401
     14          1           0       -2.227070    0.753958    0.571175
     15          1           0       -1.738586   -1.575121    0.305961
 ---------------------------------------------------------------------
                    Distance matrix (angstroms):
                    1          2          3          4          5
     1  C    0.000000
     2  C    1.516515   0.000000
     3  O    2.421790   1.417619   0.000000
     4  C    2.805759   2.324861   1.417629   0.000000
     5  C    2.396910   2.805729   2.421728   1.516447   0.000000
     6  N    1.464511   2.423168   2.831348   2.423123   1.464491
     7  H    1.104735   2.138761   2.700150   3.240302   2.707262
     8  H    1.095726   2.147380   3.358538   3.782808   3.346595
     9  H    2.159962   1.092951   2.018104   3.249573   3.784249
    10  H    2.156972   1.100520   2.065421   2.598253   3.219295
    11  H    3.784308   3.249557   2.018092   1.092951   2.159947
    12  H    3.219275   2.598225   2.065423   1.100524   2.156924
    13  H    2.707241   3.240277   2.700135   2.138786   1.104756
    14  H    3.346637   3.782891   3.358559   2.147412   1.095739
    15  H    2.042244   3.313346   3.753591   3.313293   2.042230
                    6          7          8          9         10
     6  N    0.000000
     7  H    2.149472   0.000000
     8  H    2.095897   1.783951   0.000000
     9  H    3.381104   2.436791   2.518705   0.000000
    10  H    2.696245   3.057195   2.460118   1.785833   0.000000
    11  H    3.381088   4.025531   4.811276   4.028253   3.575989
    12  H    2.696167   3.926735   3.999014   3.575999   2.382807
    13  H    2.149435   2.548592   3.716753   4.025454   3.926759
    14  H    2.095922   3.716754   4.171707   4.811319   3.999212
    15  H    1.016069   2.431372   2.394541   4.165029   3.629628
                   11         12         13         14         15
    11  H    0.000000
    12  H    1.785825   0.000000
    13  H    2.436901   3.057226   0.000000
    14  H    2.518713   2.460261   1.783836   0.000000
    15  H    4.165010   3.629545   2.431312   2.394486   0.000000
 Stoichiometry    C4H9NO
 Framework group  C1[X(C4H9NO)]
 Deg. of freedom    39
 Full point group                 C1      NOp   1
 Largest Abelian subgroup         C1      NOp   1
 Largest concise Abelian subgroup C1      NOp   1
                         Standard orientation:                         
 ---------------------------------------------------------------------
 Center     Atomic      Atomic             Coordinates (Angstroms)
 Number     Number       Type             X           Y           Z
 ---------------------------------------------------------------------
      1          6           0        1.198320    0.711867   -0.197250
      2          6           0        1.162586   -0.750962    0.201090
      3          8           0        0.000277   -1.390385   -0.298728
      4          6           0       -1.162276   -0.751407    0.201123
      5          6           0       -1.198590    0.711326   -0.197255
      6          7           0       -0.000297    1.371294    0.325498
      7          1           0        1.274167    0.770597   -1.297812
      8          1           0        2.085584    1.187634    0.235213
      9          1           0        2.014390   -1.287820   -0.224062
     10          1           0        1.191608   -0.843343    1.297342
     11          1           0       -2.013863   -1.288671   -0.223952
     12          1           0       -1.191199   -0.843770    1.297383
     13          1           0       -1.274425    0.770087   -1.297838
     14          1           0       -2.086123    1.186823    0.234986
     15          1           0       -0.000516    2.347542    0.043829
 ---------------------------------------------------------------------
 Rotational constants (GHZ):      4.9693476      4.6325896      2.6974232
 Standard basis: 6-31+G(d) (6D, 7F)
 There are   132 symmetry adapted cartesian basis functions of A   symmetry.
 There are   132 symmetry adapted basis functions of A   symmetry.
   132 basis functions,   228 primitive gaussians,   132 cartesian basis functions
    24 alpha electrons       24 beta electrons
       nuclear repulsion energy       263.8818073243 Hartrees.
 NAtoms=   15 NActive=   15 NUniq=   15 SFac= 1.00D+00 NAtFMM=   60 NAOKFM=F Big=F
 Integral buffers will be    131072 words long.
 Raffenetti 2 integral format.
 Two-electron integral symmetry is turned on.
 One-electron integrals computed using PRISM.
 NBasis=   132 RedAO= T EigKep=  4.20D-05  NBF=   132
 NBsUse=   132 1.00D-06 EigRej= -1.00D+00 NBFU=   132
 Initial guess from the checkpoint file:  "/srv/scratch/z5358697/gauss/Gau-4053264.chk"
 B after Tr=     0.000000    0.000000    0.000000
         Rot=    0.999992    0.004012    0.000019    0.000650 Ang=   0.47 deg.
 ExpMin= 4.38D-02 ExpMax= 5.48D+03 ExpMxC= 8.25D+02 IAcc=2 IRadAn=         4 AccDes= 0.00D+00
 Harris functional with IExCor= 1009 and IRadAn=       4 diagonalized for initial guess.
 HarFok:  IExCor= 1009 AccDes= 0.00D+00 IRadAn=         4 IDoV= 1 UseB2=F ITyADJ=14
 ICtDFT=  3500011 ScaDFX=  1.000000  1.000000  1.000000  1.000000
 FoFCou: FMM=F IPFlag=           0 FMFlag=      100000 FMFlg1=           0
         NFxFlg=           0 DoJE=T BraDBF=F KetDBF=T FulRan=T
         wScrn=  0.000000 ICntrl=     500 IOpCl=  0 I1Cent=   200000004 NGrid=           0
         NMat0=    1 NMatS0=      1 NMatT0=    0 NMatD0=    1 NMtDS0=    0 NMtDT0=    0
 Petite list used in FoFCou.
 Requested convergence on RMS density matrix=1.00D-08 within 128 cycles.
 Requested convergence on MAX density matrix=1.00D-06.
 Requested convergence on             energy=1.00D-06.
 No special actions if energy rises.
 SCF Done:  E(RM062X) =  -287.671972141     A.U. after   11 cycles
            NFock= 11  Conv=0.45D-08     -V/T= 2.0086
 Calling FoFJK, ICntrl=      2127 FMM=F ISym2X=0 I1Cent= 0 IOpClX= 0 NMat=1 NMatS=1 NMatT=0.
 ***** Axes restored to original set *****
 -------------------------------------------------------------------
 Center     Atomic                   Forces (Hartrees/Bohr)
 Number     Number              X              Y              Z
 -------------------------------------------------------------------
      1        6          -0.002104881   -0.001985087   -0.000645870
      2        6           0.004529225    0.001884746   -0.000036606
      3        8          -0.002789813   -0.001767322   -0.001408258
      4        6           0.002829760    0.003966466    0.000775348
      5        6          -0.002580030   -0.001481850   -0.000385886
      6        7           0.003079529    0.001004966    0.003889843
      7        1          -0.000891944    0.000392403    0.000297089
      8        1          -0.000074352    0.000151953    0.000234227
      9        1           0.000266704   -0.000101449   -0.000306162
     10        1          -0.000708181   -0.000219080   -0.000395826
     11        1          -0.000138373    0.000377981   -0.000111598
     12        1          -0.000515989   -0.000450844   -0.000485759
     13        1           0.000251752   -0.000953336   -0.000255250
     14        1           0.000211254   -0.000178017    0.000082959
     15        1          -0.001364661   -0.000641529   -0.001248251
 -------------------------------------------------------------------
 Cartesian Forces:  Max     0.004529225 RMS     0.001581475

 GradGradGradGradGradGradGradGradGradGradGradGradGradGradGradGradGradGrad
 Berny optimization.
 Using GEDIIS/GDIIS optimizer.
 FormGI is forming the generalized inverse of G from B-inverse, IUseBI=4.
 Internal  Forces:  Max     0.002708652 RMS     0.000695751
 Search for a local minimum.
 Step number   2 out of a maximum of   89
 All quantities printed in internal units (Hartrees-Bohrs-Radians)
 Mixed Optimization -- En-DIIS/RFO-DIIS
 Update second derivatives using D2CorX and points    1    2
 DE= -2.05D-03 DEPred=-2.26D-03 R= 9.05D-01
 TightC=F SS=  1.41D+00  RLast= 2.31D-01 DXNew= 5.0454D-01 6.9196D-01
 Trust test= 9.05D-01 RLast= 2.31D-01 DXMaxT set to 5.05D-01
 ITU=  1  0
 Use linear search instead of GDIIS.
     Eigenvalues ---    0.00783   0.01052   0.01414   0.02559   0.03333
     Eigenvalues ---    0.04834   0.05075   0.05236   0.05633   0.05901
     Eigenvalues ---    0.06368   0.06505   0.07561   0.08572   0.08755
     Eigenvalues ---    0.09132   0.10677   0.11493   0.11570   0.11753
     Eigenvalues ---    0.13400   0.16757   0.16829   0.23575   0.28462
     Eigenvalues ---    0.31461   0.33835   0.34037   0.34044   0.34129
     Eigenvalues ---    0.34267   0.34279   0.34286   0.34397   0.34723
     Eigenvalues ---    0.35184   0.39462   0.40078   0.44553
 RFO step:  Lambda=-3.13414853D-04 EMin= 7.83240453D-03
 Quartic linear search produced a step of -0.04155.
 Iteration  1 RMS(Cart)=  0.00992052 RMS(Int)=  0.00014329
 Iteration  2 RMS(Cart)=  0.00013152 RMS(Int)=  0.00003603
 Iteration  3 RMS(Cart)=  0.00000000 RMS(Int)=  0.00003603
 Variable       Old X    -DE/DX   Delta X   Delta X   Delta X     New X
                                 (Linear)    (Quad)   (Total)
    R1        2.86580   0.00269   0.00062   0.00707   0.00769   2.87349
    R2        2.76753  -0.00078   0.00014  -0.00346  -0.00331   2.76421
    R3        2.08765  -0.00008  -0.00062   0.00132   0.00070   2.08834
    R4        2.07062  -0.00026  -0.00007  -0.00054  -0.00062   2.07001
    R5        2.67891  -0.00038   0.00088  -0.00213  -0.00126   2.67765
    R6        2.06538   0.00026   0.00013   0.00040   0.00054   2.06592
    R7        2.07968   0.00050  -0.00030   0.00214   0.00185   2.08153
    R8        2.67893  -0.00038   0.00088  -0.00214  -0.00127   2.67766
    R9        2.86567   0.00271   0.00061   0.00717   0.00779   2.87346
   R10        2.06538   0.00026   0.00013   0.00042   0.00055   2.06593
   R11        2.07969   0.00050  -0.00029   0.00213   0.00183   2.08152
   R12        2.76749  -0.00077   0.00014  -0.00344  -0.00328   2.76420
   R13        2.08769  -0.00009  -0.00062   0.00130   0.00067   2.08836
   R14        2.07065  -0.00027  -0.00008  -0.00053  -0.00062   2.07003
   R15        1.92009   0.00078   0.00027   0.00101   0.00128   1.92137
    A1        1.89789   0.00032   0.00146  -0.00593  -0.00445   1.89344
    A2        1.89080   0.00068   0.00119   0.00142   0.00255   1.89336
    A3        1.91160  -0.00035   0.00018   0.00121   0.00138   1.91298
    A4        1.96909  -0.00115  -0.00259  -0.00205  -0.00463   1.96446
    A5        1.90323   0.00035   0.00021   0.00157   0.00180   1.90503
    A6        1.89074   0.00015  -0.00045   0.00390   0.00348   1.89422
    A7        1.94099  -0.00099  -0.00066  -0.00227  -0.00296   1.93803
    A8        1.93186   0.00057  -0.00051   0.00675   0.00625   1.93811
    A9        1.91984  -0.00056   0.00118  -0.01044  -0.00927   1.91057
   A10        1.85489   0.00072   0.00105   0.00314   0.00419   1.85908
   A11        1.91237   0.00027  -0.00010  -0.00061  -0.00075   1.91161
   A12        1.90255   0.00005  -0.00098   0.00403   0.00306   1.90561
   A13        1.92277   0.00189   0.00053   0.01469   0.01521   1.93798
   A14        1.94097  -0.00099  -0.00066  -0.00226  -0.00296   1.93802
   A15        1.85487   0.00072   0.00105   0.00315   0.00420   1.85907
   A16        1.91235   0.00027  -0.00010  -0.00059  -0.00074   1.91161
   A17        1.93192   0.00056  -0.00051   0.00672   0.00622   1.93815
   A18        1.91985  -0.00056   0.00118  -0.01045  -0.00928   1.91057
   A19        1.90253   0.00005  -0.00098   0.00403   0.00307   1.90560
   A20        1.89792   0.00031   0.00146  -0.00595  -0.00447   1.89345
   A21        1.89090   0.00067   0.00119   0.00131   0.00246   1.89335
   A22        1.91171  -0.00036   0.00018   0.00110   0.00129   1.91300
   A23        1.96904  -0.00114  -0.00258  -0.00201  -0.00458   1.96446
   A24        1.90328   0.00035   0.00021   0.00153   0.00176   1.90504
   A25        1.89052   0.00016  -0.00048   0.00413   0.00368   1.89419
   A26        1.91702   0.00044  -0.00011   0.00634   0.00618   1.92320
   A27        1.91118   0.00011   0.00000   0.01115   0.01097   1.92215
   A28        1.91119   0.00011   0.00000   0.01112   0.01095   1.92214
    D1        1.02492  -0.00103  -0.00084  -0.00777  -0.00860   1.01632
    D2        3.08266  -0.00040  -0.00028  -0.00098  -0.00125   3.08141
    D3       -1.09695  -0.00034  -0.00107   0.00159   0.00051  -1.09645
    D4       -1.12096  -0.00024   0.00068  -0.00250  -0.00180  -1.12275
    D5        0.93679   0.00039   0.00125   0.00429   0.00555   0.94233
    D6        3.04035   0.00045   0.00046   0.00686   0.00731   3.04766
    D7        3.10318  -0.00062   0.00043  -0.00869  -0.00825   3.09493
    D8       -1.12226   0.00001   0.00099  -0.00190  -0.00091  -1.12317
    D9        0.98131   0.00007   0.00020   0.00067   0.00085   0.98216
   D10       -1.01600  -0.00025   0.00190  -0.01279  -0.01089  -1.02689
   D11       -3.11535  -0.00073   0.00196  -0.03738  -0.03548   3.13235
   D12        1.08205   0.00009   0.00267  -0.01637  -0.01363   1.06842
   D13       -1.01731  -0.00039   0.00274  -0.04096  -0.03822  -1.05553
   D14       -3.09949  -0.00022   0.00066  -0.01168  -0.01100  -3.11050
   D15        1.08434  -0.00070   0.00072  -0.03627  -0.03559   1.04875
   D16       -1.03393   0.00049  -0.00007   0.01095   0.01089  -1.02303
   D17       -3.13768  -0.00009   0.00028   0.00209   0.00238  -3.13531
   D18        1.09230  -0.00068   0.00091  -0.00409  -0.00318   1.08912
   D19        1.03396  -0.00049   0.00007  -0.01098  -0.01092   1.02305
   D20        3.13777   0.00008  -0.00028  -0.00214  -0.00242   3.13535
   D21       -1.09226   0.00068  -0.00091   0.00407   0.00316  -1.08910
   D22       -1.02501   0.00103   0.00084   0.00783   0.00865  -1.01636
   D23        1.12088   0.00024  -0.00067   0.00252   0.00184   1.12272
   D24       -3.10341   0.00063  -0.00044   0.00887   0.00842  -3.09499
   D25       -3.08275   0.00040   0.00027   0.00103   0.00130  -3.08144
   D26       -0.93686  -0.00039  -0.00123  -0.00427  -0.00551  -0.94237
   D27        1.12204   0.00000  -0.00100   0.00207   0.00107   1.12311
   D28        1.09685   0.00034   0.00106  -0.00152  -0.00044   1.09640
   D29       -3.04045  -0.00045  -0.00044  -0.00682  -0.00726  -3.04771
   D30       -0.98156  -0.00007  -0.00022  -0.00048  -0.00068  -0.98223
   D31        1.01606   0.00025  -0.00190   0.01275   0.01086   1.02692
   D32        3.11541   0.00073  -0.00196   0.03736   0.03545  -3.13232
   D33       -1.08209  -0.00008  -0.00269   0.01645   0.01370  -1.06839
   D34        1.01726   0.00040  -0.00276   0.04106   0.03830   1.05556
   D35        3.09974   0.00021  -0.00065   0.01148   0.01081   3.11055
   D36       -1.08410   0.00069  -0.00071   0.03609   0.03541  -1.04869
         Item               Value     Threshold  Converged?
 Maximum Force            0.002709     0.000450     NO 
 RMS     Force            0.000696     0.000300     NO 
 Maximum Displacement     0.056842     0.001800     NO 
 RMS     Displacement     0.009929     0.001200     NO 
 Predicted change in Energy=-1.628083D-04
 GradGradGradGradGradGradGradGradGradGradGradGradGradGradGradGradGradGrad

                          Input orientation:                          
 ---------------------------------------------------------------------
 Center     Atomic      Atomic             Coordinates (Angstroms)
 Number     Number       Type             X           Y           Z
 ---------------------------------------------------------------------
      1          6           0        0.265917   -1.394166   -0.047220
      2          6           0        1.196671   -0.341156   -0.627780
      3          8           0        1.092467    0.878783    0.085407
      4          6           0       -0.235386    1.372535    0.057438
      5          6           0       -1.204862    0.365906    0.656554
      6          7           0       -1.103374   -0.882311   -0.099292
      7          1           0        0.594295   -1.622283    0.983017
      8          1           0        0.329937   -2.310522   -0.643956
      9          1           0        2.240864   -0.656318   -0.553635
     10          1           0        0.944109   -0.171482   -1.686420
     11          1           0       -0.232795    2.303873    0.629956
     12          1           0       -0.526238    1.588006   -0.982883
     13          1           0       -0.957918    0.235280    1.725773
     14          1           0       -2.227777    0.750237    0.579961
     15          1           0       -1.749310   -1.572083    0.275882
 ---------------------------------------------------------------------
                    Distance matrix (angstroms):
                    1          2          3          4          5
     1  C    0.000000
     2  C    1.520586   0.000000
     3  O    2.422204   1.416949   0.000000
     4  C    2.813697   2.336032   1.416957   0.000000
     5  C    2.399238   2.813683   2.422184   1.520568   0.000000
     6  N    1.462759   2.421230   2.820865   2.421217   1.462753
     7  H    1.105104   2.144483   2.703555   3.242530   2.701192
     8  H    1.095400   2.151718   3.359328   3.791629   3.348164
     9  H    2.168246   1.093235   2.020823   3.259059   3.792430
    10  H    2.154502   1.101497   2.065052   2.610793   3.224344
    11  H    3.792463   3.259057   2.020825   1.093241   2.168257
    12  H    3.224333   2.610781   2.065053   1.101494   2.154486
    13  H    2.701179   3.242491   2.703512   2.144468   1.105113
    14  H    3.348183   3.791651   3.359334   2.151721   1.095413
    15  H    2.048704   3.318220   3.757488   3.318201   2.048691
                    6          7          8          9         10
     6  N    0.000000
     7  H    2.145001   0.000000
     8  H    2.095429   1.786224   0.000000
     9  H    3.382517   2.450627   2.529068   0.000000
    10  H    2.686343   3.058281   2.457525   1.788810   0.000000
    11  H    3.382525   4.027832   4.819975   4.035172   3.588605
    12  H    2.686314   3.927634   4.005799   3.588606   2.398475
    13  H    2.145001   2.532112   3.708813   4.027761   3.927624
    14  H    2.095442   3.708826   4.172303   4.819978   4.005860
    15  H    1.016747   2.448477   2.390535   4.177105   3.614805
                   11         12         13         14         15
    11  H    0.000000
    12  H    1.788805   0.000000
    13  H    2.450652   3.058273   0.000000
    14  H    2.529078   2.457554   1.786227   0.000000
    15  H    4.177107   3.614769   2.448478   2.390515   0.000000
 Stoichiometry    C4H9NO
 Framework group  C1[X(C4H9NO)]
 Deg. of freedom    39
 Full point group                 C1      NOp   1
 Largest Abelian subgroup         C1      NOp   1
 Largest concise Abelian subgroup C1      NOp   1
                         Standard orientation:                         
 ---------------------------------------------------------------------
 Center     Atomic      Atomic             Coordinates (Angstroms)
 Number     Number       Type             X           Y           Z
 ---------------------------------------------------------------------
      1          6           0        1.199687    0.713901   -0.200393
      2          6           0        1.167947   -0.753230    0.197983
      3          8           0       -0.000126   -1.388272   -0.291989
      4          6           0       -1.168085   -0.753012    0.197994
      5          6           0       -1.199550    0.714100   -0.200403
      6          7           0        0.000117    1.363805    0.327167
      7          1           0        1.266144    0.776495   -1.301720
      8          1           0        2.086248    1.192435    0.229625
      9          1           0        2.017468   -1.294032   -0.227473
     10          1           0        1.199172   -0.836254    1.295903
     11          1           0       -2.017704   -1.293693   -0.227431
     12          1           0       -1.199303   -0.836014    1.295912
     13          1           0       -1.265969    0.776680   -1.301741
     14          1           0       -2.086055    1.192814    0.229564
     15          1           0        0.000192    2.350556    0.082021
 ---------------------------------------------------------------------
 Rotational constants (GHZ):      4.9509052      4.6410479      2.6940661
 Standard basis: 6-31+G(d) (6D, 7F)
 There are   132 symmetry adapted cartesian basis functions of A   symmetry.
 There are   132 symmetry adapted basis functions of A   symmetry.
   132 basis functions,   228 primitive gaussians,   132 cartesian basis functions
    24 alpha electrons       24 beta electrons
       nuclear repulsion energy       263.7604280681 Hartrees.
 NAtoms=   15 NActive=   15 NUniq=   15 SFac= 1.00D+00 NAtFMM=   60 NAOKFM=F Big=F
 Integral buffers will be    131072 words long.
 Raffenetti 2 integral format.
 Two-electron integral symmetry is turned on.
 One-electron integrals computed using PRISM.
 NBasis=   132 RedAO= T EigKep=  4.27D-05  NBF=   132
 NBsUse=   132 1.00D-06 EigRej= -1.00D+00 NBFU=   132
 Initial guess from the checkpoint file:  "/srv/scratch/z5358697/gauss/Gau-4053264.chk"
 B after Tr=     0.000000    0.000000    0.000000
         Rot=    1.000000   -0.000372    0.000000    0.000147 Ang=  -0.05 deg.
 ExpMin= 4.38D-02 ExpMax= 5.48D+03 ExpMxC= 8.25D+02 IAcc=2 IRadAn=         4 AccDes= 0.00D+00
 Harris functional with IExCor= 1009 and IRadAn=       4 diagonalized for initial guess.
 HarFok:  IExCor= 1009 AccDes= 0.00D+00 IRadAn=         4 IDoV= 1 UseB2=F ITyADJ=14
 ICtDFT=  3500011 ScaDFX=  1.000000  1.000000  1.000000  1.000000
 FoFCou: FMM=F IPFlag=           0 FMFlag=      100000 FMFlg1=           0
         NFxFlg=           0 DoJE=T BraDBF=F KetDBF=T FulRan=T
         wScrn=  0.000000 ICntrl=     500 IOpCl=  0 I1Cent=   200000004 NGrid=           0
         NMat0=    1 NMatS0=      1 NMatT0=    0 NMatD0=    1 NMtDS0=    0 NMtDT0=    0
 Petite list used in FoFCou.
 Requested convergence on RMS density matrix=1.00D-08 within 128 cycles.
 Requested convergence on MAX density matrix=1.00D-06.
 Requested convergence on             energy=1.00D-06.
 No special actions if energy rises.
 SCF Done:  E(RM062X) =  -287.672172981     A.U. after   10 cycles
            NFock= 10  Conv=0.32D-08     -V/T= 2.0086
 Calling FoFJK, ICntrl=      2127 FMM=F ISym2X=0 I1Cent= 0 IOpClX= 0 NMat=1 NMatS=1 NMatT=0.
 ***** Axes restored to original set *****
 -------------------------------------------------------------------
 Center     Atomic                   Forces (Hartrees/Bohr)
 Number     Number              X              Y              Z
 -------------------------------------------------------------------
      1        6          -0.000844883   -0.000504079   -0.000098438
      2        6           0.000545140    0.001087555   -0.000459002
      3        8          -0.000558128   -0.000510190    0.000115318
      4        6           0.000959347    0.000612280   -0.000654527
      5        6          -0.000712029   -0.000678471   -0.000155342
      6        7           0.001258617    0.000328557    0.001806059
      7        1          -0.000380031    0.000122866   -0.000052597
      8        1          -0.000041111    0.000057371    0.000235578
      9        1          -0.000138320    0.000181912    0.000063242
     10        1          -0.000027840   -0.000196533   -0.000020321
     11        1           0.000150377   -0.000169804   -0.000075818
     12        1          -0.000191210   -0.000001065    0.000055773
     13        1          -0.000003539   -0.000328194   -0.000237355
     14        1           0.000133995   -0.000145893    0.000153868
     15        1          -0.000150385    0.000143689   -0.000676436
 -------------------------------------------------------------------
 Cartesian Forces:  Max     0.001806059 RMS     0.000517812

 GradGradGradGradGradGradGradGradGradGradGradGradGradGradGradGradGradGrad
 Berny optimization.
 Using GEDIIS/GDIIS optimizer.
 FormGI is forming the generalized inverse of G from B-inverse, IUseBI=4.
 Internal  Forces:  Max     0.000887253 RMS     0.000249090
 Search for a local minimum.
 Step number   3 out of a maximum of   89
 All quantities printed in internal units (Hartrees-Bohrs-Radians)
 Mixed Optimization -- En-DIIS/RFO-DIIS
 Swapping is turned off.
 Update second derivatives using D2CorX and points    1    2    3
 DE= -2.01D-04 DEPred=-1.63D-04 R= 1.23D+00
 TightC=F SS=  1.41D+00  RLast= 1.03D-01 DXNew= 8.4853D-01 3.0986D-01
 Trust test= 1.23D+00 RLast= 1.03D-01 DXMaxT set to 5.05D-01
 ITU=  1  1  0
     Eigenvalues ---    0.00783   0.00928   0.01279   0.02345   0.03353
     Eigenvalues ---    0.04855   0.05228   0.05268   0.05656   0.05920
     Eigenvalues ---    0.06397   0.06668   0.07611   0.08722   0.08810
     Eigenvalues ---    0.09130   0.10705   0.11503   0.11520   0.11738
     Eigenvalues ---    0.12829   0.16612   0.16888   0.23642   0.28478
     Eigenvalues ---    0.29571   0.33865   0.34037   0.34044   0.34097
     Eigenvalues ---    0.34268   0.34284   0.34289   0.34406   0.34728
     Eigenvalues ---    0.35253   0.39317   0.40109   0.44808
 En-DIIS/RFO-DIIS IScMMF=        0 using points:     3    2
 RFO step:  Lambda=-1.33715995D-05.
 DidBck=F Rises=F RFO-DIIS coefs:    1.34915   -0.34915
 Iteration  1 RMS(Cart)=  0.00595600 RMS(Int)=  0.00005055
 Iteration  2 RMS(Cart)=  0.00004393 RMS(Int)=  0.00002068
 Iteration  3 RMS(Cart)=  0.00000000 RMS(Int)=  0.00002068
 Variable       Old X    -DE/DX   Delta X   Delta X   Delta X     New X
                                 (Linear)    (Quad)   (Total)
    R1        2.87349   0.00076   0.00269   0.00105   0.00374   2.87723
    R2        2.76421  -0.00089  -0.00116  -0.00293  -0.00408   2.76013
    R3        2.08834  -0.00019   0.00024  -0.00055  -0.00030   2.08804
    R4        2.07001  -0.00018  -0.00022  -0.00050  -0.00071   2.06929
    R5        2.67765  -0.00055  -0.00044  -0.00174  -0.00219   2.67546
    R6        2.06592  -0.00018   0.00019  -0.00093  -0.00075   2.06517
    R7        2.08153  -0.00001   0.00064  -0.00032   0.00032   2.08185
    R8        2.67766  -0.00056  -0.00044  -0.00174  -0.00219   2.67547
    R9        2.87346   0.00076   0.00272   0.00108   0.00379   2.87725
   R10        2.06593  -0.00018   0.00019  -0.00095  -0.00075   2.06517
   R11        2.08152  -0.00001   0.00064  -0.00031   0.00033   2.08185
   R12        2.76420  -0.00089  -0.00115  -0.00293  -0.00407   2.76013
   R13        2.08836  -0.00019   0.00024  -0.00056  -0.00032   2.08804
   R14        2.07003  -0.00019  -0.00022  -0.00052  -0.00074   2.06929
   R15        1.92137  -0.00025   0.00045  -0.00128  -0.00083   1.92054
    A1        1.89344  -0.00001  -0.00155  -0.00216  -0.00370   1.88974
    A2        1.89336   0.00029   0.00089   0.00134   0.00221   1.89557
    A3        1.91298  -0.00003   0.00048   0.00170   0.00217   1.91516
    A4        1.96446  -0.00034  -0.00162  -0.00158  -0.00320   1.96126
    A5        1.90503   0.00011   0.00063   0.00088   0.00151   1.90654
    A6        1.89422  -0.00002   0.00121  -0.00009   0.00112   1.89534
    A7        1.93803  -0.00014  -0.00103  -0.00066  -0.00170   1.93633
    A8        1.93811   0.00011   0.00218  -0.00051   0.00167   1.93979
    A9        1.91057  -0.00010  -0.00324   0.00107  -0.00217   1.90839
   A10        1.85908  -0.00007   0.00146  -0.00378  -0.00232   1.85676
   A11        1.91161   0.00020  -0.00026   0.00348   0.00320   1.91481
   A12        1.90561   0.00001   0.00107   0.00037   0.00145   1.90706
   A13        1.93798   0.00011   0.00531  -0.00209   0.00320   1.94119
   A14        1.93802  -0.00014  -0.00103  -0.00065  -0.00169   1.93633
   A15        1.85907  -0.00007   0.00147  -0.00377  -0.00230   1.85676
   A16        1.91161   0.00020  -0.00026   0.00348   0.00320   1.91481
   A17        1.93815   0.00011   0.00217  -0.00054   0.00164   1.93978
   A18        1.91057  -0.00010  -0.00324   0.00107  -0.00217   1.90840
   A19        1.90560   0.00001   0.00107   0.00038   0.00146   1.90706
   A20        1.89345  -0.00001  -0.00156  -0.00216  -0.00371   1.88974
   A21        1.89335   0.00029   0.00086   0.00137   0.00221   1.89556
   A22        1.91300  -0.00003   0.00045   0.00171   0.00215   1.91515
   A23        1.96446  -0.00034  -0.00160  -0.00159  -0.00320   1.96126
   A24        1.90504   0.00011   0.00062   0.00087   0.00149   1.90653
   A25        1.89419  -0.00002   0.00128  -0.00010   0.00118   1.89537
   A26        1.92320   0.00018   0.00216   0.00024   0.00234   1.92555
   A27        1.92215   0.00004   0.00383   0.00286   0.00658   1.92874
   A28        1.92214   0.00004   0.00382   0.00287   0.00659   1.92873
    D1        1.01632  -0.00008  -0.00300   0.00299  -0.00002   1.01631
    D2        3.08141  -0.00019  -0.00044  -0.00249  -0.00293   3.07848
    D3       -1.09645  -0.00017   0.00018  -0.00165  -0.00148  -1.09793
    D4       -1.12275   0.00016  -0.00063   0.00541   0.00479  -1.11797
    D5        0.94233   0.00006   0.00194  -0.00007   0.00187   0.94421
    D6        3.04766   0.00007   0.00255   0.00077   0.00332   3.05098
    D7        3.09493   0.00003  -0.00288   0.00376   0.00087   3.09581
    D8       -1.12317  -0.00008  -0.00032  -0.00172  -0.00204  -1.12520
    D9        0.98216  -0.00006   0.00030  -0.00088  -0.00059   0.98157
   D10       -1.02689  -0.00008  -0.00380  -0.00332  -0.00712  -1.03401
   D11        3.13235  -0.00027  -0.01239  -0.00896  -0.02137   3.11098
   D12        1.06842   0.00007  -0.00476  -0.00409  -0.00883   1.05959
   D13       -1.05553  -0.00012  -0.01334  -0.00972  -0.02308  -1.07860
   D14       -3.11050  -0.00010  -0.00384  -0.00462  -0.00845  -3.11894
   D15        1.04875  -0.00029  -0.01243  -0.01025  -0.02270   1.02605
   D16       -1.02303  -0.00003   0.00380  -0.00327   0.00054  -1.02250
   D17       -3.13531  -0.00004   0.00083   0.00010   0.00093  -3.13438
   D18        1.08912  -0.00011  -0.00111  -0.00005  -0.00117   1.08795
   D19        1.02305   0.00003  -0.00381   0.00326  -0.00055   1.02249
   D20        3.13535   0.00004  -0.00085  -0.00013  -0.00097   3.13437
   D21       -1.08910   0.00011   0.00110   0.00003   0.00114  -1.08796
   D22       -1.01636   0.00008   0.00302  -0.00296   0.00006  -1.01630
   D23        1.12272  -0.00016   0.00064  -0.00539  -0.00475   1.11797
   D24       -3.09499  -0.00002   0.00294  -0.00373  -0.00079  -3.09578
   D25       -3.08144   0.00019   0.00045   0.00251   0.00297  -3.07847
   D26       -0.94237  -0.00006  -0.00192   0.00009  -0.00184  -0.94421
   D27        1.12311   0.00008   0.00037   0.00175   0.00212   1.12523
   D28        1.09640   0.00017  -0.00015   0.00168   0.00153   1.09794
   D29       -3.04771  -0.00007  -0.00253  -0.00075  -0.00328  -3.05098
   D30       -0.98223   0.00007  -0.00024   0.00091   0.00069  -0.98155
   D31        1.02692   0.00008   0.00379   0.00331   0.00709   1.03401
   D32       -3.13232   0.00026   0.01238   0.00893   0.02134  -3.11098
   D33       -1.06839  -0.00007   0.00478   0.00405   0.00881  -1.05958
   D34        1.05556   0.00012   0.01337   0.00968   0.02306   1.07862
   D35        3.11055   0.00010   0.00378   0.00461   0.00837   3.11892
   D36       -1.04869   0.00029   0.01236   0.01024   0.02262  -1.02607
         Item               Value     Threshold  Converged?
 Maximum Force            0.000887     0.000450     NO 
 RMS     Force            0.000249     0.000300     YES
 Maximum Displacement     0.034482     0.001800     NO 
 RMS     Displacement     0.005964     0.001200     NO 
 Predicted change in Energy=-3.012941D-05
 GradGradGradGradGradGradGradGradGradGradGradGradGradGradGradGradGradGrad

                          Input orientation:                          
 ---------------------------------------------------------------------
 Center     Atomic      Atomic             Coordinates (Angstroms)
 Number     Number       Type             X           Y           Z
 ---------------------------------------------------------------------
      1          6           0        0.266211   -1.393987   -0.044339
      2          6           0        1.197240   -0.340636   -0.629013
      3          8           0        1.091227    0.879150    0.081868
      4          6           0       -0.235199    1.373543    0.056411
      5          6           0       -1.203613    0.364915    0.658971
      6          7           0       -1.099571   -0.879212   -0.099100
      7          1           0        0.590464   -1.617151    0.988114
      8          1           0        0.329433   -2.312903   -0.636513
      9          1           0        2.241999   -0.652048   -0.552827
     10          1           0        0.943144   -0.176611   -1.688354
     11          1           0       -0.228362    2.304194    0.629251
     12          1           0       -0.531764    1.588406   -0.982604
     13          1           0       -0.952463    0.229250    1.726406
     14          1           0       -2.227366    0.746763    0.586894
     15          1           0       -1.754779   -1.569374    0.257635
 ---------------------------------------------------------------------
                    Distance matrix (angstroms):
                    1          2          3          4          5
     1  C    0.000000
     2  C    1.522566   0.000000
     3  O    2.421514   1.415793   0.000000
     4  C    2.814389   2.336686   1.415796   0.000000
     5  C    2.397658   2.814392   2.421524   1.522575   0.000000
     6  N    1.460600   2.417895   2.814993   2.417898   1.460599
     7  H    1.104944   2.147736   2.702511   3.239451   2.693629
     8  H    1.095022   2.154757   3.359405   3.793262   3.346523
     9  H    2.170892   1.092841   2.017841   3.257407   3.791426
    10  H    2.154768   1.101668   2.066458   2.614513   3.226725
    11  H    3.791420   3.257406   2.017844   1.092841   2.170899
    12  H    3.226728   2.614515   2.066457   1.101667   2.154781
    13  H    2.693622   3.239443   2.702507   2.147733   1.104943
    14  H    3.346519   3.793256   3.359410   2.154761   1.095022
    15  H    2.050939   3.318186   3.758446   3.318188   2.050933
                    6          7          8          9         10
     6  N    0.000000
     7  H    2.140749   0.000000
     8  H    2.094358   1.786510   0.000000
     9  H    3.379876   2.456317   2.534433   0.000000
    10  H    2.681802   3.059905   2.459014   1.789549   0.000000
    11  H    3.379878   4.021966   4.819842   4.029808   3.591395
    12  H    2.681814   3.926669   4.010194   3.591393   2.405977
    13  H    2.140748   2.516922   3.699889   4.021961   3.926657
    14  H    2.094350   3.699896   4.170791   4.819839   4.010175
    15  H    1.016307   2.456837   2.386688   4.180020   3.606307
                   11         12         13         14         15
    11  H    0.000000
    12  H    1.789548   0.000000
    13  H    2.456311   3.059907   0.000000
    14  H    2.534443   2.459014   1.786529   0.000000
    15  H    4.180021   3.606318   2.456836   2.386679   0.000000
 Stoichiometry    C4H9NO
 Framework group  C1[X(C4H9NO)]
 Deg. of freedom    39
 Full point group                 C1      NOp   1
 Largest Abelian subgroup         C1      NOp   1
 Largest concise Abelian subgroup C1      NOp   1
                         Standard orientation:                         
 ---------------------------------------------------------------------
 Center     Atomic      Atomic             Coordinates (Angstroms)
 Number     Number       Type             X           Y           Z
 ---------------------------------------------------------------------
      1          6           0        1.198807    0.715160   -0.202281
      2          6           0        1.168364   -0.753546    0.197945
      3          8           0        0.000043   -1.386974   -0.290178
      4          6           0       -1.168322   -0.753617    0.197942
      5          6           0       -1.198851    0.715098   -0.202283
      6          7           0       -0.000040    1.359303    0.328001
      7          1           0        1.258441    0.779283   -1.303750
      8          1           0        2.085364    1.196175    0.224000
      9          1           0        2.014942   -1.296290   -0.229882
     10          1           0        1.203010   -0.833268    1.296178
     11          1           0       -2.014866   -1.296409   -0.229893
     12          1           0       -1.202968   -0.833351    1.296174
     13          1           0       -1.258480    0.779205   -1.303751
     14          1           0       -2.085427    1.196057    0.224018
     15          1           0       -0.000070    2.350704    0.104382
 ---------------------------------------------------------------------
 Rotational constants (GHZ):      4.9533847      4.6463062      2.6972828
 Standard basis: 6-31+G(d) (6D, 7F)
 There are   132 symmetry adapted cartesian basis functions of A   symmetry.
 There are   132 symmetry adapted basis functions of A   symmetry.
   132 basis functions,   228 primitive gaussians,   132 cartesian basis functions
    24 alpha electrons       24 beta electrons
       nuclear repulsion energy       263.8671232015 Hartrees.
 NAtoms=   15 NActive=   15 NUniq=   15 SFac= 1.00D+00 NAtFMM=   60 NAOKFM=F Big=F
 Integral buffers will be    131072 words long.
 Raffenetti 2 integral format.
 Two-electron integral symmetry is turned on.
 One-electron integrals computed using PRISM.
 NBasis=   132 RedAO= T EigKep=  4.28D-05  NBF=   132
 NBsUse=   132 1.00D-06 EigRej= -1.00D+00 NBFU=   132
 Initial guess from the checkpoint file:  "/srv/scratch/z5358697/gauss/Gau-4053264.chk"
 B after Tr=     0.000000    0.000000    0.000000
         Rot=    1.000000   -0.000216    0.000000   -0.000059 Ang=  -0.03 deg.
 ExpMin= 4.38D-02 ExpMax= 5.48D+03 ExpMxC= 8.25D+02 IAcc=2 IRadAn=         4 AccDes= 0.00D+00
 Harris functional with IExCor= 1009 and IRadAn=       4 diagonalized for initial guess.
 HarFok:  IExCor= 1009 AccDes= 0.00D+00 IRadAn=         4 IDoV= 1 UseB2=F ITyADJ=14
 ICtDFT=  3500011 ScaDFX=  1.000000  1.000000  1.000000  1.000000
 FoFCou: FMM=F IPFlag=           0 FMFlag=      100000 FMFlg1=           0
         NFxFlg=           0 DoJE=T BraDBF=F KetDBF=T FulRan=T
         wScrn=  0.000000 ICntrl=     500 IOpCl=  0 I1Cent=   200000004 NGrid=           0
         NMat0=    1 NMatS0=      1 NMatT0=    0 NMatD0=    1 NMtDS0=    0 NMtDT0=    0
 Petite list used in FoFCou.
 Requested convergence on RMS density matrix=1.00D-08 within 128 cycles.
 Requested convergence on MAX density matrix=1.00D-06.
 Requested convergence on             energy=1.00D-06.
 No special actions if energy rises.
 SCF Done:  E(RM062X) =  -287.672200978     A.U. after    9 cycles
            NFock=  9  Conv=0.83D-08     -V/T= 2.0086
 Calling FoFJK, ICntrl=      2127 FMM=F ISym2X=0 I1Cent= 0 IOpClX= 0 NMat=1 NMatS=1 NMatT=0.
 ***** Axes restored to original set *****
 -------------------------------------------------------------------
 Center     Atomic                   Forces (Hartrees/Bohr)
 Number     Number              X              Y              Z
 -------------------------------------------------------------------
      1        6          -0.000090914    0.000163207   -0.000172616
      2        6           0.000079204   -0.000248561   -0.000031696
      3        8           0.000004704    0.000039278   -0.000081980
      4        6          -0.000215996    0.000100969    0.000111236
      5        6           0.000067518   -0.000015644   -0.000251591
      6        7          -0.000128811   -0.000199820    0.000228669
      7        1           0.000139722   -0.000001404   -0.000038695
      8        1           0.000041304   -0.000038980    0.000050114
      9        1           0.000064050   -0.000130473   -0.000078210
     10        1           0.000053639    0.000005781    0.000149640
     11        1          -0.000129432    0.000100928    0.000014348
     12        1           0.000071668   -0.000017048    0.000140591
     13        1           0.000017299    0.000142431    0.000019946
     14        1          -0.000006628    0.000018699    0.000075739
     15        1           0.000032672    0.000080636   -0.000135495
 -------------------------------------------------------------------
 Cartesian Forces:  Max     0.000251591 RMS     0.000112828

 GradGradGradGradGradGradGradGradGradGradGradGradGradGradGradGradGradGrad
 Berny optimization.
 Using GEDIIS/GDIIS optimizer.
 FormGI is forming the generalized inverse of G from B-inverse, IUseBI=4.
 Internal  Forces:  Max     0.000252751 RMS     0.000077765
 Search for a local minimum.
 Step number   4 out of a maximum of   89
 All quantities printed in internal units (Hartrees-Bohrs-Radians)
 Mixed Optimization -- En-DIIS/RFO-DIIS
 Swapping is turned off.
 Update second derivatives using D2CorX and points    1    2    3    4
 DE= -2.80D-05 DEPred=-3.01D-05 R= 9.29D-01
 TightC=F SS=  1.41D+00  RLast= 6.18D-02 DXNew= 8.4853D-01 1.8542D-01
 Trust test= 9.29D-01 RLast= 6.18D-02 DXMaxT set to 5.05D-01
 ITU=  1  1  1  0
     Eigenvalues ---    0.00784   0.00881   0.01233   0.02266   0.03366
     Eigenvalues ---    0.04885   0.05237   0.05376   0.05659   0.05940
     Eigenvalues ---    0.06406   0.06683   0.07631   0.08699   0.08708
     Eigenvalues ---    0.09170   0.10708   0.11486   0.11501   0.11740
     Eigenvalues ---    0.13534   0.16536   0.16893   0.23676   0.28478
     Eigenvalues ---    0.30313   0.33979   0.34037   0.34044   0.34234
     Eigenvalues ---    0.34271   0.34284   0.34301   0.34380   0.34720
[...]
 ! A14   A(3,4,5)              110.9386         -DE/DX =    0.0                 !
 ! A15   A(3,4,11)             106.4436         -DE/DX =    0.0                 !
 ! A16   A(3,4,12)             109.6886         -DE/DX =    0.0                 !
 ! A17   A(5,4,11)             111.1278         -DE/DX =    0.0                 !
 ! A18   A(5,4,12)             109.3428         -DE/DX =    0.0                 !
 ! A19   A(11,4,12)            109.2486         -DE/DX =    0.0                 !
 ! A20   A(4,5,6)              108.3012         -DE/DX =    0.0                 !
 ! A21   A(4,5,13)             108.5528         -DE/DX =    0.0                 !
 ! A22   A(4,5,14)             109.7346         -DE/DX =    0.0                 !
 ! A23   A(6,5,13)             112.4071         -DE/DX =    0.0                 !
 ! A24   A(6,5,14)             109.2546         -DE/DX =    0.0                 !
 ! A25   A(13,5,14)            108.566          -DE/DX =    0.0                 !
 ! A26   A(1,6,5)              110.3549         -DE/DX =    0.0                 !
 ! A27   A(1,6,15)             110.5589         -DE/DX =    0.0                 !
 ! A28   A(5,6,15)             110.5589         -DE/DX =    0.0                 !
 ! D1    D(6,1,2,3)             58.1736         -DE/DX =    0.0                 !
 ! D2    D(6,1,2,9)            176.3893         -DE/DX =    0.0                 !
 ! D3    D(6,1,2,10)           -62.9326         -DE/DX =    0.0                 !
 ! D4    D(7,1,2,3)            -64.1369         -DE/DX =    0.0                 !
 ! D5    D(7,1,2,9)             54.0787         -DE/DX =    0.0                 !
 ! D6    D(7,1,2,10)           174.7568         -DE/DX =    0.0                 !
 ! D7    D(8,1,2,3)            177.3605         -DE/DX =    0.0                 !
 ! D8    D(8,1,2,9)            -64.4238         -DE/DX =    0.0                 !
 ! D9    D(8,1,2,10)            56.2542         -DE/DX =    0.0                 !
 ! D10   D(2,1,6,5)            -59.1943         -DE/DX =    0.0                 !
 ! D11   D(2,1,6,15)           178.1777         -DE/DX =    0.0                 !
 ! D12   D(7,1,6,5)             60.7312         -DE/DX =    0.0                 !
 ! D13   D(7,1,6,15)           -61.8968         -DE/DX =    0.0                 !
 ! D14   D(8,1,6,5)           -178.6836         -DE/DX =    0.0                 !
 ! D15   D(8,1,6,15)            58.6884         -DE/DX =    0.0                 !
 ! D16   D(1,2,3,4)            -58.549          -DE/DX =    0.0                 !
 ! D17   D(9,2,3,4)           -179.5685         -DE/DX =    0.0                 !
 ! D18   D(10,2,3,4)            62.3533         -DE/DX =    0.0                 !
 ! D19   D(2,3,4,5)             58.5489         -DE/DX =    0.0                 !
 ! D20   D(2,3,4,11)           179.5682         -DE/DX =    0.0                 !
 ! D21   D(2,3,4,12)           -62.3534         -DE/DX =    0.0                 !
 ! D22   D(3,4,5,6)            -58.1736         -DE/DX =    0.0                 !
 ! D23   D(3,4,5,13)            64.1368         -DE/DX =    0.0                 !
 ! D24   D(3,4,5,14)          -177.3602         -DE/DX =    0.0                 !
 ! D25   D(11,4,5,6)          -176.3891         -DE/DX =    0.0                 !
 ! D26   D(11,4,5,13)          -54.0787         -DE/DX =    0.0                 !
 ! D27   D(11,4,5,14)           64.4243         -DE/DX =    0.0                 !
 ! D28   D(12,4,5,6)            62.9326         -DE/DX =    0.0                 !
 ! D29   D(12,4,5,13)         -174.757          -DE/DX =    0.0                 !
 ! D30   D(12,4,5,14)          -56.2539         -DE/DX =    0.0                 !
 ! D31   D(4,5,6,1)             59.1943         -DE/DX =    0.0                 !
 ! D32   D(4,5,6,15)          -178.1777         -DE/DX =    0.0                 !
 ! D33   D(13,5,6,1)           -60.7308         -DE/DX =    0.0                 !
 ! D34   D(13,5,6,15)           61.8971         -DE/DX =    0.0                 !
 ! D35   D(14,5,6,1)           178.6833         -DE/DX =    0.0                 !
 ! D36   D(14,5,6,15)          -58.6888         -DE/DX =    0.0                 !
 --------------------------------------------------------------------------------
 GradGradGradGradGradGradGradGradGradGradGradGradGradGradGradGradGradGrad

 1\1\GINC-KATANA2\Freq\RM062X\6-31+G(d)\C4H9N1O1\Z5358697\17-Mar-2025\0
 \\#N Geom=AllCheck Guess=TCheck SCRF=Check GenChk RM062X/6-31+G(d) Fre
 q\\morpholine\\0,1\C,0.2663348963,-1.3941441436,-0.0445433832\C,1.1975
 379281,-0.3410525574,-0.6290001319\O,1.0910862542,0.8790989192,0.08171
 02823\C,-0.2354965213,1.3738364636,0.0567059748\C,-1.20379212,0.365128
 8956,0.6589122962\N,-1.0995380831,-0.8794037844,-0.0985539417\H,0.5917
 949256,-1.617411738,0.9875015023\H,0.3295653472,-2.3131614413,-0.63656
 56716\H,2.2422170844,-0.6531729977,-0.5531057456\H,0.9436260391,-0.176
 9429437,-1.6881510246\H,-0.2294242183,2.3045968336,0.6295770806\H,-0.5
 318753552,1.5887692722,-0.9821234005\H,-0.9525892651,0.2307316083,1.72
 6489658\H,-2.2275793054,0.7469283336,0.5870221411\H,-1.7552676066,-1.5
 695007199,0.2569243638\\Version=ES64L-G09RevD.01\State=1-A\HF=-287.672
 2024\RMSD=2.317e-09\RMSF=4.696e-05\ZeroPoint=0.1374985\Thermal=0.14269
 15\Dipole=-0.4446423,-0.4455337,0.1849981\DipoleDeriv=0.4468718,-0.221
 4549,0.0870343,-0.1076721,0.1292928,-0.0299743,0.0655189,0.0190441,0.3
 146391,0.304451,-0.00455,-0.0109661,-0.1180743,0.67977,0.1584293,-0.08
 87851,0.1882087,0.4826641,-0.8210415,0.184471,0.0873861,0.1804653,-0.8
 740596,-0.1469187,0.0974058,-0.1385445,-0.5335553,0.7069355,-0.242816,
 -0.0548209,-0.1260474,0.3980619,-0.0157435,0.0148838,-0.0523054,0.3618
 902,0.1094179,-0.0176681,0.0735108,-0.1202417,0.3837105,0.1854524,0.06
 69884,0.1130039,0.3976676,-0.5872027,0.0908455,-0.1223702,0.0881662,-0
 .513401,-0.1257548,-0.1156713,-0.1201571,-0.5785974,-0.0841552,0.04921
 44,-0.0304234,0.0213665,0.0154755,0.0243498,-0.1071857,0.1060044,-0.19
 77801,0.0208651,0.0104654,0.0115635,0.046418,-0.1087276,-0.0728254,0.0
 114544,-0.1103354,0.003146,-0.1380839,0.0638879,0.0244389,0.0542906,-0
 .0019835,-0.0132798,-0.0272911,-0.0054228,0.0575561,0.0390658,-0.01111
 19,-0.0847833,0.0140086,-0.034289,0.0578953,0.0082978,-0.0111206,-0.18
 04006,0.0174172,-0.0030674,0.008747,0.0243164,-0.1086763,-0.0692009,0.
 0159965,-0.1142281,0.0087467,-0.0397157,0.0401894,-0.0027623,0.0041532
 ,0.0289319,0.0095701,-0.0685444,0.1013992,-0.1648402,0.0273867,-0.0166
 546,-0.0891433,0.0100716,-0.0519171,0.0361519,-0.0095743,-0.0431577,-0
 .2419248,-0.1307398,0.082676,0.0254917,0.0664493,-0.0020007,-0.012265,
 -0.0237281,-0.0159751,0.048028,0.1285278,-0.0044267,0.0770972,-0.03767
 03,0.059812,0.0141135,0.1602343,0.0835862,0.2227607\Polar=57.2170671,-
 3.406667,58.6365754,-1.78902,1.6670505,54.2418171\PG=C01 [X(C4H9N1O1)]
 \NImag=0\\0.48419733,-0.00780019,0.59867182,0.00776745,0.04828289,0.59
 035200,-0.12587052,-0.03847586,0.03403430,0.64557141,-0.05755986,-0.13
 373701,0.04626002,-0.05419311,0.48490193,0.03506184,0.03729622,-0.1098
 9820,0.02907632,-0.02323822,0.56854174,0.00406070,-0.01903843,-0.01150
 183,-0.09312677,0.02060127,0.00759518,0.39864384,0.00240149,-0.0461031
 0,-0.02565360,-0.01020190,-0.19771203,-0.08219086,-0.09460710,0.374648
 68,-0.00173716,0.00183231,0.00714477,-0.01483565,-0.07615879,-0.118164
 53,0.00997795,0.13348947,0.19409137,0.00507749,-0.00445770,-0.00261438
 ,-0.00962558,0.01973083,0.00656352,-0.23051377,0.06369193,-0.00527515,
 0.47157382,-0.00074288,-0.00040868,0.00238613,0.03997703,-0.02375202,-
 0.00433086,0.03070623,-0.10148482,-0.01376374,-0.00393438,0.61377014,-
 0.00071988,0.00159438,0.00135037,0.02087060,-0.01176440,-0.00312297,-0
 .02224584,-0.00316853,-0.07700520,0.02355640,0.05894984,0.61366672,-0.
 00486618,0.03730096,0.01951346,-0.00001529,-0.00409002,-0.00001671,-0.
 04872682,-0.01602123,0.01741125,-0.11842174,-0.04041023,0.03373220,0.6
 1966984,0.01383836,-0.01564809,-0.01386386,-0.00048337,0.00613350,0.00
 176730,0.01581640,0.00982321,-0.00753388,-0.05899139,-0.14036744,0.044
 43848,-0.04878539,0.50275572,-0.00234411,0.00106595,-0.00562906,0.0021
 4970,0.00120291,-0.00009956,0.00117195,-0.00177846,0.00400420,0.033502
 30,0.03442408,-0.11071325,0.01669498,-0.02035584,0.55079609,-0.2161911
 1,0.04214032,-0.02684022,-0.04025895,0.00905339,0.00237622,0.00622149,
 0.00393218,-0.00098971,0.00201707,-0.02735877,-0.01475558,-0.10108390,
 0.00336593,0.01997231,0.58387731,0.03745823,-0.11894802,0.01076287,-0.
 02780011,0.01084774,-0.00103635,0.00401694,0.00551023,-0.00040959,-0.0
 0113332,-0.03802550,-0.01750180,-0.00330404,-0.18860798,-0.09166365,0.
 10261705,0.59864496,0.01421919,-0.00904534,-0.06751318,0.01554472,-0.0
 0487740,0.00173924,-0.00120269,-0.00058758,0.00094560,-0.00134483,0.00
 855023,0.00833895,0.00730490,-0.04812994,-0.11295974,-0.11413298,0.006
 99406,0.25967354,-0.06427281,0.01166779,-0.05936728,0.00565254,-0.0044
 2644,0.02247854,0.00071613,0.00137972,-0.00159931,-0.00077174,0.000391
 03,0.00044766,0.00081205,-0.00457182,-0.00368195,-0.02537073,0.0155408
 1,-0.03140020,0.08200426,0.01130657,-0.06345969,0.04029655,0.00436193,
 -0.00515496,0.02415100,0.00066535,0.00263443,-0.00105851,0.00039390,-0
 .00048679,0.00004293,0.00061824,0.00142153,0.00375430,0.00974401,-0.00
 273829,0.01016263,-0.01664942,0.06246159,-0.05582924,0.04182250,-0.266
 75749,-0.00331090,0.00081531,-0.01648165,-0.00047247,-0.00040100,0.003
 11255,-0.00043881,-0.00003700,0.00000522,0.00128439,-0.00015940,0.0027
 9910,-0.00804588,0.00113039,0.00232193,0.06897367,-0.05104348,0.289346
 70,-0.04858383,0.00216764,0.00357673,0.00414151,-0.01352608,-0.0143941
 5,-0.00169081,-0.00696940,0.00177057,-0.00226133,0.00027752,0.00032182
 ,-0.00683972,0.00068739,-0.00066634,-0.00526012,0.03466177,0.01789415,
 0.00080687,-0.00676308,-0.00334845,0.05747925,0.00900571,-0.23564104,-
 0.12006123,0.00394587,-0.01611048,-0.01462024,-0.00326599,-0.00483581,
 0.00216850,-0.00119487,0.00107693,-0.00012787,0.00255063,0.00157300,0.
 00096476,0.00283233,-0.01025729,-0.00509618,-0.00083345,0.00701753,0.0
 0365167,-0.01346343,0.25638700,0.00624344,-0.12381656,-0.13275463,-0.0
 0265102,0.01111652,0.00722623,0.00182610,0.00321633,0.00069741,0.00052
 571,0.00008864,-0.00013877,0.00045342,0.00026942,0.00069373,0.00063470
 ,0.00271631,0.00172082,0.00042722,-0.02556521,-0.01553375,-0.00666140,
 0.13325599,0.13704948,-0.01610302,0.00700609,-0.00438494,-0.30466676,0
 .07136909,-0.02230238,-0.00031836,0.00447053,0.00176375,0.00240050,-0.
 00022062,0.00062214,0.00045588,-0.00045958,-0.00060464,-0.00219130,-0.
 00441105,0.00190208,0.00071128,0.00021919,0.00042950,0.00002053,-0.000
 35944,-0.00022461,0.32542602,-0.02074009,0.01052660,-0.00355361,0.0628
 9564,-0.06677339,0.00867960,0.03580013,-0.01881158,-0.00218935,-0.0020
 9163,-0.00442601,-0.00366720,0.00020824,-0.00121862,-0.00017652,-0.004
 17363,-0.00389595,0.00238301,0.00083732,0.00072716,0.00004295,0.000797
 57,0.00052137,-0.00074943,-0.07922706,0.08312259,0.01395392,-0.0036912
 3,0.00083875,-0.02995689,0.01126684,-0.05528045,0.02118008,-0.01124935
 ,-0.00031837,-0.00093916,-0.00235504,-0.00161872,0.00000382,-0.0001890
 8,0.00014971,0.00078298,0.00238997,-0.00012466,-0.00024622,-0.00068941
 ,0.00018530,-0.00045426,0.00000533,0.00022679,0.02270684,-0.00247562,0
 .05485992,0.00372207,-0.00561217,0.02030157,-0.07016439,0.01290963,-0.
 05830416,0.00258108,-0.00035682,0.00217887,0.00153354,-0.00021406,0.00
 314332,-0.00029552,-0.00001322,0.00027520,0.00192382,0.00015214,-0.000
 02007,-0.00203185,-0.00266763,0.00192117,0.00067406,0.00062462,-0.0006
 1741,-0.00465758,0.00571749,-0.02906585,0.06593841,0.00605173,-0.00486
 116,0.02536104,0.01374091,-0.05783406,0.04837311,-0.00355502,-0.008647
 51,-0.04092718,-0.00550326,0.00264619,-0.00272914,0.00057814,-0.000512
 99,0.00017886,0.00087256,0.00132452,-0.00187815,-0.00414125,-0.0028271
 1,0.00213628,0.00073604,0.00059004,-0.00040675,0.00078605,-0.00036179,
 0.00789470,-0.01028969,0.07043417,-0.00489628,0.00516680,-0.01341630,-
 0.05435024,0.04719077,-0.27732363,-0.00180565,-0.01541317,-0.02252450,
 -0.00316484,0.00205089,0.00028127,0.00033236,-0.00060119,-0.00012230,-
 0.00067918,-0.00150915,0.00149585,0.00170368,0.00193425,0.00006682,0.0
 0025398,0.00041652,0.00030740,-0.00064321,0.00124471,0.00003130,0.0614
 7206,-0.03983760,0.31016028,-0.00116643,0.00047888,0.00044746,-0.00613
 464,0.00051667,-0.00156699,-0.00857840,0.03796418,0.02147372,-0.048185
 19,-0.01637729,-0.00885760,0.00307335,-0.01490156,-0.01389313,-0.00343
 724,-0.00443363,0.00229377,0.00024858,-0.00006101,-0.00002398,0.000275
 95,0.00004316,-0.00008883,-0.00023883,0.00169497,0.00078484,0.00005182
 ,-0.00004275,0.00026866,0.06147193,-0.00033136,0.00062724,-0.00024844,
 0.00226575,0.00169987,0.00175480,0.00692794,-0.01251310,-0.00723063,-0
 .00699818,-0.24542088,-0.12082991,0.00022685,-0.01580919,-0.01318870,-
 0.00415104,-0.00211174,0.00261695,0.00008693,-0.00004382,0.00006999,-0
 .00002187,-0.00004259,0.00001042,0.00000831,-0.00060003,-0.00040129,-0
 .00004865,-0.00002925,-0.00021120,0.00186459,0.26703442,0.00019520,0.0
 0006179,-0.00007384,0.00029921,0.00069751,0.00079045,0.00132330,0.0012
 1609,0.00164323,-0.00346800,-0.12530988,-0.13311437,-0.00067609,0.0133
 1834,0.00799821,0.00211243,0.00152327,-0.00066295,-0.00004354,-0.00003
 812,0.00001318,-0.00006001,-0.00001092,-0.00003900,0.00002871,-0.00030
 352,0.00027883,-0.00006665,0.00035866,0.00046569,0.00222033,0.13438118
 ,0.13490198,-0.00040516,0.00048138,0.00065001,0.00077306,-0.00469004,-
 0.00467332,-0.02881418,0.01723591,-0.03211637,-0.06018161,0.01072128,-
 0.05369359,0.00591119,-0.00546898,0.02240404,0.00045452,0.00136125,-0.
 00088641,-0.00018622,-0.00007049,0.00010519,0.00029140,0.00014905,-0.0
 0006102,0.00008509,-0.00013116,0.00046678,0.00062382,0.00035638,0.0016
 5766,0.00117920,-0.00068390,-0.00099844,0.08177569,0.00024774,-0.00055
 251,-0.00004877,0.00068482,0.00168658,0.00409939,0.01242267,-0.0038609
 1,0.01044547,0.00875671,-0.06354666,0.03952517,0.00298138,-0.00449259,
 0.02306051,0.00091567,0.00193001,-0.00002065,-0.00007711,0.00013351,-0
 .00026394,-0.00008061,-0.00008378,-0.00002478,-0.00007541,0.00006093,-
 0.00028312,-0.00025508,0.00011859,-0.00061950,-0.00644185,0.00758965,-
 0.02557661,-0.01641153,0.06240535,-0.00030173,-0.00001631,0.00002686,0
 .00142083,-0.00085938,0.00200145,-0.00809625,0.00167404,0.00408418,-0.
 05481295,0.04307605,-0.28159490,-0.00270189,0.00121875,-0.01597333,-0.
 00091489,-0.00096421,0.00235961,0.00016536,-0.00020344,-0.00026789,-0.
 00005182,0.00007046,0.00000513,-0.00002270,0.00015790,0.00034224,-0.00
 049293,0.00166143,0.00019887,-0.00268807,0.00341273,-0.01375689,0.0658
 4249,-0.05120797,0.30235220,0.00162743,-0.00040247,0.00327362,-0.00026
 265,-0.00003396,0.00027966,0.00237760,0.00044839,-0.00107753,0.0038204
 4,-0.00506478,0.02152956,-0.06840029,0.01175193,-0.05409309,0.00229773
 ,-0.00146240,0.00086940,0.00077423,-0.00057488,-0.00074127,0.00003077,
 -0.00000036,-0.00013367,-0.00000834,0.00001523,-0.00003721,-0.00009812
 ,0.00003747,-0.00022567,0.00069943,0.00067271,-0.00069647,-0.00228451,
 -0.00271778,0.00222108,0.06487546,-0.00542919,0.00250109,-0.00214261,0
 .00037392,-0.00068326,-0.00003795,0.00031835,0.00178471,-0.00246832,0.
 00715070,-0.00510528,0.02500124,0.00997951,-0.05606087,0.03698136,-0.0
 0346590,-0.00620542,-0.03797616,0.00055875,0.00021474,0.00202240,0.000
 00496,-0.00007966,0.00054657,0.00009042,0.00022868,0.00002896,0.000079
 65,-0.00030943,0.00014221,0.00063024,0.00044924,-0.00034048,-0.0041040
 7,-0.00244981,0.00214706,-0.00780770,0.06582975,-0.00210109,0.00142995
 ,0.00090406,0.00013891,-0.00081648,-0.00030740,-0.00009265,-0.00136127
 ,0.00230071,-0.00520948,0.00444190,-0.01469968,-0.05229522,0.03991422,
 -0.27003059,-0.00297721,-0.01264231,-0.02187941,0.00196517,-0.00067396
 ,0.00008404,0.00022212,-0.00017497,0.00043605,0.00012519,0.00007290,-0
 .00000241,-0.00028753,0.00010073,0.00008695,0.00027981,0.00030761,0.00
 047509,0.00178519,0.00176255,-0.00005786,0.05869393,-0.03316245,0.3031
 0926,0.00204381,0.00014391,0.00033651,0.00057174,-0.00134678,-0.001051
 10,-0.00414979,-0.00318996,0.00333434,-0.01663918,0.01039649,-0.004430
 41,-0.28630542,0.08462267,-0.01867111,0.00086264,0.00108695,0.00077038
 ,0.00012298,-0.00006978,-0.00002372,-0.00015492,-0.00013275,-0.0000478
 9,-0.00003117,0.00008756,0.00001225,-0.00002914,0.00015138,0.00015457,
 0.00024892,-0.00037775,-0.00033648,0.00083336,0.00017693,0.00039218,-0
 .00532862,0.00134103,-0.00077309,0.30768121,-0.00163054,-0.00549466,-0
 .00332137,-0.00029342,-0.00211508,-0.00053849,-0.00665675,-0.00177958,
 0.00332762,-0.01837851,0.01173525,-0.00396224,0.07916405,-0.07784185,0
 .00911095,0.03205732,-0.01382039,-0.00209477,-0.00017176,0.00008284,0.
 00014843,0.00182388,-0.00051233,-0.00028043,0.00003846,0.00027189,0.00
 008072,-0.00000055,0.00027668,0.00007860,0.00075275,0.00026993,-0.0007
 9855,0.00094030,0.00065329,0.00000886,0.00531438,-0.00125113,0.0011415
 5,-0.09328767,0.08913493,-0.00100532,-0.00281168,-0.00112207,-0.000207
 14,0.00012062,0.00022017,0.00268727,0.00178547,0.00010009,0.01209451,-
 0.00607704,0.00016095,-0.02478812,0.00998309,-0.05283364,0.02017836,-0
 .00811182,-0.00083903,0.00060038,-0.00034889,0.00018134,0.00083268,-0.
 00039794,0.00031377,0.00000125,0.00002611,-0.00004636,-0.00003064,0.00
 001139,-0.00003478,-0.00049989,0.00001159,0.00024985,-0.00036683,-0.00
 053030,0.00008487,-0.02931515,0.00966258,-0.00112905,0.02015545,-0.003
 90516,0.05410089,-0.02326977,-0.02560013,0.01480753,-0.00658472,0.0056
 8543,-0.00112246,0.00131807,-0.00017792,-0.00027958,0.00017727,0.00185
 343,0.00047921,0.00503257,0.00359261,-0.00221611,-0.20386124,-0.154350
 57,0.08818861,0.00078443,-0.00045291,-0.00047918,0.00107038,0.00009891
 ,0.00037526,-0.00088395,-0.00169059,0.00080807,0.00022798,0.00022131,-
 0.00007789,0.00049155,0.00055967,0.00016649,-0.00005566,-0.00012656,0.
 00004130,-0.00012056,0.00027932,0.00052592,0.00027356,0.00032807,-0.00
 033681,0.22540009,0.01392426,0.01252720,-0.00445600,0.00320190,-0.0013
 9733,-0.00012846,-0.00015199,0.00134717,0.00047662,0.00295916,-0.00620
 443,-0.00580094,-0.02099709,-0.02114734,0.01641950,-0.16838141,-0.2336
 4689,0.07899928,0.00040890,0.00001732,0.00006490,-0.00033231,0.0003971
 1,-0.00037704,0.00076503,0.00062815,-0.00033236,-0.00002566,-0.0000069
 0,-0.00003295,-0.00168735,-0.00109975,0.00082124,0.00031462,0.00040834
 ,-0.00017599,-0.00017577,0.00113666,-0.00033999,0.00039779,0.00039022,
 0.00058198,0.16977993,0.24665047,-0.00850624,0.00082833,-0.00345205,0.
 00177728,-0.00095584,0.00015910,-0.00034445,0.00042242,-0.00011150,0.0
 0102516,-0.00209419,-0.00179564,-0.01625275,-0.02007640,0.00192044,0.1
 2327865,0.10832201,-0.07461657,-0.00042318,-0.00072065,0.00092461,0.00
 076439,-0.00004389,-0.00021064,0.00060300,0.00050806,0.00047814,-0.000
 40694,-0.00029738,0.00032708,-0.00015009,-0.00045510,0.00083054,-0.000
 11536,-0.00031745,0.00019545,-0.00054721,-0.00040441,0.00071021,0.0001
 7812,0.00100427,0.00059301,-0.10088037,-0.08571979,0.07404782\\0.00009
 160,-0.00010173,0.00003050,0.00008691,0.00006717,0.00004523,-0.0000575
 9,-0.00003991,-0.00002096,0.00009828,0.00005497,0.00003905,-0.00005931
 ,0.00007632,0.00010412,-0.00004699,0.00000762,-0.00011830,-0.00003196,
 0.00001102,-0.00001916,-0.00000395,0.00001851,-0.00001710,-0.00000755,
 0.00000172,-0.00000113,-0.00002541,-0.00002607,-0.00000914,-0.00000071
 ,-0.00000664,-0.00000433,-0.00003291,-0.00001695,-0.00000537,-0.000004
 28,-0.00002131,-0.00003273,0.00001012,0.00000240,-0.00002433,-0.000016
 25,-0.00002710,0.00003364\\\@


 HEAVEN'S NET CASTS WIDE.
 THOUGH ITS MESHES ARE COARSE, NOTHING SLIPS THROUGH.

                                          -- LAO-TSU
 Job cpu time:       0 days  0 hours  3 minutes 34.2 seconds.
 File lengths (MBytes):  RWF=    133 Int=      0 D2E=      0 Chk=      3 Scr=      2
 Normal termination of Gaussian 09 at Mon Mar 17 18:53:07 2025.
