 Entering Gaussian System, Link 0=g09
 Initial command:
 /apps/z_install_tree/linux-rocky8-ivybridge/gcc-12.2.0/gaussian-09-D.01-wczn3gur5lpur3omlkzwa2l5ecyxp5ef/g09/l1.exe "/srv/scratch/z5358697/gauss/Gau-599725.inp" -scrdir="/srv/scratch/z5358697/gauss/"
 Entering Link 1 = /apps/z_install_tree/linux-rocky8-ivybridge/gcc-12.2.0/gaussian-09-D.01-wczn3gur5lpur3omlkzwa2l5ecyxp5ef/g09/l1.exe PID=    599726.
  
 Copyright (c) 1988,1990,1992,1993,1995,1998,2003,2009,2013,
            Gaussian, Inc.  All Rights Reserved.
  
 This is part of the Gaussian(R) 09 program.  It is based on
 the Gaussian(R) 03 system (copyright 2003, Gaussian, Inc.),
 the Gaussian(R) 98 system (copyright 1998, Gaussian, Inc.),
 the Gaussian(R) 94 system (copyright 1995, Gaussian, Inc.),
 the Gaussian 92(TM) system (copyright 1992, Gaussian, Inc.),
 the Gaussian 90(TM) system (copyright 1990, Gaussian, Inc.),
 the Gaussian 88(TM) system (copyright 1988, Gaussian, Inc.),
 the Gaussian 86(TM) system (copyright 1986, Carnegie Mellon
 University), and the Gaussian 82(TM) system (copyright 1983,
 Carnegie Mellon University). Gaussian is a federally registered
 trademark of Gaussian, Inc.
  
 This software contains proprietary and confidential information,
 including trade secrets, belonging to Gaussian, Inc.
  
 This software is provided under written license and may be
 used, copied, transmitted, or stored only in accord with that
 written license.
  
 The following legend is applicable only to US Government
 contracts under FAR:
  
                    RESTRICTED RIGHTS LEGEND
  
 Use, reproduction and disclosure by the US Government is
 subject to restrictions as set forth in subparagraphs (a)
 and (c) of the Commercial Computer Software - Restricted
 Rights clause in FAR 52.227-19.
  
 Gaussian, Inc.
 340 Quinnipiac St., Bldg. 40, Wallingford CT 06492
  
  
 ---------------------------------------------------------------
 Warning -- This program may not be used in any manner that
 competes with the business of Gaussian, Inc. or will provide
 assistance to any competitor of Gaussian, Inc.  The licensee
 of this program is prohibited from giving any competitor of
 Gaussian, Inc. access to this program.  By using this program,
 the user acknowledges that Gaussian, Inc. is engaged in the
 business of creating and licensing software in the field of
 computational chemistry and represents and warrants to the
 licensee that it is not a competitor of Gaussian, Inc. and that
 it will not use this program in any manner prohibited above.
 ---------------------------------------------------------------
  

 Cite this work as:
 Gaussian 09, Revision D.01,
 M. J. Frisch, G. W. Trucks, H. B. Schlegel, G. E. Scuseria, 
 M. A. Robb, J. R. Cheeseman, G. Scalmani, V. Barone, B. Mennucci, 
 G. A. Petersson, H. Nakatsuji, M. Caricato, X. Li, H. P. Hratchian, 
 A. F. Izmaylov, J. Bloino, G. Zheng, J. L. Sonnenberg, M. Hada, 
 M. Ehara, K. Toyota, R. Fukuda, J. Hasegawa, M. Ishida, T. Nakajima, 
 Y. Honda, O. Kitao, H. Nakai, T. Vreven, J. A. Montgomery, Jr., 
 J. E. Peralta, F. Ogliaro, M. Bearpark, J. J. Heyd, E. Brothers, 
 K. N. Kudin, V. N. Staroverov, T. Keith, R. Kobayashi, J. Normand, 
 K. Raghavachari, A. Rendell, J. C. Burant, S. S. Iyengar, J. Tomasi, 
 M. Cossi, N. Rega, J. M. Millam, M. Klene, J. E. Knox, J. B. Cross, 
 V. Bakken, C. Adamo, J. Jaramillo, R. Gomperts, R. E. Stratmann, 
 O. Yazyev, A. J. Austin, R. Cammi, C. Pomelli, J. W. Ochterski, 
 R. L. Martin, K. Morokuma, V. G. Zakrzewski, G. A. Voth, 
 P. Salvador, J. J. Dannenberg, S. Dapprich, A. D. Daniels, 
 O. Farkas, J. B. Foresman, J. V. Ortiz, J. Cioslowski, 
 and D. J. Fox, Gaussian, Inc., Wallingford CT, 2013.
 
 ******************************************
 Gaussian 09:  ES64L-G09RevD.01 24-Apr-2013
                15-Mar-2025 
 ******************************************
 ---------------------------------
 #m062X/6-31+G(d) OPT Freq=noraman
 ---------------------------------
 1/14=-1,18=20,19=15,26=3,38=1/1,3;
 2/9=110,12=2,17=6,18=5,40=1/2;
 3/5=1,6=6,7=11,11=2,16=1,25=1,30=1,71=1,74=-55/1,2,3;
 4//1;
 5/5=2,38=5/2;
 6/7=2,8=2,9=2,10=2,28=1/1;
 7//1,2,3,16;
 1/14=-1,18=20,19=15,26=3/3(2);
 2/9=110/2;
 99//99;
 2/9=110/2;
 3/5=1,6=6,7=11,11=2,16=1,25=1,30=1,71=1,74=-55/1,2,3;
 4/5=5,16=3,69=1/1;
 5/5=2,38=5/2;
 7//1,2,3,16;
 1/14=-1,18=20,19=15,26=3/3(-5);
 2/9=110/2;
 6/7=2,8=2,9=2,10=2,19=2,28=1/1;
 99/9=1/99;
 --------------------------
 1,2,3,5-tetrachlorobenzene
 --------------------------
 Symbolic Z-matrix:
 Charge =  0 Multiplicity = 1
 C                     1.8851   -1.0363   -0.1124 
 C                     2.921    -1.6309    0.6081 
 C                     2.8783   -1.652     2.0022 
 C                     1.7997   -1.0786    2.6757 
 C                     0.7638   -0.4841    1.9551 
 C                     0.8066   -0.463     0.561 
 Cl                   -0.4406    0.2555   -0.4001 
 Cl                   -0.5805    0.2294    2.7943 
 Cl                    1.8165   -1.1434    4.405 
 Cl                    4.2518   -2.3389   -0.223 
 H                     1.922    -1.0207   -1.1999 
 H                     3.6878   -2.117     2.561 
 

 GradGradGradGradGradGradGradGradGradGradGradGradGradGradGradGradGradGrad
 Berny optimization.
 Initialization pass.
                           ----------------------------
                           !    Initial Parameters    !
                           ! (Angstroms and Degrees)  !
 --------------------------                            --------------------------
 ! Name  Definition              Value          Derivative Info.                !
 --------------------------------------------------------------------------------
 ! R1    R(1,2)                  1.3949         estimate D2E/DX2                !
 ! R2    R(1,6)                  1.3947         estimate D2E/DX2                !
 ! R3    R(1,11)                 1.0882         estimate D2E/DX2                !
 ! R4    R(2,3)                  1.3949         estimate D2E/DX2                !
 ! R5    R(2,10)                 1.7213         estimate D2E/DX2                !
 ! R6    R(3,4)                  1.3949         estimate D2E/DX2                !
 ! R7    R(3,12)                 1.088          estimate D2E/DX2                !
 ! R8    R(4,5)                  1.3949         estimate D2E/DX2                !
 ! R9    R(4,9)                  1.7306         estimate D2E/DX2                !
 ! R10   R(5,6)                  1.3949         estimate D2E/DX2                !
 ! R11   R(5,8)                  1.738          estimate D2E/DX2                !
 ! R12   R(6,7)                  1.7307         estimate D2E/DX2                !
 ! A1    A(2,1,6)              120.0052         estimate D2E/DX2                !
 ! A2    A(2,1,11)             119.8085         estimate D2E/DX2                !
 ! A3    A(6,1,11)             120.1863         estimate D2E/DX2                !
 ! A4    A(1,2,3)              119.9958         estimate D2E/DX2                !
 ! A5    A(1,2,10)             120.0053         estimate D2E/DX2                !
 ! A6    A(3,2,10)             119.9989         estimate D2E/DX2                !
 ! A7    A(2,3,4)              119.9999         estimate D2E/DX2                !
 ! A8    A(2,3,12)             119.8008         estimate D2E/DX2                !
 ! A9    A(4,3,12)             120.1993         estimate D2E/DX2                !
 ! A10   A(3,4,5)              119.9999         estimate D2E/DX2                !
 ! A11   A(3,4,9)              117.3592         estimate D2E/DX2                !
 ! A12   A(5,4,9)              122.6409         estimate D2E/DX2                !
 ! A13   A(4,5,6)              119.9967         estimate D2E/DX2                !
 ! A14   A(4,5,8)              119.9962         estimate D2E/DX2                !
 ! A15   A(6,5,8)              120.0071         estimate D2E/DX2                !
 ! A16   A(1,6,5)              120.0026         estimate D2E/DX2                !
 ! A17   A(1,6,7)              117.3712         estimate D2E/DX2                !
 ! A18   A(5,6,7)              122.6262         estimate D2E/DX2                !
 ! D1    D(6,1,2,3)             -0.0063         estimate D2E/DX2                !
 ! D2    D(6,1,2,10)           179.9802         estimate D2E/DX2                !
 ! D3    D(11,1,2,3)           179.9404         estimate D2E/DX2                !
 ! D4    D(11,1,2,10)           -0.0731         estimate D2E/DX2                !
 ! D5    D(2,1,6,5)              0.004          estimate D2E/DX2                !
 ! D6    D(2,1,6,7)           -179.9871         estimate D2E/DX2                !
 ! D7    D(11,1,6,5)          -179.9425         estimate D2E/DX2                !
 ! D8    D(11,1,6,7)             0.0664         estimate D2E/DX2                !
 ! D9    D(1,2,3,4)              0.0043         estimate D2E/DX2                !
 ! D10   D(1,2,3,12)           179.9741         estimate D2E/DX2                !
 ! D11   D(10,2,3,4)          -179.9822         estimate D2E/DX2                !
 ! D12   D(10,2,3,12)           -0.0123         estimate D2E/DX2                !
 ! D13   D(2,3,4,5)              0.0            estimate D2E/DX2                !
 ! D14   D(2,3,4,9)            179.9954         estimate D2E/DX2                !
 ! D15   D(12,3,4,5)          -179.9697         estimate D2E/DX2                !
 ! D16   D(12,3,4,9)             0.0257         estimate D2E/DX2                !
 ! D17   D(3,4,5,6)             -0.0023         estimate D2E/DX2                !
 ! D18   D(3,4,5,8)            179.9615         estimate D2E/DX2                !
 ! D19   D(9,4,5,6)           -179.9974         estimate D2E/DX2                !
 ! D20   D(9,4,5,8)             -0.0336         estimate D2E/DX2                !
 ! D21   D(4,5,6,1)              0.0003         estimate D2E/DX2                !
 ! D22   D(4,5,6,7)            179.9909         estimate D2E/DX2                !
 ! D23   D(8,5,6,1)           -179.9634         estimate D2E/DX2                !
 ! D24   D(8,5,6,7)              0.0272         estimate D2E/DX2                !
 --------------------------------------------------------------------------------
 Trust Radius=3.00D-01 FncErr=1.00D-07 GrdErr=1.00D-06
 Number of steps in this run=     64 maximum allowed number of steps=    100.
 GradGradGradGradGradGradGradGradGradGradGradGradGradGradGradGradGradGrad

                          Input orientation:                          
 ---------------------------------------------------------------------
 Center     Atomic      Atomic             Coordinates (Angstroms)
 Number     Number       Type             X           Y           Z
 ---------------------------------------------------------------------
      1          6           0        1.885100   -1.036300   -0.112400
      2          6           0        2.921000   -1.630900    0.608100
      3          6           0        2.878300   -1.652000    2.002200
      4          6           0        1.799700   -1.078600    2.675700
      5          6           0        0.763800   -0.484100    1.955100
      6          6           0        0.806600   -0.463000    0.561000
      7         17           0       -0.440600    0.255500   -0.400100
      8         17           0       -0.580500    0.229400    2.794300
      9         17           0        1.816500   -1.143400    4.405000
     10         17           0        4.251800   -2.338900   -0.223000
     11          1           0        1.922000   -1.020700   -1.199900
     12          1           0        3.687800   -2.117000    2.561000
 ---------------------------------------------------------------------
                    Distance matrix (angstroms):
                    1          2          3          4          5
     1  C    0.000000
     2  C    1.394904   0.000000
     3  C    2.416002   1.394913   0.000000
     4  C    2.789728   2.416054   1.394908   0.000000
     5  C    2.415946   2.789816   2.416054   1.394913   0.000000
     6  C    1.394741   2.415967   2.789753   2.416023   1.394916
     7  Cl   2.675892   3.984385   4.519369   4.032284   2.746735
     8  Cl   4.016228   4.527769   4.016265   2.718507   1.737953
     9  Cl   4.519190   3.984222   2.675732   1.730595   2.746792
    10  Cl   2.703751   1.721342   2.703673   4.000451   4.511158
    11  H    1.088238   2.153882   3.400955   3.877961   3.403438
    12  H    3.400692   2.153623   1.088013   2.157858   3.403418
                    6          7          8          9         10
     6  C    0.000000
     7  Cl   1.730741   0.000000
     8  Cl   2.718656   3.197569   0.000000
     9  Cl   4.032267   5.490028   3.197584   0.000000
    10  Cl   4.000382   5.364783   6.249111   5.364540   0.000000
    11  H    2.157757   2.801829   4.876360   5.607235   2.849553
    12  H    3.877761   5.607188   4.876311   2.801785   2.849209
                   11         12
    11  H    0.000000
    12  H    4.297010   0.000000
 Stoichiometry    C6H2Cl4
 Framework group  C1[X(C6H2Cl4)]
 Deg. of freedom    30
 Full point group                 C1      NOp   1
 Largest Abelian subgroup         C1      NOp   1
 Largest concise Abelian subgroup C1      NOp   1
                         Standard orientation:                         
 ---------------------------------------------------------------------
 Center     Atomic      Atomic             Coordinates (Angstroms)
 Number     Number       Type             X           Y           Z
 ---------------------------------------------------------------------
      1          6           0       -1.155316   -1.208095    0.000288
      2          6           0       -1.852951   -0.000178    0.000164
      3          6           0       -1.155589    1.207907    0.000212
      4          6           0        0.239318    1.208014    0.000294
      5          6           0        0.936865    0.000035    0.000327
      6          6           0        0.239425   -1.208009    0.000327
      7         17           0        1.035235   -2.744938    0.000137
      8         17           0        2.674817    0.000278   -0.000584
      9         17           0        1.034527    2.745090    0.000225
     10         17           0       -3.574293   -0.000281   -0.000401
     11          1           0       -1.702439   -2.148795    0.001232
     12          1           0       -1.702942    2.148215   -0.000311
 ---------------------------------------------------------------------
 Rotational constants (GHZ):      0.8334945      0.5857851      0.3440116
 Standard basis: 6-31+G(d) (6D, 7F)
 There are   210 symmetry adapted cartesian basis functions of A   symmetry.
 There are   210 symmetry adapted basis functions of A   symmetry.
   210 basis functions,   424 primitive gaussians,   210 cartesian basis functions
    53 alpha electrons       53 beta electrons
       nuclear repulsion energy       831.1698309423 Hartrees.
 NAtoms=   12 NActive=   12 NUniq=   12 SFac= 1.00D+00 NAtFMM=   60 NAOKFM=F Big=F
 Integral buffers will be    131072 words long.
 Raffenetti 2 integral format.
 Two-electron integral symmetry is turned on.
 One-electron integrals computed using PRISM.
 NBasis=   210 RedAO= T EigKep=  1.36D-06  NBF=   210
 NBsUse=   210 1.00D-06 EigRej= -1.00D+00 NBFU=   210
 ExpMin= 4.38D-02 ExpMax= 2.52D+04 ExpMxC= 3.78D+03 IAcc=2 IRadAn=         4 AccDes= 0.00D+00
 Harris functional with IExCor= 1009 and IRadAn=       4 diagonalized for initial guess.
 HarFok:  IExCor= 1009 AccDes= 0.00D+00 IRadAn=         4 IDoV= 1 UseB2=F ITyADJ=14
 ICtDFT=  3500011 ScaDFX=  1.000000  1.000000  1.000000  1.000000
 FoFCou: FMM=F IPFlag=           0 FMFlag=      100000 FMFlg1=           0
         NFxFlg=           0 DoJE=T BraDBF=F KetDBF=T FulRan=T
         wScrn=  0.000000 ICntrl=     500 IOpCl=  0 I1Cent=   200000004 NGrid=           0
         NMat0=    1 NMatS0=      1 NMatT0=    0 NMatD0=    1 NMtDS0=    0 NMtDT0=    0
 Petite list used in FoFCou.
 Requested convergence on RMS density matrix=1.00D-08 within 128 cycles.
 Requested convergence on MAX density matrix=1.00D-06.
 Requested convergence on             energy=1.00D-06.
 No special actions if energy rises.
 SCF Done:  E(RM062X) =  -2070.41052258     A.U. after   15 cycles
            NFock= 15  Conv=0.39D-08     -V/T= 2.0034

 **********************************************************************

            Population analysis using the SCF density.

 **********************************************************************

 Orbital symmetries:
       Occupied  (A) (A) (A) (A) (A) (A) (A) (A) (A) (A) (A) (A)
                 (A) (A) (A) (A) (A) (A) (A) (A) (A) (A) (A) (A)
                 (A) (A) (A) (A) (A) (A) (A) (A) (A) (A) (A) (A)
                 (A) (A) (A) (A) (A) (A) (A) (A) (A) (A) (A) (A)
                 (A) (A) (A) (A) (A)
       Virtual   (A) (A) (A) (A) (A) (A) (A) (A) (A) (A) (A) (A)
                 (A) (A) (A) (A) (A) (A) (A) (A) (A) (A) (A) (A)
                 (A) (A) (A) (A) (A) (A) (A) (A) (A) (A) (A) (A)
                 (A) (A) (A) (A) (A) (A) (A) (A) (A) (A) (A) (A)
                 (A) (A) (A) (A) (A) (A) (A) (A) (A) (A) (A) (A)
                 (A) (A) (A) (A) (A) (A) (A) (A) (A) (A) (A) (A)
                 (A) (A) (A) (A) (A) (A) (A) (A) (A) (A) (A) (A)
                 (A) (A) (A) (A) (A) (A) (A) (A) (A) (A) (A) (A)
                 (A) (A) (A) (A) (A) (A) (A) (A) (A) (A) (A) (A)
                 (A) (A) (A) (A) (A) (A) (A) (A) (A) (A) (A) (A)
                 (A) (A) (A) (A) (A) (A) (A) (A) (A) (A) (A) (A)
                 (A) (A) (A) (A) (A) (A) (A) (A) (A) (A) (A) (A)
                 (A) (A) (A) (A) (A) (A) (A) (A) (A) (A) (A) (A)
                 (A)
 The electronic state is 1-A.
 Alpha  occ. eigenvalues -- -102.69866-102.69865-102.69745-102.69555 -10.65879
 Alpha  occ. eigenvalues --  -10.65854 -10.65740 -10.65202 -10.60348 -10.60347
 Alpha  occ. eigenvalues --   -9.84495  -9.84494  -9.84423  -9.84158  -7.56926
 Alpha  occ. eigenvalues --   -7.56925  -7.56844  -7.56592  -7.56224  -7.56223
 Alpha  occ. eigenvalues --   -7.56192  -7.56191  -7.56152  -7.56135  -7.55889
 Alpha  occ. eigenvalues --   -7.55851  -1.06291  -1.01281  -1.00563  -0.96855
 Alpha  occ. eigenvalues --   -0.93194  -0.86020  -0.83902  -0.72760  -0.70649
 Alpha  occ. eigenvalues --   -0.61364  -0.60950  -0.56173  -0.53242  -0.53219
 Alpha  occ. eigenvalues --   -0.53007  -0.47941  -0.47918  -0.46619  -0.45716
 Alpha  occ. eigenvalues --   -0.42094  -0.41767  -0.40703  -0.40238  -0.38795
 Alpha  occ. eigenvalues --   -0.38368  -0.32726  -0.31624
 Alpha virt. eigenvalues --   -0.02540  -0.02020  -0.00500   0.00820   0.02413
 Alpha virt. eigenvalues --    0.02459   0.04009   0.04229   0.05086   0.05220
 Alpha virt. eigenvalues --    0.06387   0.07960   0.07997   0.08478   0.08726
 Alpha virt. eigenvalues --    0.09302   0.09954   0.10792   0.10985   0.11704
 Alpha virt. eigenvalues --    0.11892   0.11906   0.12470   0.12733   0.14773
 Alpha virt. eigenvalues --    0.15368   0.15699   0.15738   0.16427   0.17271
 Alpha virt. eigenvalues --    0.17277   0.17607   0.18653   0.19595   0.19905
 Alpha virt. eigenvalues --    0.21405   0.21730   0.22474   0.23195   0.24020
 Alpha virt. eigenvalues --    0.24454   0.24757   0.25545   0.26763   0.27171
 Alpha virt. eigenvalues --    0.28821   0.30087   0.30704   0.31526   0.31680
 Alpha virt. eigenvalues --    0.32212   0.35128   0.35141   0.48032   0.50561
 Alpha virt. eigenvalues --    0.56694   0.56746   0.58823   0.60549   0.60597
 Alpha virt. eigenvalues --    0.63399   0.63665   0.64028   0.65684   0.66326
 Alpha virt. eigenvalues --    0.66841   0.67034   0.67464   0.69632   0.69727
 Alpha virt. eigenvalues --    0.72629   0.72973   0.73922   0.74612   0.74751
 Alpha virt. eigenvalues --    0.75222   0.76526   0.76935   0.79422   0.79841
 Alpha virt. eigenvalues --    0.85971   0.86418   0.86603   0.88301   0.90873
 Alpha virt. eigenvalues --    0.91383   0.91883   0.91972   0.92083   0.95471
 Alpha virt. eigenvalues --    0.95920   0.95998   0.96230   0.96480   0.97781
 Alpha virt. eigenvalues --    0.97941   0.99991   1.02952   1.08349   1.09112
 Alpha virt. eigenvalues --    1.10109   1.10756   1.12494   1.13892   1.14341
 Alpha virt. eigenvalues --    1.21010   1.23566   1.23999   1.24518   1.25129
 Alpha virt. eigenvalues --    1.28427   1.34921   1.42062   1.45107   1.46819
 Alpha virt. eigenvalues --    1.48231   1.50064   1.50641   1.54666   1.57890
 Alpha virt. eigenvalues --    1.57995   1.59107   1.77896   1.82065   1.82816
 Alpha virt. eigenvalues --    1.95625   1.99887   2.00367   2.09491   2.11291
 Alpha virt. eigenvalues --    2.13148   2.13282   2.17503   2.20924   2.26186
 Alpha virt. eigenvalues --    2.27088   2.30331   2.53365   2.56504   2.60056
 Alpha virt. eigenvalues --    2.65956   2.68605   2.71681   2.71769   2.85531
 Alpha virt. eigenvalues --    3.00610   3.26872   4.16789   4.26062   4.26997
 Alpha virt. eigenvalues --    4.34992   4.36968   4.41500   4.43800   4.45992
 Alpha virt. eigenvalues --    4.47999   4.66388
          Condensed to atoms (all electrons):
               1          2          3          4          5          6
     1  C    8.894773  -0.017171  -1.394214  -1.193436   0.072037  -0.257394
     2  C   -0.017171   6.195677  -0.016252   0.174770  -0.435678   0.174657
     3  C   -1.394214  -0.016252   8.890872  -0.256230   0.073250  -1.191757
     4  C   -1.193436   0.174770  -0.256230  10.849033  -3.867964   0.895147
     5  C    0.072037  -0.435678   0.073250  -3.867964  14.045060  -3.868976
     6  C   -0.257394   0.174657  -1.191757   0.895147  -3.868976  10.848591
     7  Cl  -0.077341   0.052015   0.019723   0.020075  -0.237037   0.082185
     8  Cl   0.077683  -0.071086   0.077657  -0.388871   0.527277  -0.388821
     9  Cl   0.019731   0.051981  -0.077302   0.082127  -0.237085   0.020058
    10  Cl  -0.078812  -0.165550  -0.078802   0.076793   0.018614   0.076846
    11  H    0.118058   0.004672   0.093805  -0.016978   0.113801  -0.006589
    12  H    0.093823   0.004550   0.118544  -0.006826   0.113691  -0.017007
               7          8          9         10         11         12
     1  C   -0.077341   0.077683   0.019731  -0.078812   0.118058   0.093823
     2  C    0.052015  -0.071086   0.051981  -0.165550   0.004672   0.004550
     3  C    0.019723   0.077657  -0.077302  -0.078802   0.093805   0.118544
     4  C    0.020075  -0.388871   0.082127   0.076793  -0.016978  -0.006826
     5  C   -0.237037   0.527277  -0.237085   0.018614   0.113801   0.113691
     6  C    0.082185  -0.388821   0.020058   0.076846  -0.006589  -0.017007
     7  Cl  16.864682   0.023822  -0.001114  -0.002019  -0.000829   0.000225
     8  Cl   0.023822  16.849962   0.023819  -0.000195   0.000311   0.000310
     9  Cl  -0.001114   0.023819  16.864689  -0.002017   0.000224  -0.000825
    10  Cl  -0.002019  -0.000195  -0.002017  16.922037   0.002284   0.002287
    11  H   -0.000829   0.000311   0.000224   0.002284   0.434765  -0.000130
    12  H    0.000225   0.000310  -0.000825   0.002287  -0.000130   0.434773
 Mulliken charges:
               1
     1  C   -0.257736
     2  C    0.047415
     3  C   -0.259293
     4  C   -0.367638
     5  C   -0.316989
     6  C   -0.366941
     7  Cl   0.255612
     8  Cl   0.268132
     9  Cl   0.255713
    10  Cl   0.228535
    11  H    0.256605
    12  H    0.256587
 Sum of Mulliken charges =   0.00000
 Mulliken charges with hydrogens summed into heavy atoms:
               1
     1  C   -0.001131
     2  C    0.047415
     3  C   -0.002707
     4  C   -0.367638
     5  C   -0.316989
     6  C   -0.366941
     7  Cl   0.255612
     8  Cl   0.268132
     9  Cl   0.255713
    10  Cl   0.228535
 Electronic spatial extent (au):  <R**2>=           2774.8970
 Charge=              0.0000 electrons
 Dipole moment (field-independent basis, Debye):
    X=             -1.1423    Y=              0.0004    Z=              0.0005  Tot=              1.1423
 Quadrupole moment (field-independent basis, Debye-Ang):
   XX=            -85.9678   YY=            -82.1997   ZZ=            -86.4087
   XY=              0.0001   XZ=             -0.0015   YZ=             -0.0030
 Traceless Quadrupole moment (field-independent basis, Debye-Ang):
   XX=             -1.1091   YY=              2.6591   ZZ=             -1.5500
   XY=              0.0001   XZ=             -0.0015   YZ=             -0.0030
 Octapole moment (field-independent basis, Debye-Ang**2):
  XXX=             12.1603  YYY=              0.0059  ZZZ=             -0.0057  XYY=             -3.4506
  XXY=              0.0033  XXZ=             -0.0077  XZZ=              3.4096  YZZ=              0.0015
  YYZ=              0.0004  XYZ=              0.0067
 Hexadecapole moment (field-independent basis, Debye-Ang**3):
 XXXX=          -1955.4519 YYYY=          -1391.8939 ZZZZ=            -98.3766 XXXY=             -0.0076
 XXXZ=             -0.0070 YYYX=              0.0024 YYYZ=             -0.0139 ZZZX=              0.0014
 ZZZY=             -0.0007 XXYY=           -556.3537 XXZZ=           -361.9808 YYZZ=           -266.8888
 XXYZ=             -0.0103 YYXZ=             -0.0085 ZZXY=             -0.0001
 N-N= 8.311698309423D+02 E-N=-6.567848950338D+03  KE= 2.063483860022D+03
 Calling FoFJK, ICntrl=      2127 FMM=F ISym2X=0 I1Cent= 0 IOpClX= 0 NMat=1 NMatS=1 NMatT=0.
 ***** Axes restored to original set *****
 -------------------------------------------------------------------
 Center     Atomic                   Forces (Hartrees/Bohr)
 Number     Number              X              Y              Z
 -------------------------------------------------------------------
      1        6           0.004043794   -0.002039893   -0.003276892
      2        6          -0.013540121    0.007183775    0.008482678
      3        6           0.004341189   -0.002364112   -0.002171940
      4        6           0.009669557   -0.005141403   -0.005581013
      5        6          -0.014294335    0.007540487    0.008952046
      6        6           0.009176702   -0.004865554   -0.006226340
      7       17          -0.000696657    0.000279861    0.003519446
      8       17           0.003481386   -0.001822851   -0.002177306
      9       17          -0.002961387    0.001668669   -0.001181062
     10       17           0.004261071   -0.002252224   -0.002665247
     11        1          -0.001143589    0.000495402    0.002525100
     12        1          -0.002337610    0.001317843   -0.000199470
 -------------------------------------------------------------------
 Cartesian Forces:  Max     0.014294335 RMS     0.005522549

 GradGradGradGradGradGradGradGradGradGradGradGradGradGradGradGradGradGrad
 Berny optimization.
 FormGI is forming the generalized inverse of G from B-inverse, IUseBI=4.
 Internal  Forces:  Max     0.007027106 RMS     0.002635137
 Search for a local minimum.
 Step number   1 out of a maximum of   64
 All quantities printed in internal units (Hartrees-Bohrs-Radians)
 Mixed Optimization -- RFO/linear search
 Second derivative matrix not updated -- first step.
 ITU=  0
     Eigenvalues ---    0.02156   0.02156   0.02156   0.02156   0.02156
     Eigenvalues ---    0.02156   0.02157   0.02157   0.02158   0.16000
     Eigenvalues ---    0.16000   0.23479   0.23493   0.25000   0.25000
     Eigenvalues ---    0.25000   0.25000   0.25000   0.31684   0.32431
     Eigenvalues ---    0.32446   0.33439   0.35017   0.35043   0.42424
     Eigenvalues ---    0.42580   0.46474   0.46474   0.46475   0.46494
 RFO step:  Lambda=-1.33166921D-03 EMin= 2.15602161D-02
 Linear search not attempted -- first point.
 Iteration  1 RMS(Cart)=  0.01146805 RMS(Int)=  0.00011888
 Iteration  2 RMS(Cart)=  0.00013935 RMS(Int)=  0.00000291
 Iteration  3 RMS(Cart)=  0.00000000 RMS(Int)=  0.00000291
 Variable       Old X    -DE/DX   Delta X   Delta X   Delta X     New X
                                 (Linear)    (Quad)   (Total)
    R1        2.63599  -0.00437   0.00000  -0.00986  -0.00987   2.62612
    R2        2.63568  -0.00277   0.00000  -0.00593  -0.00593   2.62975
    R3        2.05647  -0.00256   0.00000  -0.00727  -0.00727   2.04920
    R4        2.63600  -0.00438   0.00000  -0.00990  -0.00990   2.62610
    R5        3.25287   0.00551   0.00000   0.01640   0.01640   3.26927
    R6        2.63599  -0.00288   0.00000  -0.00618  -0.00618   2.62982
    R7        2.05605  -0.00240   0.00000  -0.00684  -0.00684   2.04921
    R8        2.63600   0.00206   0.00000   0.00491   0.00491   2.64092
    R9        3.27035  -0.00127   0.00000  -0.00390  -0.00390   3.26645
   R10        2.63601   0.00207   0.00000   0.00494   0.00494   2.64095
   R11        3.28426  -0.00449   0.00000  -0.01412  -0.01412   3.27014
   R12        3.27063  -0.00134   0.00000  -0.00410  -0.00410   3.26652
    A1        2.09449  -0.00255   0.00000  -0.01204  -0.01204   2.08245
    A2        2.09105   0.00249   0.00000   0.01356   0.01356   2.10461
    A3        2.09765   0.00006   0.00000  -0.00152  -0.00152   2.09613
    A4        2.09432   0.00440   0.00000   0.01608   0.01608   2.11040
    A5        2.09449  -0.00221   0.00000  -0.00809  -0.00809   2.08640
    A6        2.09438  -0.00219   0.00000  -0.00799  -0.00799   2.08639
    A7        2.09439  -0.00252   0.00000  -0.01193  -0.01193   2.08246
    A8        2.09092   0.00250   0.00000   0.01366   0.01366   2.10458
    A9        2.09787   0.00002   0.00000  -0.00173  -0.00173   2.09615
   A10        2.09439   0.00304   0.00000   0.01351   0.01352   2.10791
   A11        2.04831   0.00398   0.00000   0.01515   0.01514   2.06345
   A12        2.14049  -0.00703   0.00000  -0.02866  -0.02866   2.11183
   A13        2.09434  -0.00540   0.00000  -0.01913  -0.01912   2.07522
   A14        2.09433   0.00272   0.00000   0.00963   0.00963   2.10395
   A15        2.09452   0.00268   0.00000   0.00950   0.00950   2.10402
   A16        2.09444   0.00303   0.00000   0.01350   0.01350   2.10794
   A17        2.04851   0.00395   0.00000   0.01499   0.01499   2.06350
   A18        2.14023  -0.00698   0.00000  -0.02849  -0.02849   2.11174
    D1       -0.00011   0.00000   0.00000  -0.00002  -0.00002  -0.00013
    D2        3.14125   0.00001   0.00000   0.00032   0.00032   3.14157
    D3        3.14055   0.00002   0.00000   0.00072   0.00072   3.14127
    D4       -0.00128   0.00002   0.00000   0.00106   0.00106  -0.00021
    D5        0.00007   0.00000   0.00000   0.00001   0.00001   0.00008
    D6       -3.14137   0.00000   0.00000  -0.00022  -0.00022  -3.14159
    D7       -3.14059  -0.00002   0.00000  -0.00074  -0.00074  -3.14133
    D8        0.00116  -0.00002   0.00000  -0.00097  -0.00097   0.00019
    D9        0.00007   0.00000   0.00000  -0.00004  -0.00003   0.00004
   D10        3.14114   0.00001   0.00000   0.00050   0.00051  -3.14154
   D11       -3.14128  -0.00001   0.00000  -0.00038  -0.00038   3.14153
   D12       -0.00022   0.00000   0.00000   0.00016   0.00016  -0.00005
   D13        0.00000   0.00000   0.00000   0.00010   0.00010   0.00010
   D14        3.14151   0.00001   0.00000   0.00026   0.00026  -3.14141
   D15       -3.14106  -0.00001   0.00000  -0.00044  -0.00044  -3.14151
   D16        0.00045  -0.00001   0.00000  -0.00028  -0.00028   0.00017
   D17       -0.00004   0.00000   0.00000  -0.00011  -0.00011  -0.00015
   D18        3.14092   0.00002   0.00000   0.00073   0.00073  -3.14153
   D19       -3.14155  -0.00001   0.00000  -0.00028  -0.00028   3.14136
   D20       -0.00059   0.00001   0.00000   0.00056   0.00056  -0.00002
   D21        0.00001   0.00000   0.00000   0.00005   0.00005   0.00006
   D22        3.14143   0.00001   0.00000   0.00030   0.00030  -3.14145
   D23       -3.14095  -0.00002   0.00000  -0.00079  -0.00079   3.14144
   D24        0.00047  -0.00001   0.00000  -0.00054  -0.00054  -0.00007
         Item               Value     Threshold  Converged?
 Maximum Force            0.007027     0.000450     NO 
 RMS     Force            0.002635     0.000300     NO 
 Maximum Displacement     0.052163     0.001800     NO 
 RMS     Displacement     0.011515     0.001200     NO 
 Predicted change in Energy=-6.691259D-04
 GradGradGradGradGradGradGradGradGradGradGradGradGradGradGradGradGradGrad

                          Input orientation:                          
 ---------------------------------------------------------------------
 Center     Atomic      Atomic             Coordinates (Angstroms)
 Number     Number       Type             X           Y           Z
 ---------------------------------------------------------------------
      1          6           0        1.890170   -1.038946   -0.116773
      2          6           0        2.916938   -1.628787    0.610586
      3          6           0        2.884065   -1.655355    1.999616
      4          6           0        1.805719   -1.081996    2.666766
      5          6           0        0.761694   -0.483374    1.956341
      6          6           0        0.816309   -0.468492    0.559955
      7         17           0       -0.445227    0.257466   -0.372496
      8         17           0       -0.576368    0.227929    2.791928
      9         17           0        1.793736   -1.130676    4.394569
     10         17           0        4.254756   -2.339750   -0.224731
     11          1           0        1.921458   -1.020988   -1.200564
     12          1           0        3.688250   -2.117032    2.561805
 ---------------------------------------------------------------------
                    Distance matrix (angstroms):
                    1          2          3          4          5
     1  C    0.000000
     2  C    1.389682   0.000000
     3  C    2.418035   1.389673   0.000000
     4  C    2.785152   2.400346   1.391639   0.000000
     5  C    2.424854   2.787132   2.424845   1.397512   0.000000
     6  C    1.391601   2.400311   2.785119   2.407067   1.397533
     7  Cl   2.683310   3.978512   4.513312   4.012235   2.725616
     8  Cl   4.018621   4.517613   4.018595   2.721379   1.730481
     9  Cl   4.513304   3.978470   2.683263   1.728530   2.725631
    10  Cl   2.700929   1.730023   2.700910   3.992553   4.517155
    11  H    1.084391   2.154220   3.401498   3.869542   3.405896
    12  H    3.401490   2.154195   1.084395   2.150869   3.405899
                    6          7          8          9         10
     6  C    0.000000
     7  Cl   1.728569   0.000000
     8  Cl   2.721443   3.167278   0.000000
     9  Cl   4.012246   5.446540   3.167279   0.000000
    10  Cl   3.992526   5.371891   6.247636   5.371816   0.000000
    11  H    2.150821   2.814487   4.872259   5.597665   2.852309
    12  H    3.869513   5.597677   4.872243   2.814445   2.852247
                   11         12
    11  H    0.000000
    12  H    4.298637   0.000000
 Stoichiometry    C6H2Cl4
 Framework group  C1[X(C6H2Cl4)]
 Deg. of freedom    30
 Full point group                 C1      NOp   1
 Largest Abelian subgroup         C1      NOp   1
 Largest concise Abelian subgroup C1      NOp   1
                         Standard orientation:                         
 ---------------------------------------------------------------------
 Center     Atomic      Atomic             Coordinates (Angstroms)
 Number     Number       Type             X           Y           Z
 ---------------------------------------------------------------------
      1          6           0       -1.165343   -1.209056    0.000035
      2          6           0       -1.850552   -0.000046   -0.000069
      3          6           0       -1.165387    1.208978   -0.000111
      4          6           0        0.226241    1.203528   -0.000097
      5          6           0        0.936579    0.000008   -0.000162
      6          6           0        0.226247   -1.203539   -0.000060
      7         17           0        1.049915   -2.723251    0.000072
      8         17           0        2.667061    0.000073   -0.000057
      9         17           0        1.049734    2.723290    0.000124
     10         17           0       -3.580576   -0.000061    0.000012
     11          1           0       -1.705443   -2.149373    0.000364
     12          1           0       -1.705551    2.149264   -0.000143
 ---------------------------------------------------------------------
 Rotational constants (GHZ):      0.8453576      0.5840167      0.3453979
 Standard basis: 6-31+G(d) (6D, 7F)
 There are   210 symmetry adapted cartesian basis functions of A   symmetry.
 There are   210 symmetry adapted basis functions of A   symmetry.
   210 basis functions,   424 primitive gaussians,   210 cartesian basis functions
    53 alpha electrons       53 beta electrons
       nuclear repulsion energy       832.9516945741 Hartrees.
 NAtoms=   12 NActive=   12 NUniq=   12 SFac= 1.00D+00 NAtFMM=   60 NAOKFM=F Big=F
 Integral buffers will be    131072 words long.
 Raffenetti 2 integral format.
 Two-electron integral symmetry is turned on.
 One-electron integrals computed using PRISM.
 NBasis=   210 RedAO= T EigKep=  1.43D-06  NBF=   210
 NBsUse=   210 1.00D-06 EigRej= -1.00D+00 NBFU=   210
 Initial guess from the checkpoint file:  "/srv/scratch/z5358697/gauss/Gau-599726.chk"
 B after Tr=     0.000000    0.000000    0.000000
         Rot=    1.000000    0.000000    0.000000    0.000038 Ang=   0.00 deg.
 ExpMin= 4.38D-02 ExpMax= 2.52D+04 ExpMxC= 3.78D+03 IAcc=2 IRadAn=         4 AccDes= 0.00D+00
 Harris functional with IExCor= 1009 and IRadAn=       4 diagonalized for initial guess.
 HarFok:  IExCor= 1009 AccDes= 0.00D+00 IRadAn=         4 IDoV= 1 UseB2=F ITyADJ=14
 ICtDFT=  3500011 ScaDFX=  1.000000  1.000000  1.000000  1.000000
 FoFCou: FMM=F IPFlag=           0 FMFlag=      100000 FMFlg1=           0
         NFxFlg=           0 DoJE=T BraDBF=F KetDBF=T FulRan=T
         wScrn=  0.000000 ICntrl=     500 IOpCl=  0 I1Cent=   200000004 NGrid=           0
         NMat0=    1 NMatS0=      1 NMatT0=    0 NMatD0=    1 NMtDS0=    0 NMtDT0=    0
 Petite list used in FoFCou.
 Requested convergence on RMS density matrix=1.00D-08 within 128 cycles.
 Requested convergence on MAX density matrix=1.00D-06.
 Requested convergence on             energy=1.00D-06.
 No special actions if energy rises.
 SCF Done:  E(RM062X) =  -2070.41134418     A.U. after   13 cycles
            NFock= 13  Conv=0.21D-08     -V/T= 2.0033
 Calling FoFJK, ICntrl=      2127 FMM=F ISym2X=0 I1Cent= 0 IOpClX= 0 NMat=1 NMatS=1 NMatT=0.
 ***** Axes restored to original set *****
 -------------------------------------------------------------------
 Center     Atomic                   Forces (Hartrees/Bohr)
 Number     Number              X              Y              Z
 -------------------------------------------------------------------
      1        6           0.000866673   -0.000428042   -0.001346862
      2        6          -0.004330104    0.002307341    0.002706838
      3        6           0.001435123   -0.000794564   -0.000091905
      4        6           0.002702760   -0.001437240   -0.001701372
      5        6          -0.006088571    0.003249091    0.003805766
      6        6           0.002671653   -0.001419721   -0.001659687
      7       17          -0.000637993    0.000358098   -0.000198816
      8       17           0.002006022   -0.001070890   -0.001258520
      9       17          -0.000212608    0.000089053    0.000741082
     10       17           0.002165855   -0.001151605   -0.001354048
     11        1          -0.000326188    0.000165164    0.000101389
     12        1          -0.000252621    0.000133313    0.000256137
 -------------------------------------------------------------------
 Cartesian Forces:  Max     0.006088571 RMS     0.001966428

 GradGradGradGradGradGradGradGradGradGradGradGradGradGradGradGradGradGrad
 Berny optimization.
 Using GEDIIS/GDIIS optimizer.
 FormGI is forming the generalized inverse of G from B-inverse, IUseBI=4.
 Internal  Forces:  Max     0.002801886 RMS     0.000860318
 Search for a local minimum.
 Step number   2 out of a maximum of   64
 All quantities printed in internal units (Hartrees-Bohrs-Radians)
 Mixed Optimization -- En-DIIS/RFO-DIIS
 Update second derivatives using D2CorX and points    1    2
 DE= -8.22D-04 DEPred=-6.69D-04 R= 1.23D+00
 TightC=F SS=  1.41D+00  RLast= 7.05D-02 DXNew= 5.0454D-01 2.1160D-01
 Trust test= 1.23D+00 RLast= 7.05D-02 DXMaxT set to 3.00D-01
 ITU=  1  0
 Use linear search instead of GDIIS.
     Eigenvalues ---    0.02156   0.02156   0.02156   0.02156   0.02156
     Eigenvalues ---    0.02156   0.02157   0.02157   0.02158   0.15416
     Eigenvalues ---    0.16000   0.18902   0.23486   0.24252   0.25000
     Eigenvalues ---    0.25000   0.25000   0.25895   0.30953   0.32438
     Eigenvalues ---    0.32781   0.33118   0.35031   0.35435   0.41169
     Eigenvalues ---    0.42411   0.46337   0.46474   0.46480   0.48453
 RFO step:  Lambda=-9.18346735D-05 EMin= 2.15603507D-02
 Quartic linear search produced a step of  0.29200.
 Iteration  1 RMS(Cart)=  0.00234272 RMS(Int)=  0.00000931
 Iteration  2 RMS(Cart)=  0.00001428 RMS(Int)=  0.00000246
 Iteration  3 RMS(Cart)=  0.00000000 RMS(Int)=  0.00000246
 Variable       Old X    -DE/DX   Delta X   Delta X   Delta X     New X
                                 (Linear)    (Quad)   (Total)
    R1        2.62612  -0.00050  -0.00288   0.00055  -0.00234   2.62378
    R2        2.62975  -0.00027  -0.00173   0.00059  -0.00114   2.62860
    R3        2.04920  -0.00011  -0.00212   0.00125  -0.00087   2.04833
    R4        2.62610  -0.00050  -0.00289   0.00056  -0.00234   2.62376
    R5        3.26927   0.00280   0.00479   0.00709   0.01188   3.28115
    R6        2.62982  -0.00029  -0.00180   0.00059  -0.00122   2.62860
    R7        2.04921  -0.00011  -0.00200   0.00114  -0.00085   2.04836
    R8        2.64092   0.00230   0.00143   0.00557   0.00701   2.64792
    R9        3.26645   0.00074  -0.00114   0.00383   0.00269   3.26914
   R10        2.64095   0.00228   0.00144   0.00553   0.00698   2.64793
   R11        3.27014  -0.00260  -0.00412  -0.00738  -0.01150   3.25864
   R12        3.26652   0.00072  -0.00120   0.00382   0.00262   3.26914
    A1        2.08245  -0.00064  -0.00352  -0.00145  -0.00497   2.07747
    A2        2.10461   0.00069   0.00396   0.00198   0.00594   2.11055
    A3        2.09613  -0.00005  -0.00044  -0.00052  -0.00096   2.09516
    A4        2.11040   0.00144   0.00469   0.00276   0.00744   2.11784
    A5        2.08640  -0.00072  -0.00236  -0.00138  -0.00374   2.08267
    A6        2.08639  -0.00072  -0.00233  -0.00138  -0.00371   2.08268
    A7        2.08246  -0.00064  -0.00348  -0.00148  -0.00497   2.07749
    A8        2.10458   0.00070   0.00399   0.00199   0.00598   2.11055
    A9        2.09615  -0.00006  -0.00050  -0.00050  -0.00100   2.09514
   A10        2.10791   0.00088   0.00395   0.00215   0.00610   2.11401
   A11        2.06345  -0.00005   0.00442  -0.00412   0.00030   2.06375
   A12        2.11183  -0.00082  -0.00837   0.00197  -0.00641   2.10542
   A13        2.07522  -0.00190  -0.00558  -0.00410  -0.00968   2.06554
   A14        2.10395   0.00095   0.00281   0.00207   0.00488   2.10883
   A15        2.10402   0.00094   0.00277   0.00203   0.00480   2.10882
   A16        2.10794   0.00087   0.00394   0.00213   0.00608   2.11402
   A17        2.06350  -0.00006   0.00438  -0.00413   0.00024   2.06375
   A18        2.11174  -0.00081  -0.00832   0.00200  -0.00632   2.10542
    D1       -0.00013   0.00000  -0.00001   0.00019   0.00018   0.00005
    D2        3.14157   0.00000   0.00009  -0.00014  -0.00004   3.14153
    D3        3.14127   0.00001   0.00021   0.00018   0.00040  -3.14152
    D4       -0.00021   0.00000   0.00031  -0.00014   0.00017  -0.00004
    D5        0.00008   0.00000   0.00000  -0.00010  -0.00010  -0.00002
    D6       -3.14159   0.00000  -0.00007   0.00013   0.00007  -3.14153
    D7       -3.14133  -0.00001  -0.00022  -0.00010  -0.00031   3.14155
    D8        0.00019   0.00000  -0.00028   0.00014  -0.00015   0.00004
    D9        0.00004   0.00000  -0.00001  -0.00007  -0.00008  -0.00004
   D10       -3.14154   0.00000   0.00015  -0.00028  -0.00013   3.14151
   D11        3.14153   0.00000  -0.00011   0.00025   0.00014  -3.14152
   D12       -0.00005   0.00000   0.00005   0.00004   0.00009   0.00004
   D13        0.00010   0.00000   0.00003  -0.00013  -0.00010   0.00000
   D14       -3.14141   0.00000   0.00008  -0.00032  -0.00024   3.14153
   D15       -3.14151   0.00000  -0.00013   0.00008  -0.00005  -3.14156
   D16        0.00017   0.00000  -0.00008  -0.00011  -0.00019  -0.00002
   D17       -0.00015   0.00000  -0.00003   0.00022   0.00018   0.00004
   D18       -3.14153   0.00000   0.00021  -0.00042  -0.00020   3.14145
   D19        3.14136   0.00001  -0.00008   0.00040   0.00032  -3.14150
   D20       -0.00002   0.00000   0.00016  -0.00023  -0.00006  -0.00009
   D21        0.00006   0.00000   0.00002  -0.00010  -0.00008  -0.00002
   D22       -3.14145   0.00000   0.00009  -0.00034  -0.00025   3.14148
   D23        3.14144   0.00001  -0.00023   0.00053   0.00030  -3.14144
   D24       -0.00007   0.00000  -0.00016   0.00030   0.00014   0.00007
         Item               Value     Threshold  Converged?
 Maximum Force            0.002802     0.000450     NO 
 RMS     Force            0.000860     0.000300     NO 
 Maximum Displacement     0.007674     0.001800     NO 
 RMS     Displacement     0.002341     0.001200     NO 
 Predicted change in Energy=-9.190956D-05
 GradGradGradGradGradGradGradGradGradGradGradGradGradGradGradGradGradGrad

                          Input orientation:                          
 ---------------------------------------------------------------------
 Center     Atomic      Atomic             Coordinates (Angstroms)
 Number     Number       Type             X           Y           Z
 ---------------------------------------------------------------------
      1          6           0        1.890883   -1.039217   -0.118859
      2          6           0        2.914343   -1.627263    0.612246
      3          6           0        2.886016   -1.656331    2.000088
      4          6           0        1.807459   -1.082807    2.665408
      5          6           0        0.757633   -0.480951    1.958968
      6          6           0        0.818266   -0.469362    0.559103
      7         17           0       -0.445632    0.257620   -0.371918
      8         17           0       -0.575888    0.227585    2.791579
      9         17           0        1.792928   -1.130581    4.394643
     10         17           0        4.256911   -2.340978   -0.226141
     11          1           0        1.919883   -1.020407   -1.202239
     12          1           0        3.688698   -2.117309    2.564123
 ---------------------------------------------------------------------
                    Distance matrix (angstroms):
                    1          2          3          4          5
     1  C    0.000000
     2  C    1.388446   0.000000
     3  C    2.420961   1.388436   0.000000
     4  C    2.785857   2.395225   1.390995   0.000000
     5  C    2.431723   2.789102   2.431711   1.401221   0.000000
     6  C    1.390997   2.395224   2.785843   2.406520   1.401226
     7  Cl   2.684237   3.976279   4.515473   4.012295   2.725136
     8  Cl   4.019998   4.513498   4.019996   2.722753   1.724396
     9  Cl   4.515489   3.976279   2.684240   1.729956   2.725136
    10  Cl   2.702625   1.736309   2.702627   3.992977   4.525411
    11  H    1.083932   2.156288   3.404807   3.869784   3.411022
    12  H    3.404822   2.156292   1.083945   2.149306   3.411015
                    6          7          8          9         10
     6  C    0.000000
     7  Cl   1.729954   0.000000
     8  Cl   2.722747   3.166320   0.000000
     9  Cl   4.012300   5.445949   3.166342   0.000000
    10  Cl   3.992973   5.374744   6.249807   5.374748   0.000000
    11  H    2.149310   2.813974   4.872057   5.599406   2.856286
    12  H    3.869783   5.599403   4.872059   2.813962   2.856303
                   11         12
    11  H    0.000000
    12  H    4.303183   0.000000
 Stoichiometry    C6H2Cl4
 Framework group  C1[X(C6H2Cl4)]
 Deg. of freedom    30
 Full point group                 C1      NOp   1
 Largest Abelian subgroup         C1      NOp   1
 Largest concise Abelian subgroup C1      NOp   1
                         Standard orientation:                         
 ---------------------------------------------------------------------
 Center     Atomic      Atomic             Coordinates (Angstroms)
 Number     Number       Type             X           Y           Z
 ---------------------------------------------------------------------
      1          6           0       -1.166755   -1.210486    0.000060
      2          6           0       -1.846830    0.000002    0.000074
      3          6           0       -1.166752    1.210475    0.000061
      4          6           0        0.224224    1.203262    0.000084
      5          6           0        0.942271    0.000005    0.000124
      6          6           0        0.224223   -1.203258    0.000097
      7         17           0        1.050793   -2.722969   -0.000024
      8         17           0        2.666667   -0.000006   -0.000060
      9         17           0        1.050787    2.722980   -0.000022
     10         17           0       -3.583140   -0.000005   -0.000070
     11          1           0       -1.704560   -2.151588   -0.000002
     12          1           0       -1.704554    2.151595   -0.000003
 ---------------------------------------------------------------------
 Rotational constants (GHZ):      0.8453912      0.5835288      0.3452329
 Standard basis: 6-31+G(d) (6D, 7F)
 There are   210 symmetry adapted cartesian basis functions of A   symmetry.
 There are   210 symmetry adapted basis functions of A   symmetry.
   210 basis functions,   424 primitive gaussians,   210 cartesian basis functions
    53 alpha electrons       53 beta electrons
       nuclear repulsion energy       832.7454188724 Hartrees.
 NAtoms=   12 NActive=   12 NUniq=   12 SFac= 1.00D+00 NAtFMM=   60 NAOKFM=F Big=F
 Integral buffers will be    131072 words long.
 Raffenetti 2 integral format.
 Two-electron integral symmetry is turned on.
 One-electron integrals computed using PRISM.
 GSVD:  received Info=                   1 from GESDD.
 NBasis=   210 RedAO= T EigKep=  1.47D-06  NBF=   210
 NBsUse=   210 1.00D-06 EigRej= -1.00D+00 NBFU=   210
 Initial guess from the checkpoint file:  "/srv/scratch/z5358697/gauss/Gau-599726.chk"
 B after Tr=     0.000000    0.000000    0.000000
         Rot=    1.000000    0.000000    0.000000    0.000012 Ang=   0.00 deg.
 Requested convergence on RMS density matrix=1.00D-08 within 128 cycles.
 Requested convergence on MAX density matrix=1.00D-06.
 Requested convergence on             energy=1.00D-06.
 No special actions if energy rises.
 SCF Done:  E(RM062X) =  -2070.41144026     A.U. after   12 cycles
            NFock= 12  Conv=0.37D-08     -V/T= 2.0033
 Calling FoFJK, ICntrl=      2127 FMM=F ISym2X=0 I1Cent= 0 IOpClX= 0 NMat=1 NMatS=1 NMatT=0.
 ***** Axes restored to original set *****
 -------------------------------------------------------------------
 Center     Atomic                   Forces (Hartrees/Bohr)
 Number     Number              X              Y              Z
 -------------------------------------------------------------------
      1        6          -0.000026007    0.000023645   -0.000146720
      2        6          -0.000245325    0.000122508    0.000142683
      3        6           0.000103984   -0.000058547    0.000120442
      4        6          -0.000530860    0.000319939   -0.000810659
      5        6          -0.000351488    0.000175399    0.000213049
      6        6           0.000299690   -0.000198303    0.000954192
      7       17          -0.000273610    0.000161939   -0.000280138
      8       17           0.000557359   -0.000290739   -0.000345164
      9       17           0.000053837   -0.000041896    0.000416821
     10       17           0.000311461   -0.000162496   -0.000192844
     11        1           0.000029242   -0.000012578   -0.000084202
     12        1           0.000071718   -0.000038871    0.000012540
 -------------------------------------------------------------------
 Cartesian Forces:  Max     0.000954192 RMS     0.000310712

 GradGradGradGradGradGradGradGradGradGradGradGradGradGradGradGradGradGrad
 Berny optimization.
 Using GEDIIS/GDIIS optimizer.
 FormGI is forming the generalized inverse of G from B-inverse, IUseBI=4.
 Internal  Forces:  Max     0.000717141 RMS     0.000174005
 Search for a local minimum.
 Step number   3 out of a maximum of   64
 All quantities printed in internal units (Hartrees-Bohrs-Radians)
 Mixed Optimization -- En-DIIS/RFO-DIIS
 Swapping is turned off.
 Update second derivatives using D2CorX and points    1    2    3
 DE= -9.61D-05 DEPred=-9.19D-05 R= 1.05D+00
 TightC=F SS=  1.41D+00  RLast= 3.00D-02 DXNew= 5.0454D-01 9.0131D-02
 Trust test= 1.05D+00 RLast= 3.00D-02 DXMaxT set to 3.00D-01
 ITU=  1  1  0
     Eigenvalues ---    0.02156   0.02156   0.02156   0.02156   0.02156
     Eigenvalues ---    0.02156   0.02157   0.02157   0.02158   0.15324
     Eigenvalues ---    0.16000   0.17600   0.23488   0.24165   0.25000
     Eigenvalues ---    0.25000   0.25000   0.26043   0.30296   0.32439
     Eigenvalues ---    0.32746   0.33259   0.35031   0.35577   0.42411
     Eigenvalues ---    0.43030   0.46474   0.46479   0.46807   0.48747
 En-DIIS/RFO-DIIS IScMMF=        0 using points:     3    2
 RFO step:  Lambda=-2.91934837D-06.
 DidBck=F Rises=F RFO-DIIS coefs:    1.06303   -0.06303
 Iteration  1 RMS(Cart)=  0.00047248 RMS(Int)=  0.00000017
 Iteration  2 RMS(Cart)=  0.00000017 RMS(Int)=  0.00000010
 Variable       Old X    -DE/DX   Delta X   Delta X   Delta X     New X
                                 (Linear)    (Quad)   (Total)
    R1        2.62378   0.00003  -0.00015   0.00011  -0.00004   2.62374
    R2        2.62860   0.00016  -0.00007   0.00034   0.00027   2.62887
    R3        2.04833   0.00008  -0.00005   0.00022   0.00016   2.04850
    R4        2.62376   0.00004  -0.00015   0.00012  -0.00003   2.62374
    R5        3.28115   0.00040   0.00075   0.00098   0.00173   3.28288
    R6        2.62860   0.00016  -0.00008   0.00035   0.00027   2.62887
    R7        2.04836   0.00008  -0.00005   0.00019   0.00014   2.04850
    R8        2.64792  -0.00042   0.00044  -0.00122  -0.00078   2.64714
    R9        3.26914   0.00042   0.00017   0.00122   0.00139   3.27053
   R10        2.64793  -0.00043   0.00044  -0.00123  -0.00079   2.64715
   R11        3.25864  -0.00072  -0.00072  -0.00209  -0.00282   3.25582
   R12        3.26914   0.00042   0.00016   0.00122   0.00139   3.27053
    A1        2.07747  -0.00008  -0.00031  -0.00018  -0.00050   2.07697
    A2        2.11055   0.00001   0.00037  -0.00017   0.00020   2.11075
    A3        2.09516   0.00007  -0.00006   0.00036   0.00029   2.09546
    A4        2.11784  -0.00012   0.00047  -0.00043   0.00004   2.11788
    A5        2.08267   0.00006  -0.00024   0.00022  -0.00002   2.08265
    A6        2.08268   0.00006  -0.00023   0.00021  -0.00002   2.08266
    A7        2.07749  -0.00008  -0.00031  -0.00020  -0.00051   2.07698
    A8        2.11055   0.00001   0.00038  -0.00017   0.00020   2.11076
    A9        2.09514   0.00007  -0.00006   0.00037   0.00031   2.09545
   A10        2.11401   0.00017   0.00038   0.00055   0.00094   2.11495
   A11        2.06375  -0.00019   0.00002  -0.00064  -0.00062   2.06313
   A12        2.10542   0.00002  -0.00040   0.00009  -0.00032   2.10510
   A13        2.06554  -0.00007  -0.00061  -0.00028  -0.00089   2.06464
   A14        2.10883   0.00003   0.00031   0.00013   0.00044   2.10927
   A15        2.10882   0.00004   0.00030   0.00015   0.00045   2.10927
   A16        2.11402   0.00017   0.00038   0.00054   0.00093   2.11495
   A17        2.06375  -0.00019   0.00002  -0.00063  -0.00062   2.06313
   A18        2.10542   0.00002  -0.00040   0.00009  -0.00031   2.10511
    D1        0.00005   0.00000   0.00001  -0.00009  -0.00008  -0.00003
    D2        3.14153   0.00000   0.00000   0.00011   0.00011  -3.14155
    D3       -3.14152   0.00000   0.00002  -0.00013  -0.00011   3.14156
    D4       -0.00004   0.00000   0.00001   0.00007   0.00008   0.00004
    D5       -0.00002   0.00000  -0.00001   0.00003   0.00003   0.00001
    D6       -3.14153   0.00000   0.00000  -0.00011  -0.00011   3.14155
    D7        3.14155   0.00000  -0.00002   0.00008   0.00006  -3.14158
    D8        0.00004   0.00000  -0.00001  -0.00007  -0.00007  -0.00003
    D9       -0.00004   0.00000  -0.00001   0.00007   0.00006   0.00002
   D10        3.14151   0.00000  -0.00001   0.00014   0.00013  -3.14155
   D11       -3.14152   0.00000   0.00001  -0.00014  -0.00013   3.14154
   D12        0.00004   0.00000   0.00001  -0.00007  -0.00006  -0.00003
   D13        0.00000   0.00000  -0.00001   0.00001   0.00000   0.00000
   D14        3.14153   0.00000  -0.00002   0.00011   0.00009  -3.14156
   D15       -3.14156   0.00000   0.00000  -0.00006  -0.00006   3.14157
   D16       -0.00002   0.00000  -0.00001   0.00004   0.00003   0.00001
   D17        0.00004   0.00000   0.00001  -0.00007  -0.00005  -0.00002
   D18        3.14145   0.00000  -0.00001   0.00023   0.00021  -3.14152
   D19       -3.14150   0.00000   0.00002  -0.00016  -0.00014   3.14154
   D20       -0.00009   0.00000   0.00000   0.00013   0.00013   0.00004
   D21       -0.00002   0.00000  -0.00001   0.00004   0.00004   0.00001
   D22        3.14148   0.00000  -0.00002   0.00019   0.00017  -3.14153
   D23       -3.14144   0.00000   0.00002  -0.00025  -0.00023   3.14152
   D24        0.00007   0.00000   0.00001  -0.00010  -0.00010  -0.00003
         Item               Value     Threshold  Converged?
 Maximum Force            0.000717     0.000450     NO 
 RMS     Force            0.000174     0.000300     YES
 Maximum Displacement     0.001600     0.001800     YES
 RMS     Displacement     0.000472     0.001200     YES
 Predicted change in Energy=-2.705559D-06
 GradGradGradGradGradGradGradGradGradGradGradGradGradGradGradGradGradGrad

                          Input orientation:                          
 ---------------------------------------------------------------------
 Center     Atomic      Atomic             Coordinates (Angstroms)
 Number     Number       Type             X           Y           Z
 ---------------------------------------------------------------------
      1          6           0        1.890838   -1.039256   -0.118841
      2          6           0        2.914259   -1.627309    0.612270
      3          6           0        2.885971   -1.656373    2.000099
      4          6           0        1.807012   -1.082644    2.664890
      5          6           0        0.757186   -0.480876    1.959198
      6          6           0        0.818368   -0.469556    0.559771
      7         17           0       -0.445858    0.257847   -0.371841
      8         17           0       -0.575041    0.227291    2.791106
      9         17           0        1.792753   -1.130401    4.394862
     10         17           0        4.257644   -2.341200   -0.226550
     11          1           0        1.919704   -1.020272   -1.202308
     12          1           0        3.688664   -2.117252    2.564343
 ---------------------------------------------------------------------
                    Distance matrix (angstroms):
                    1          2          3          4          5
     1  C    0.000000
     2  C    1.388425   0.000000
     3  C    2.420957   1.388422   0.000000
     4  C    2.785331   2.394974   1.391138   0.000000
     5  C    2.432119   2.789532   2.432117   1.400807   0.000000
     6  C    1.391138   2.394975   2.785329   2.405164   1.400809
     7  Cl   2.684517   3.976516   4.515686   4.011742   2.725210
     8  Cl   4.019016   4.512436   4.019015   2.721403   1.722905
     9  Cl   4.515689   3.976518   2.684522   1.730690   2.725204
    10  Cl   2.703412   1.737223   2.703414   3.993744   4.526755
    11  H    1.084018   2.156462   3.404954   3.869342   3.411381
    12  H    3.404958   2.156464   1.084019   2.149684   3.411377
                    6          7          8          9         10
     6  C    0.000000
     7  Cl   1.730689   0.000000
     8  Cl   2.721404   3.165731   0.000000
     9  Cl   4.011740   5.446105   3.165724   0.000000
    10  Cl   3.993742   5.375787   6.249660   5.375796   0.000000
    11  H    2.149687   2.814099   4.871091   5.599693   2.857082
    12  H    3.869342   5.599692   4.871087   2.814100   2.857092
                   11         12
    11  H    0.000000
    12  H    4.303516   0.000000
 Stoichiometry    C6H2Cl4
 Framework group  C1[X(C6H2Cl4)]
 Deg. of freedom    30
 Full point group                 C1      NOp   1
 Largest Abelian subgroup         C1      NOp   1
 Largest concise Abelian subgroup C1      NOp   1
                         Standard orientation:                         
 ---------------------------------------------------------------------
 Center     Atomic      Atomic             Coordinates (Angstroms)
 Number     Number       Type             X           Y           Z
 ---------------------------------------------------------------------
      1          6           0       -1.166590   -1.210474   -0.000039
      2          6           0       -1.846629    0.000009   -0.000047
      3          6           0       -1.166580    1.210483   -0.000038
      4          6           0        0.224535    1.202582   -0.000047
      5          6           0        0.942903   -0.000002   -0.000065
      6          6           0        0.224525   -1.202582   -0.000053
      7         17           0        1.051229   -2.723058    0.000017
      8         17           0        2.665807   -0.000009    0.000029
      9         17           0        1.051259    2.723048    0.000015
     10         17           0       -3.583852    0.000012    0.000041
     11          1           0       -1.704267   -2.151749   -0.000016
     12          1           0       -1.704244    2.151767   -0.000001
 ---------------------------------------------------------------------
 Rotational constants (GHZ):      0.8454025      0.5834735      0.3452154
 Standard basis: 6-31+G(d) (6D, 7F)
 There are   210 symmetry adapted cartesian basis functions of A   symmetry.
 There are   210 symmetry adapted basis functions of A   symmetry.
   210 basis functions,   424 primitive gaussians,   210 cartesian basis functions
    53 alpha electrons       53 beta electrons
       nuclear repulsion energy       832.7490811474 Hartrees.
 NAtoms=   12 NActive=   12 NUniq=   12 SFac= 1.00D+00 NAtFMM=   60 NAOKFM=F Big=F
 Integral buffers will be    131072 words long.
 Raffenetti 2 integral format.
 Two-electron integral symmetry is turned on.
 One-electron integrals computed using PRISM.
 NBasis=   210 RedAO= T EigKep=  1.47D-06  NBF=   210
 NBsUse=   210 1.00D-06 EigRej= -1.00D+00 NBFU=   210
 Initial guess from the checkpoint file:  "/srv/scratch/z5358697/gauss/Gau-599726.chk"
 B after Tr=     0.000000    0.000000    0.000000
         Rot=    1.000000    0.000000    0.000000    0.000003 Ang=   0.00 deg.
 Requested convergence on RMS density matrix=1.00D-08 within 128 cycles.
 Requested convergence on MAX density matrix=1.00D-06.
 Requested convergence on             energy=1.00D-06.
 No special actions if energy rises.
 SCF Done:  E(RM062X) =  -2070.41144333     A.U. after   10 cycles
            NFock= 10  Conv=0.27D-08     -V/T= 2.0033
 Calling FoFJK, ICntrl=      2127 FMM=F ISym2X=0 I1Cent= 0 IOpClX= 0 NMat=1 NMatS=1 NMatT=0.
 ***** Axes restored to original set *****
 -------------------------------------------------------------------
 Center     Atomic                   Forces (Hartrees/Bohr)
 Number     Number              X              Y              Z
 -------------------------------------------------------------------
      1        6          -0.000085883    0.000046282   -0.000059840
      2        6           0.000074956   -0.000034654   -0.000047564
      3        6          -0.000001684   -0.000004088    0.000117747
      4        6          -0.000095738    0.000059896   -0.000233206
      5        6          -0.000015415    0.000013900    0.000009445
      6        6           0.000118678   -0.000071392    0.000219741
      7       17          -0.000075167    0.000044572   -0.000133990
      8       17           0.000018280   -0.000012346   -0.000012325
      9       17           0.000056978   -0.000036837    0.000144799
     10       17          -0.000022598    0.000009846    0.000013834
     11        1           0.000013692   -0.000007153   -0.000009765
     12        1           0.000013898   -0.000008026   -0.000008877
 -------------------------------------------------------------------
 Cartesian Forces:  Max     0.000233206 RMS     0.000078962

 GradGradGradGradGradGradGradGradGradGradGradGradGradGradGradGradGradGrad
 Berny optimization.
 Using GEDIIS/GDIIS optimizer.
 FormGI is forming the generalized inverse of G from B-inverse, IUseBI=4.
 Internal  Forces:  Max     0.000145766 RMS     0.000044342
 Search for a local minimum.
 Step number   4 out of a maximum of   64
 All quantities printed in internal units (Hartrees-Bohrs-Radians)
 Mixed Optimization -- En-DIIS/RFO-DIIS
 Swapping is turned off.
 Update second derivatives using D2CorX and points    1    2    3    4
 DE= -3.07D-06 DEPred=-2.71D-06 R= 1.13D+00
 TightC=F SS=  1.41D+00  RLast= 4.60D-03 DXNew= 5.0454D-01 1.3804D-02
 Trust test= 1.13D+00 RLast= 4.60D-03 DXMaxT set to 3.00D-01
 ITU=  1  1  1  0
     Eigenvalues ---    0.02156   0.02156   0.02156   0.02156   0.02156
     Eigenvalues ---    0.02157   0.02157   0.02157   0.02159   0.15374
     Eigenvalues ---    0.16000   0.16487   0.23489   0.23754   0.25000
     Eigenvalues ---    0.25000   0.25000   0.25348   0.29581   0.32256
     Eigenvalues ---    0.32439   0.32975   0.35031   0.35349   0.42408
     Eigenvalues ---    0.42612   0.46474   0.46479   0.47011   0.50187
 En-DIIS/RFO-DIIS IScMMF=        0 using points:     4    3    2
 RFO step:  Lambda=-2.14977513D-07.
 DidBck=F Rises=F RFO-DIIS coefs:    1.16862   -0.17543    0.00681
 Iteration  1 RMS(Cart)=  0.00027483 RMS(Int)=  0.00000007
 Iteration  2 RMS(Cart)=  0.00000010 RMS(Int)=  0.00000001
 Variable       Old X    -DE/DX   Delta X   Delta X   Delta X     New X
                                 (Linear)    (Quad)   (Total)
    R1        2.62374   0.00004   0.00001   0.00006   0.00007   2.62381
    R2        2.62887   0.00000   0.00005  -0.00007  -0.00001   2.62885
    R3        2.04850   0.00001   0.00003  -0.00001   0.00002   2.04852
    R4        2.62374   0.00004   0.00001   0.00006   0.00007   2.62381
    R5        3.28288  -0.00003   0.00021  -0.00019   0.00002   3.28289
    R6        2.62887   0.00000   0.00005  -0.00007  -0.00001   2.62886
    R7        2.04850   0.00001   0.00003  -0.00001   0.00002   2.04852
    R8        2.64714  -0.00002  -0.00018   0.00008  -0.00010   2.64704
    R9        3.27053   0.00015   0.00022   0.00036   0.00057   3.27110
   R10        2.64715  -0.00002  -0.00018   0.00008  -0.00010   2.64704
   R11        3.25582  -0.00003  -0.00040   0.00014  -0.00026   3.25556
   R12        3.27053   0.00015   0.00022   0.00036   0.00057   3.27110
    A1        2.07697  -0.00001  -0.00005  -0.00003  -0.00008   2.07689
    A2        2.11075  -0.00001  -0.00001  -0.00005  -0.00006   2.11069
    A3        2.09546   0.00002   0.00006   0.00009   0.00014   2.09560
    A4        2.11788  -0.00003  -0.00004  -0.00003  -0.00007   2.11781
    A5        2.08265   0.00001   0.00002   0.00002   0.00004   2.08269
    A6        2.08266   0.00001   0.00002   0.00001   0.00003   2.08269
    A7        2.07698  -0.00001  -0.00005  -0.00003  -0.00009   2.07689
    A8        2.11076  -0.00001  -0.00001  -0.00006  -0.00006   2.11069
    A9        2.09545   0.00002   0.00006   0.00009   0.00015   2.09560
   A10        2.11495   0.00005   0.00012   0.00016   0.00028   2.11522
   A11        2.06313  -0.00013  -0.00011  -0.00048  -0.00059   2.06254
   A12        2.10510   0.00009  -0.00001   0.00032   0.00031   2.10542
   A13        2.06464  -0.00004  -0.00008  -0.00023  -0.00031   2.06433
   A14        2.10927   0.00002   0.00004   0.00012   0.00016   2.10943
   A15        2.10927   0.00002   0.00004   0.00011   0.00016   2.10943
   A16        2.11495   0.00005   0.00012   0.00016   0.00028   2.11522
   A17        2.06313  -0.00013  -0.00011  -0.00048  -0.00058   2.06255
   A18        2.10511   0.00009  -0.00001   0.00031   0.00031   2.10542
    D1       -0.00003   0.00000  -0.00001   0.00006   0.00004   0.00002
    D2       -3.14155   0.00000   0.00002  -0.00009  -0.00008   3.14156
    D3        3.14156   0.00000  -0.00002   0.00008   0.00006  -3.14156
    D4        0.00004   0.00000   0.00001  -0.00007  -0.00006  -0.00002
    D5        0.00001   0.00000   0.00000  -0.00002  -0.00001  -0.00001
    D6        3.14155   0.00000  -0.00002   0.00008   0.00006  -3.14157
    D7       -3.14158   0.00000   0.00001  -0.00004  -0.00003   3.14157
    D8       -0.00003   0.00000  -0.00001   0.00005   0.00004   0.00001
    D9        0.00002   0.00000   0.00001  -0.00005  -0.00004  -0.00001
   D10       -3.14155   0.00000   0.00002  -0.00009  -0.00007   3.14157
   D11        3.14154   0.00000  -0.00002   0.00010   0.00008  -3.14156
   D12       -0.00003   0.00000  -0.00001   0.00006   0.00005   0.00002
   D13        0.00000   0.00000   0.00000   0.00000   0.00000   0.00000
   D14       -3.14156   0.00000   0.00002  -0.00007  -0.00005   3.14157
   D15        3.14157   0.00000  -0.00001   0.00004   0.00003  -3.14158
   D16        0.00001   0.00000   0.00001  -0.00002  -0.00002  -0.00001
   D17       -0.00002   0.00000  -0.00001   0.00004   0.00003   0.00001
   D18       -3.14152   0.00000   0.00004  -0.00014  -0.00011   3.14156
   D19        3.14154   0.00000  -0.00003   0.00011   0.00008  -3.14156
   D20        0.00004   0.00000   0.00002  -0.00007  -0.00005  -0.00001
   D21        0.00001   0.00000   0.00001  -0.00003  -0.00002  -0.00001
   D22       -3.14153   0.00000   0.00003  -0.00012  -0.00009   3.14156
   D23        3.14152   0.00000  -0.00004   0.00015   0.00011  -3.14156
   D24       -0.00003   0.00000  -0.00002   0.00006   0.00004   0.00001
         Item               Value     Threshold  Converged?
 Maximum Force            0.000146     0.000450     YES
 RMS     Force            0.000044     0.000300     YES
 Maximum Displacement     0.001246     0.001800     YES
 RMS     Displacement     0.000275     0.001200     YES
 Predicted change in Energy=-2.215570D-07
 Optimization completed.
    -- Stationary point found.
                           ----------------------------
                           !   Optimized Parameters   !
                           ! (Angstroms and Degrees)  !
 --------------------------                            --------------------------
 ! Name  Definition              Value          Derivative Info.                !
 --------------------------------------------------------------------------------
 ! R1    R(1,2)                  1.3884         -DE/DX =    0.0                 !
 ! R2    R(1,6)                  1.3911         -DE/DX =    0.0                 !
 ! R3    R(1,11)                 1.084          -DE/DX =    0.0                 !
 ! R4    R(2,3)                  1.3884         -DE/DX =    0.0                 !
 ! R5    R(2,10)                 1.7372         -DE/DX =    0.0                 !
 ! R6    R(3,4)                  1.3911         -DE/DX =    0.0                 !
 ! R7    R(3,12)                 1.084          -DE/DX =    0.0                 !
 ! R8    R(4,5)                  1.4008         -DE/DX =    0.0                 !
 ! R9    R(4,9)                  1.7307         -DE/DX =    0.0001              !
 ! R10   R(5,6)                  1.4008         -DE/DX =    0.0                 !
 ! R11   R(5,8)                  1.7229         -DE/DX =    0.0                 !
 ! R12   R(6,7)                  1.7307         -DE/DX =    0.0001              !
 ! A1    A(2,1,6)              119.0019         -DE/DX =    0.0                 !
 ! A2    A(2,1,11)             120.9371         -DE/DX =    0.0                 !
 ! A3    A(6,1,11)             120.061          -DE/DX =    0.0                 !
 ! A4    A(1,2,3)              121.3456         -DE/DX =    0.0                 !
 ! A5    A(1,2,10)             119.327          -DE/DX =    0.0                 !
 ! A6    A(3,2,10)             119.3274         -DE/DX =    0.0                 !
 ! A7    A(2,3,4)              119.002          -DE/DX =    0.0                 !
 ! A8    A(2,3,12)             120.9374         -DE/DX =    0.0                 !
 ! A9    A(4,3,12)             120.0606         -DE/DX =    0.0                 !
 ! A10   A(3,4,5)              121.1776         -DE/DX =    0.0                 !
 ! A11   A(3,4,9)              118.2088         -DE/DX =   -0.0001              !
 ! A12   A(5,4,9)              120.6136         -DE/DX =    0.0001              !
 ! A13   A(4,5,6)              118.2953         -DE/DX =    0.0                 !
 ! A14   A(4,5,8)              120.8524         -DE/DX =    0.0                 !
 ! A15   A(6,5,8)              120.8523         -DE/DX =    0.0                 !
 ! A16   A(1,6,5)              121.1776         -DE/DX =    0.0                 !
 ! A17   A(1,6,7)              118.2085         -DE/DX =   -0.0001              !
 ! A18   A(5,6,7)              120.6139         -DE/DX =    0.0001              !
 ! D1    D(6,1,2,3)             -0.0015         -DE/DX =    0.0                 !
 ! D2    D(6,1,2,10)           180.0027         -DE/DX =    0.0                 !
 ! D3    D(11,1,2,3)          -180.0018         -DE/DX =    0.0                 !
 ! D4    D(11,1,2,10)            0.0023         -DE/DX =    0.0                 !
 ! D5    D(2,1,6,5)              0.0004         -DE/DX =    0.0                 !
 ! D6    D(2,1,6,7)           -180.0022         -DE/DX =    0.0                 !
 ! D7    D(11,1,6,5)           180.0008         -DE/DX =    0.0                 !
 ! D8    D(11,1,6,7)            -0.0019         -DE/DX =    0.0                 !
 ! D9    D(1,2,3,4)              0.0012         -DE/DX =    0.0                 !
 ! D10   D(1,2,3,12)           180.0027         -DE/DX =    0.0                 !
 ! D11   D(10,2,3,4)          -180.0029         -DE/DX =    0.0                 !
 ! D12   D(10,2,3,12)           -0.0015         -DE/DX =    0.0                 !
 ! D13   D(2,3,4,5)              0.0            -DE/DX =    0.0                 !
 ! D14   D(2,3,4,9)            180.0019         -DE/DX =    0.0                 !
 ! D15   D(12,3,4,5)          -180.0013         -DE/DX =    0.0                 !
 ! D16   D(12,3,4,9)             0.0005         -DE/DX =    0.0                 !
 ! D17   D(3,4,5,6)             -0.001          -DE/DX =    0.0                 !
 ! D18   D(3,4,5,8)            180.0041         -DE/DX =    0.0                 !
 ! D19   D(9,4,5,6)           -180.0029         -DE/DX =    0.0                 !
 ! D20   D(9,4,5,8)              0.0022         -DE/DX =    0.0                 !
 ! D21   D(4,5,6,1)              0.0008         -DE/DX =    0.0                 !
 ! D22   D(4,5,6,7)            180.0035         -DE/DX =    0.0                 !
 ! D23   D(8,5,6,1)           -180.0043         -DE/DX =    0.0                 !
 ! D24   D(8,5,6,7)             -0.0016         -DE/DX =    0.0                 !
 --------------------------------------------------------------------------------
 GradGradGradGradGradGradGradGradGradGradGradGradGradGradGradGradGradGrad

                          Input orientation:                          
 ---------------------------------------------------------------------
 Center     Atomic      Atomic             Coordinates (Angstroms)
 Number     Number       Type             X           Y           Z
 ---------------------------------------------------------------------
      1          6           0        1.890838   -1.039256   -0.118841
      2          6           0        2.914259   -1.627309    0.612270
      3          6           0        2.885971   -1.656373    2.000099
      4          6           0        1.807012   -1.082644    2.664890
      5          6           0        0.757186   -0.480876    1.959198
      6          6           0        0.818368   -0.469556    0.559771
      7         17           0       -0.445858    0.257847   -0.371841
      8         17           0       -0.575041    0.227291    2.791106
      9         17           0        1.792753   -1.130401    4.394862
     10         17           0        4.257644   -2.341200   -0.226550
     11          1           0        1.919704   -1.020272   -1.202308
     12          1           0        3.688664   -2.117252    2.564343
 ---------------------------------------------------------------------
                    Distance matrix (angstroms):
                    1          2          3          4          5
     1  C    0.000000
     2  C    1.388425   0.000000
     3  C    2.420957   1.388422   0.000000
     4  C    2.785331   2.394974   1.391138   0.000000
     5  C    2.432119   2.789532   2.432117   1.400807   0.000000
     6  C    1.391138   2.394975   2.785329   2.405164   1.400809
     7  Cl   2.684517   3.976516   4.515686   4.011742   2.725210
     8  Cl   4.019016   4.512436   4.019015   2.721403   1.722905
     9  Cl   4.515689   3.976518   2.684522   1.730690   2.725204
    10  Cl   2.703412   1.737223   2.703414   3.993744   4.526755
    11  H    1.084018   2.156462   3.404954   3.869342   3.411381
    12  H    3.404958   2.156464   1.084019   2.149684   3.411377
                    6          7          8          9         10
     6  C    0.000000
     7  Cl   1.730689   0.000000
     8  Cl   2.721404   3.165731   0.000000
     9  Cl   4.011740   5.446105   3.165724   0.000000
    10  Cl   3.993742   5.375787   6.249660   5.375796   0.000000
    11  H    2.149687   2.814099   4.871091   5.599693   2.857082
    12  H    3.869342   5.599692   4.871087   2.814100   2.857092
                   11         12
    11  H    0.000000
    12  H    4.303516   0.000000
 Stoichiometry    C6H2Cl4
 Framework group  C1[X(C6H2Cl4)]
 Deg. of freedom    30
 Full point group                 C1      NOp   1
 Largest Abelian subgroup         C1      NOp   1
 Largest concise Abelian subgroup C1      NOp   1
                         Standard orientation:                         
 ---------------------------------------------------------------------
 Center     Atomic      Atomic             Coordinates (Angstroms)
 Number     Number       Type             X           Y           Z
 ---------------------------------------------------------------------
      1          6           0       -1.166590   -1.210474   -0.000039
      2          6           0       -1.846629    0.000009   -0.000047
      3          6           0       -1.166580    1.210483   -0.000038
      4          6           0        0.224535    1.202582   -0.000047
      5          6           0        0.942903   -0.000002   -0.000065
      6          6           0        0.224525   -1.202582   -0.000053
      7         17           0        1.051229   -2.723058    0.000017
      8         17           0        2.665807   -0.000009    0.000029
      9         17           0        1.051259    2.723048    0.000015
     10         17           0       -3.583852    0.000012    0.000041
     11          1           0       -1.704267   -2.151749   -0.000016
     12          1           0       -1.704244    2.151767   -0.000001
[...]
    R2        2.62887   0.00000   0.00000  -0.00003  -0.00003   2.62884
    R3        2.04850   0.00001   0.00000   0.00001   0.00001   2.04851
    R4        2.62374   0.00004   0.00000   0.00013   0.00013   2.62387
    R5        3.28288  -0.00003   0.00000  -0.00017  -0.00017   3.28270
    R6        2.62887   0.00000   0.00000  -0.00003  -0.00003   2.62884
    R7        2.04850   0.00001   0.00000   0.00001   0.00001   2.04851
    R8        2.64714  -0.00002   0.00000  -0.00014  -0.00014   2.64700
    R9        3.27053   0.00015   0.00000   0.00069   0.00069   3.27122
   R10        2.64715  -0.00002   0.00000  -0.00015  -0.00015   2.64700
   R11        3.25582  -0.00003   0.00000  -0.00020  -0.00020   3.25562
   R12        3.27053   0.00015   0.00000   0.00069   0.00069   3.27122
    A1        2.07697  -0.00001   0.00000  -0.00007  -0.00007   2.07691
    A2        2.11075  -0.00001   0.00000  -0.00009  -0.00009   2.11066
    A3        2.09546   0.00002   0.00000   0.00016   0.00016   2.09562
    A4        2.11788  -0.00003   0.00000  -0.00016  -0.00016   2.11773
    A5        2.08265   0.00001   0.00000   0.00008   0.00008   2.08273
    A6        2.08266   0.00001   0.00000   0.00007   0.00007   2.08273
    A7        2.07698  -0.00001   0.00000  -0.00007  -0.00007   2.07691
    A8        2.11076  -0.00001   0.00000  -0.00010  -0.00010   2.11066
    A9        2.09545   0.00002   0.00000   0.00017   0.00017   2.09562
   A10        2.11495   0.00005   0.00000   0.00033   0.00033   2.11528
   A11        2.06313  -0.00013   0.00000  -0.00063  -0.00063   2.06251
   A12        2.10510   0.00009   0.00000   0.00029   0.00029   2.10540
   A13        2.06464  -0.00004   0.00000  -0.00037  -0.00037   2.06427
   A14        2.10927   0.00002   0.00000   0.00018   0.00018   2.10946
   A15        2.10927   0.00002   0.00000   0.00019   0.00019   2.10946
   A16        2.11495   0.00005   0.00000   0.00033   0.00033   2.11528
   A17        2.06313  -0.00013   0.00000  -0.00062  -0.00062   2.06251
   A18        2.10511   0.00009   0.00000   0.00029   0.00029   2.10540
    D1       -0.00003   0.00000   0.00000   0.00002   0.00002   0.00000
    D2       -3.14155   0.00000   0.00000  -0.00006  -0.00006   3.14158
    D3        3.14156   0.00000   0.00000   0.00003   0.00003  -3.14159
    D4        0.00004   0.00000   0.00000  -0.00005  -0.00005   0.00000
    D5        0.00001   0.00000   0.00000  -0.00001  -0.00001   0.00000
    D6        3.14155   0.00000   0.00000   0.00005   0.00005  -3.14158
    D7       -3.14158   0.00000   0.00000  -0.00002  -0.00002   3.14159
    D8       -0.00003   0.00000   0.00000   0.00004   0.00004   0.00000
    D9        0.00002   0.00000   0.00000  -0.00002  -0.00002   0.00000
   D10       -3.14155   0.00000   0.00000  -0.00005  -0.00005   3.14159
   D11        3.14154   0.00000   0.00000   0.00006   0.00006  -3.14158
   D12       -0.00003   0.00000   0.00000   0.00003   0.00003   0.00000
   D13        0.00000   0.00000   0.00000   0.00000   0.00000   0.00000
   D14       -3.14156   0.00000   0.00000  -0.00004  -0.00004   3.14159
   D15        3.14157   0.00000   0.00000   0.00003   0.00003  -3.14159
   D16        0.00001   0.00000   0.00000  -0.00001  -0.00001   0.00000
   D17       -0.00002   0.00000   0.00000   0.00002   0.00002   0.00000
   D18       -3.14152   0.00000   0.00000  -0.00008  -0.00008   3.14158
   D19        3.14154   0.00000   0.00000   0.00006   0.00006  -3.14159
   D20        0.00004   0.00000   0.00000  -0.00004  -0.00004   0.00000
   D21        0.00001   0.00000   0.00000  -0.00001  -0.00001   0.00000
   D22       -3.14153   0.00000   0.00000  -0.00007  -0.00007   3.14159
   D23        3.14152   0.00000   0.00000   0.00008   0.00008  -3.14158
   D24       -0.00003   0.00000   0.00000   0.00003   0.00003   0.00000
         Item               Value     Threshold  Converged?
 Maximum Force            0.000146     0.000450     YES
 RMS     Force            0.000044     0.000300     YES
 Maximum Displacement     0.001285     0.001800     YES
 RMS     Displacement     0.000284     0.001200     YES
 Predicted change in Energy=-2.565145D-07
 Optimization completed.
    -- Stationary point found.
                           ----------------------------
                           !   Optimized Parameters   !
                           ! (Angstroms and Degrees)  !
 --------------------------                            --------------------------
 ! Name  Definition              Value          Derivative Info.                !
 --------------------------------------------------------------------------------
 ! R1    R(1,2)                  1.3884         -DE/DX =    0.0                 !
 ! R2    R(1,6)                  1.3911         -DE/DX =    0.0                 !
 ! R3    R(1,11)                 1.084          -DE/DX =    0.0                 !
 ! R4    R(2,3)                  1.3884         -DE/DX =    0.0                 !
 ! R5    R(2,10)                 1.7372         -DE/DX =    0.0                 !
 ! R6    R(3,4)                  1.3911         -DE/DX =    0.0                 !
 ! R7    R(3,12)                 1.084          -DE/DX =    0.0                 !
 ! R8    R(4,5)                  1.4008         -DE/DX =    0.0                 !
 ! R9    R(4,9)                  1.7307         -DE/DX =    0.0001              !
 ! R10   R(5,6)                  1.4008         -DE/DX =    0.0                 !
 ! R11   R(5,8)                  1.7229         -DE/DX =    0.0                 !
 ! R12   R(6,7)                  1.7307         -DE/DX =    0.0001              !
 ! A1    A(2,1,6)              119.0019         -DE/DX =    0.0                 !
 ! A2    A(2,1,11)             120.9371         -DE/DX =    0.0                 !
 ! A3    A(6,1,11)             120.061          -DE/DX =    0.0                 !
 ! A4    A(1,2,3)              121.3456         -DE/DX =    0.0                 !
 ! A5    A(1,2,10)             119.327          -DE/DX =    0.0                 !
 ! A6    A(3,2,10)             119.3274         -DE/DX =    0.0                 !
 ! A7    A(2,3,4)              119.002          -DE/DX =    0.0                 !
 ! A8    A(2,3,12)             120.9374         -DE/DX =    0.0                 !
 ! A9    A(4,3,12)             120.0606         -DE/DX =    0.0                 !
 ! A10   A(3,4,5)              121.1776         -DE/DX =    0.0                 !
 ! A11   A(3,4,9)              118.2088         -DE/DX =   -0.0001              !
 ! A12   A(5,4,9)              120.6136         -DE/DX =    0.0001              !
 ! A13   A(4,5,6)              118.2953         -DE/DX =    0.0                 !
 ! A14   A(4,5,8)              120.8524         -DE/DX =    0.0                 !
 ! A15   A(6,5,8)              120.8523         -DE/DX =    0.0                 !
 ! A16   A(1,6,5)              121.1776         -DE/DX =    0.0                 !
 ! A17   A(1,6,7)              118.2085         -DE/DX =   -0.0001              !
 ! A18   A(5,6,7)              120.6139         -DE/DX =    0.0001              !
 ! D1    D(6,1,2,3)             -0.0015         -DE/DX =    0.0                 !
 ! D2    D(6,1,2,10)           180.0027         -DE/DX =    0.0                 !
 ! D3    D(11,1,2,3)          -180.0018         -DE/DX =    0.0                 !
 ! D4    D(11,1,2,10)            0.0023         -DE/DX =    0.0                 !
 ! D5    D(2,1,6,5)              0.0004         -DE/DX =    0.0                 !
 ! D6    D(2,1,6,7)           -180.0022         -DE/DX =    0.0                 !
 ! D7    D(11,1,6,5)           180.0008         -DE/DX =    0.0                 !
 ! D8    D(11,1,6,7)            -0.0019         -DE/DX =    0.0                 !
 ! D9    D(1,2,3,4)              0.0012         -DE/DX =    0.0                 !
 ! D10   D(1,2,3,12)           180.0027         -DE/DX =    0.0                 !
 ! D11   D(10,2,3,4)          -180.0029         -DE/DX =    0.0                 !
 ! D12   D(10,2,3,12)           -0.0015         -DE/DX =    0.0                 !
 ! D13   D(2,3,4,5)              0.0            -DE/DX =    0.0                 !
 ! D14   D(2,3,4,9)            180.0019         -DE/DX =    0.0                 !
 ! D15   D(12,3,4,5)          -180.0013         -DE/DX =    0.0                 !
 ! D16   D(12,3,4,9)             0.0005         -DE/DX =    0.0                 !
 ! D17   D(3,4,5,6)             -0.001          -DE/DX =    0.0                 !
 ! D18   D(3,4,5,8)            180.0041         -DE/DX =    0.0                 !
 ! D19   D(9,4,5,6)           -180.0029         -DE/DX =    0.0                 !
 ! D20   D(9,4,5,8)              0.0022         -DE/DX =    0.0                 !
 ! D21   D(4,5,6,1)              0.0008         -DE/DX =    0.0                 !
 ! D22   D(4,5,6,7)            180.0035         -DE/DX =    0.0                 !
 ! D23   D(8,5,6,1)           -180.0043         -DE/DX =    0.0                 !
 ! D24   D(8,5,6,7)             -0.0016         -DE/DX =    0.0                 !
 --------------------------------------------------------------------------------
 GradGradGradGradGradGradGradGradGradGradGradGradGradGradGradGradGradGrad

 1\1\GINC-KATANA2\Freq\RM062X\6-31+G(d)\C6H2Cl4\Z5358697\15-Mar-2025\0\
 \#N Geom=AllCheck Guess=TCheck SCRF=Check GenChk RM062X/6-31+G(d) Freq
 \\1,2,3,5-tetrachlorobenzene\\0,1\C,1.890837551,-1.0392556845,-0.11884
 13355\C,2.9142592403,-1.6273088666,0.612270418\C,2.8859707742,-1.65637
 31419,2.0000994994\C,1.8070118226,-1.082643883,2.6648896958\C,0.757186
 109,-0.480875607,1.9591981786\C,0.8183679328,-0.4695564131,0.559771475
 4\Cl,-0.4458583181,0.2578470655,-0.371840512\Cl,-0.5750408444,0.227291
 4053,2.7911062773\Cl,1.7927526863,-1.1304007455,4.3948619539\Cl,4.2576
 444581,-2.3411995671,-0.2265504114\H,1.919704129,-1.020272278,-1.20230
 83107\H,3.6886644591,-2.1172522841,2.5643430714\\Version=ES64L-G09RevD
 .01\State=1-A\HF=-2070.4114433\RMSD=7.995e-09\RMSF=7.896e-05\ZeroPoint
 =0.0627646\Thermal=0.0718692\Dipole=0.2988911,-0.1588524,-0.1866341\Di
 poleDeriv=-0.383204,0.1578072,-0.0138625,0.1560316,-0.185877,0.0092179
 ,0.0231117,-0.0143174,-0.1468414,0.7982056,-0.4237606,-0.4201012,-0.42
 44291,0.2296926,0.2183521,-0.4206731,0.2174222,0.4267876,-0.2148573,0.
 0554691,0.1524417,0.0594122,-0.1297864,-0.0752337,0.1148323,-0.0530035
 ,-0.3729763,0.0115551,-0.003003,0.0381868,-0.0055354,0.013043,-0.05648
 17,0.1096448,-0.0952346,1.1075224,0.4650689,-0.2281965,-0.4955192,-0.2
 381495,0.1202739,0.2779621,-0.4959585,0.2775988,-0.1351749,0.527257,-0
 .3096029,0.4996782,-0.3031957,0.1821974,-0.2890223,0.4299255,-0.247529
 9,0.417649,-0.3965611,0.2094855,-0.282391,0.2120678,-0.149899,0.163650
 4,-0.2913568,0.1672811,-0.2748085,-0.4085192,0.2094217,0.2626321,0.210
 8862,-0.1220616,-0.140589,0.2624473,-0.1409237,-0.1435704,-0.0411523,0
 .0062676,-0.0237652,0.0068446,-0.0341071,0.0361743,-0.0153274,0.031548
 7,-0.7466503,-0.5327022,0.2625981,0.2846512,0.2629833,-0.1789471,-0.14
 97355,0.2851,-0.1489536,-0.2665897,0.0958399,0.0272678,0.0072251,0.027
 0327,0.1307052,-0.0013101,0.0032619,0.0010753,0.0564066,0.0790697,0.03
 62461,-0.0091759,0.0360513,0.124766,0.0070154,-0.0050078,0.0050365,0.0
 782457\Polar=127.8709929,-36.4379477,81.1389749,-8.2320216,2.1447961,1
 37.3247689\PG=C01 [X(C6H2Cl4)]\NImag=0\\0.56389147,-0.24307149,0.25767
 811,-0.00382223,-0.01905584,0.78007836,-0.22383438,0.09468874,-0.13154
 418,0.47334865,0.09251746,-0.11335697,0.07700156,-0.19605418,0.2302351
 4,-0.06421852,0.03985227,-0.19730842,0.04771184,-0.04372507,0.66138785
 ,0.03434825,-0.01428060,-0.02152127,-0.10362079,0.02548546,-0.04110558
 ,0.60431530,-0.01272758,0.01379698,0.01292912,0.02330320,-0.07373347,0
 .03224294,-0.26633053,0.27097980,-0.06991689,0.03961468,-0.02550499,0.
 02622261,-0.00490189,-0.35714030,0.02659378,-0.03408839,0.72635146,-0.
 06319684,0.03437582,-0.00255045,0.03007986,-0.01690050,0.08699468,-0.2
 5137130,0.10501900,0.04686705,0.53355983,0.03434884,-0.02001545,0.0013
 8897,-0.01486021,0.01422592,-0.04696870,0.10280837,-0.11421188,-0.0226
 4210,-0.22970282,0.24307311,-0.00170930,0.00092974,-0.00059977,0.02371
 949,-0.01206886,-0.02708687,0.11544386,-0.06046998,-0.15787476,-0.0155
 3779,-0.00512078,0.54188873,0.02815493,-0.01297442,0.02180602,-0.01595
 613,0.00866738,-0.03132810,-0.03965838,0.02430603,0.02530738,-0.212482
 11,0.08835391,-0.11424207,0.46713765,-0.01472494,0.01441056,-0.0112072
 4,0.00871601,-0.00737467,0.01940104,0.02609461,-0.00794638,-0.01606057
 ,0.08618167,-0.10866100,0.06610701,-0.19657536,0.22154041,0.07634460,-
 0.04129963,-0.01922963,-0.03132980,0.01939846,-0.06767889,-0.02922735,
 0.01403023,0.07094313,-0.04715007,0.02909610,-0.15506512,0.02262366,-0
 .02876030,0.61821533,-0.23289243,0.09217898,0.12934210,-0.04844587,0.0
 3038916,-0.03538015,-0.01767706,0.00815257,0.03254579,0.03676305,-0.01
 715763,-0.01849475,-0.09143097,0.01867105,-0.02317428,0.47770965,0.094
 38689,-0.10812645,-0.06734771,0.02833296,-0.01165032,0.01716562,0.0081
 6165,-0.00500416,-0.01600959,-0.01511465,0.01256887,0.01125011,0.01651
 062,-0.06876275,0.02105718,-0.19757611,0.22467479,0.06076425,-0.029519
 98,-0.18243364,0.02788984,-0.01774275,0.07734277,0.03170155,-0.0155581
 0,-0.06112314,-0.08174099,0.04614500,-0.02805010,0.04391016,-0.0159634
 0,-0.31598526,-0.05754516,0.01565005,0.61610652,-0.03157001,0.02071588
 ,-0.02150867,0.00250515,0.00116660,0.00508518,-0.00120098,0.00023324,-
 0.00232506,0.00168465,0.00117425,0.00091429,-0.01028323,0.00811452,-0.
 00793022,-0.11186271,0.05184703,-0.05749016,0.15018497,0.02004775,-0.0
 0671581,0.01186547,0.00125199,0.00428147,-0.00264420,0.00019623,-0.001
 07191,0.00125933,0.00106716,0.00329411,-0.00030662,0.00877236,-0.00106
 032,0.00520016,0.05172132,-0.05084479,0.03352853,-0.08056657,0.0548749
 4,-0.00081408,0.00045358,0.00461496,0.00206790,-0.00097203,-0.00011808
 ,-0.00135753,0.00072681,-0.00016324,0.00431312,-0.00218384,-0.00224774
 ,-0.02828522,0.01643327,-0.02168291,-0.05359989,0.03137822,-0.07743643
 ,0.08121094,-0.04790387,0.10518629,0.00277375,0.00060452,0.00028117,0.
 00024169,-0.00044345,-0.00010138,0.00058512,0.00197249,-0.00463545,-0.
 02907452,0.01740171,0.01811474,-0.12428597,0.05435475,0.05540618,-0.01
 405130,0.00937480,0.01008774,0.00223672,-0.00180641,-0.00303857,0.1681
 9782,0.00070873,0.00349075,0.00009367,-0.00045184,-0.00033818,0.000026
 16,0.00186616,0.00276888,0.00270925,0.01802399,-0.00609301,-0.00992391
 ,0.05434717,-0.05158585,-0.02889673,0.00875556,-0.00114123,-0.00485344
 ,-0.00202360,-0.00015704,0.00190445,-0.08437595,0.05603090,-0.00298685
 ,0.00189519,-0.00378239,-0.00010070,0.00002714,0.00035620,-0.00136827,
 0.00090877,-0.00086956,-0.00121472,0.00073821,0.00137172,0.05540914,-0
 .02889453,-0.07444621,0.02941598,-0.01551697,-0.01859931,0.00379206,-0
 .00186475,-0.00827925,-0.07700671,0.03947524,0.10421147,0.00085704,-0.
 00098700,0.00019101,-0.00129995,0.00344926,-0.00079618,0.00268743,0.00
 032175,0.02496291,-0.03385187,0.00679955,0.00509512,0.00054938,0.00252
 215,-0.02013168,-0.00208354,0.00323814,0.00147752,-0.00003815,0.000037
 71,-0.00110757,-0.00420840,0.00190723,-0.00788904,0.03741623,-0.000956
 27,-0.00039357,-0.00004140,0.00334736,0.00303600,0.00043802,0.00098567
 ,0.00457470,-0.01230030,0.00692621,-0.02512087,0.00232735,0.00186354,0
 .00251555,0.01239135,0.00334867,0.00205329,-0.00077920,0.00002296,-0.0
 0006641,0.00065301,0.00168731,-0.00228105,0.00430352,-0.01562034,0.017
 69157,-0.00077698,0.00049267,-0.00290087,0.00222442,-0.00122853,0.0049
 3730,0.00426854,-0.00088595,-0.04093496,0.00120243,0.00447503,-0.18116
 439,0.00022680,0.00116278,-0.03609734,-0.00192276,0.00109532,0.0027656
 1,-0.00061684,0.00038234,-0.00133756,-0.00105732,0.00053499,0.00029057
 ,-0.00363920,-0.00590682,0.25513634,-0.03017711,0.01833435,0.01956678,
 -0.12174921,0.05250026,0.05380745,-0.01161940,0.00838298,0.01072593,0.
 00254229,0.00129263,-0.00066183,-0.00008322,-0.00048993,0.00092363,0.0
 0232706,0.00152052,-0.00416770,-0.00144355,0.00078017,-0.00012441,-0.0
 0127177,0.00050704,0.00082721,-0.00024556,0.00008754,0.00086397,0.1616
 6857,0.01907018,-0.00596151,-0.01085274,0.05249774,-0.05146628,-0.0280
 7218,0.00764439,0.00015484,-0.00517570,0.00140143,0.00405706,0.0005904
 7,-0.00047719,-0.00063866,-0.00059037,0.00140771,0.00398478,0.00251837
 ,0.00077444,-0.00046449,0.00005780,0.00050451,-0.00056907,-0.00045549,
 0.00008902,-0.00007185,-0.00043420,-0.07979883,0.05484324,-0.00324036,
 0.00173009,0.00596080,0.05380554,-0.02807563,-0.07317949,0.03353306,-0
 .01775825,-0.01871542,-0.00401000,0.00243785,-0.00213319,0.00092366,-0
 .00059262,0.00157466,-0.00082057,0.00066950,-0.00185298,-0.00003680,0.
 00001218,0.00024301,0.00082688,-0.00045554,-0.00034439,0.00077692,-0.0
 0038652,-0.00134852,-0.08172755,0.04263560,0.08793079,-0.05048212,0.00
 859858,0.00858267,0.00424377,0.00009530,-0.02334202,-0.00228786,0.0043
 4552,-0.00184611,-0.00134446,0.00018937,0.00011250,-0.00154001,0.00398
 451,0.00098317,0.00192297,-0.00025325,0.02438816,-0.00026975,-0.001349
 11,0.00072812,-0.00042354,0.00026356,0.00125441,0.00007297,-0.00016035
 ,-0.00005384,0.00001957,-0.00153657,-0.00051460,0.04972805,0.00859061,
 -0.03930804,0.00553713,-0.00073277,0.00302925,0.01331200,0.00434667,0.
 00304736,0.00118323,0.00019617,-0.00109932,-0.00011106,0.00400031,0.00
 354705,-0.00038071,0.00055863,0.00299996,-0.01302987,-0.00130073,-0.00
 193871,-0.00052739,0.00029616,-0.00001385,-0.00068418,-0.00016566,-0.0
 0013012,0.00001884,-0.00157030,-0.00193579,0.00016678,-0.01414384,0.03
 154882,0.00890701,0.00536920,-0.35354825,0.00249251,-0.00093523,-0.010
 59532,-0.00213644,0.00133859,0.00051643,-0.00008968,-0.00000213,0.0005
 9770,0.00159840,-0.00071744,0.00066810,-0.00128777,0.00112164,-0.00990
 025,-0.00102994,0.00044707,0.00108327,0.00009092,-0.00004122,-0.000151
 46,0.00001976,-0.00002187,0.00011862,0.00047256,-0.00038102,0.00094115
 ,-0.00915759,-0.00613033,0.37063062,0.00212747,0.00181664,0.00117706,0
 .00448719,-0.00087275,0.00267277,-0.21450034,0.10302130,-0.11450194,-0
 .01330857,0.00935203,-0.01275427,-0.00012196,0.00315094,0.00266216,-0.
 00027885,-0.00042861,0.00072480,0.00005688,-0.00015260,0.00000719,-0.0
 0071958,0.00047195,-0.00013251,0.00014442,-0.00153229,-0.00071921,0.00
 003232,-0.00157684,0.00048383,0.00036042,-0.00007523,0.00012026,0.2217
 2059,0.00180982,0.00450139,-0.00031097,-0.00003900,0.00311210,-0.00102
 789,0.10302190,-0.09335477,0.06641206,0.00852654,-0.00201753,0.0067965
 4,0.00320564,0.00401607,-0.00124574,-0.00044993,-0.00075198,-0.0003952
 1,-0.00015802,-0.00013102,-0.00002002,0.00042957,-0.00011125,0.0000678
 7,-0.00159180,-0.00180725,0.00029354,-0.00154644,-0.00193226,-0.000383
 44,-0.00003373,0.00025341,-0.00004725,-0.11317455,0.08822308,0.0014693
 4,-0.00046198,-0.00534618,-0.02315946,0.01322283,-0.01091675,-0.114824
 36,0.06658422,-0.13548465,0.01291641,-0.00736361,0.01036378,0.00205017
 ,-0.00090799,-0.00121586,0.00092147,-0.00051334,-0.00083379,-0.0000647
 8,0.00002436,0.00013767,0.00103182,-0.00057291,0.00024261,0.00104043,-
 0.00067714,0.00053521,-0.00050605,0.00015948,0.00092360,-0.00113486,0.
 00064556,-0.00036059,0.12025987,-0.07013949,0.14195494\\0.00008588,-0.
 00004628,0.00005983,-0.00007494,0.00003465,0.00004756,0.00000169,0.000
 00409,-0.00011774,0.00009574,-0.00005990,0.00023321,0.00001541,-0.0000
 1390,-0.00000944,-0.00011869,0.00007140,-0.00021975,0.00007517,-0.0000
 4457,0.00013399,-0.00001828,0.00001234,0.00001232,-0.00005698,0.000036
 84,-0.00014480,0.00002260,-0.00000985,-0.00001383,-0.00001369,0.000007
 15,0.00000976,-0.00001390,0.00000803,0.00000888\\\@


 ERWIN WITH HIS PSI CAN DO
 CALCULATIONS QUITE A FEW.
 BUT ONE THING HAS NOT BEEN SEEN
 JUST WHAT DOES PSI REALLY MEAN.
 -- WALTER HUCKEL, TRANS. BY FELIX BLOCH
 Job cpu time:       0 days  0 hours  7 minutes 51.0 seconds.
 File lengths (MBytes):  RWF=    278 Int=      0 D2E=      0 Chk=      5 Scr=      2
 Normal termination of Gaussian 09 at Sat Mar 15 13:34:38 2025.
