 Entering Gaussian System, Link 0=g09
 Initial command:
 /apps/z_install_tree/linux-rocky8-ivybridge/gcc-12.2.0/gaussian-09-D.01-wczn3gur5lpur3omlkzwa2l5ecyxp5ef/g09/l1.exe "/srv/scratch/z5358697/gauss/Gau-369587.inp" -scrdir="/srv/scratch/z5358697/gauss/"
 Entering Link 1 = /apps/z_install_tree/linux-rocky8-ivybridge/gcc-12.2.0/gaussian-09-D.01-wczn3gur5lpur3omlkzwa2l5ecyxp5ef/g09/l1.exe PID=    369588.
  
 Copyright (c) 1988,1990,1992,1993,1995,1998,2003,2009,2013,
            Gaussian, Inc.  All Rights Reserved.
  
 This is part of the Gaussian(R) 09 program.  It is based on
 the Gaussian(R) 03 system (copyright 2003, Gaussian, Inc.),
 the Gaussian(R) 98 system (copyright 1998, Gaussian, Inc.),
 the Gaussian(R) 94 system (copyright 1995, Gaussian, Inc.),
 the Gaussian 92(TM) system (copyright 1992, Gaussian, Inc.),
 the Gaussian 90(TM) system (copyright 1990, Gaussian, Inc.),
 the Gaussian 88(TM) system (copyright 1988, Gaussian, Inc.),
 the Gaussian 86(TM) system (copyright 1986, Carnegie Mellon
 University), and the Gaussian 82(TM) system (copyright 1983,
 Carnegie Mellon University). Gaussian is a federally registered
 trademark of Gaussian, Inc.
  
 This software contains proprietary and confidential information,
 including trade secrets, belonging to Gaussian, Inc.
  
 This software is provided under written license and may be
 used, copied, transmitted, or stored only in accord with that
 written license.
  
 The following legend is applicable only to US Government
 contracts under FAR:
  
                    RESTRICTED RIGHTS LEGEND
  
 Use, reproduction and disclosure by the US Government is
 subject to restrictions as set forth in subparagraphs (a)
 and (c) of the Commercial Computer Software - Restricted
 Rights clause in FAR 52.227-19.
  
 Gaussian, Inc.
 340 Quinnipiac St., Bldg. 40, Wallingford CT 06492
  
  
 ---------------------------------------------------------------
 Warning -- This program may not be used in any manner that
 competes with the business of Gaussian, Inc. or will provide
 assistance to any competitor of Gaussian, Inc.  The licensee
 of this program is prohibited from giving any competitor of
 Gaussian, Inc. access to this program.  By using this program,
 the user acknowledges that Gaussian, Inc. is engaged in the
 business of creating and licensing software in the field of
 computational chemistry and represents and warrants to the
 licensee that it is not a competitor of Gaussian, Inc. and that
 it will not use this program in any manner prohibited above.
 ---------------------------------------------------------------
  

 Cite this work as:
 Gaussian 09, Revision D.01,
 M. J. Frisch, G. W. Trucks, H. B. Schlegel, G. E. Scuseria, 
 M. A. Robb, J. R. Cheeseman, G. Scalmani, V. Barone, B. Mennucci, 
 G. A. Petersson, H. Nakatsuji, M. Caricato, X. Li, H. P. Hratchian, 
 A. F. Izmaylov, J. Bloino, G. Zheng, J. L. Sonnenberg, M. Hada, 
 M. Ehara, K. Toyota, R. Fukuda, J. Hasegawa, M. Ishida, T. Nakajima, 
 Y. Honda, O. Kitao, H. Nakai, T. Vreven, J. A. Montgomery, Jr., 
 J. E. Peralta, F. Ogliaro, M. Bearpark, J. J. Heyd, E. Brothers, 
 K. N. Kudin, V. N. Staroverov, T. Keith, R. Kobayashi, J. Normand, 
 K. Raghavachari, A. Rendell, J. C. Burant, S. S. Iyengar, J. Tomasi, 
 M. Cossi, N. Rega, J. M. Millam, M. Klene, J. E. Knox, J. B. Cross, 
 V. Bakken, C. Adamo, J. Jaramillo, R. Gomperts, R. E. Stratmann, 
 O. Yazyev, A. J. Austin, R. Cammi, C. Pomelli, J. W. Ochterski, 
 R. L. Martin, K. Morokuma, V. G. Zakrzewski, G. A. Voth, 
 P. Salvador, J. J. Dannenberg, S. Dapprich, A. D. Daniels, 
 O. Farkas, J. B. Foresman, J. V. Ortiz, J. Cioslowski, 
 and D. J. Fox, Gaussian, Inc., Wallingford CT, 2013.
 
 ******************************************
 Gaussian 09:  ES64L-G09RevD.01 24-Apr-2013
                13-Mar-2025 
 ******************************************
 ---------------------------------
 #m062X/6-31+G(d) OPT Freq=noraman
 ---------------------------------
 1/14=-1,18=20,19=15,26=3,38=1/1,3;
 2/9=110,12=2,17=6,18=5,40=1/2;
 3/5=1,6=6,7=11,11=2,16=1,25=1,30=1,71=1,74=-55/1,2,3;
 4//1;
 5/5=2,38=5/2;
 6/7=2,8=2,9=2,10=2,28=1/1;
 7//1,2,3,16;
 1/14=-1,18=20,19=15,26=3/3(2);
 2/9=110/2;
 99//99;
 2/9=110/2;
 3/5=1,6=6,7=11,11=2,16=1,25=1,30=1,71=1,74=-55/1,2,3;
 4/5=5,16=3,69=1/1;
 5/5=2,38=5/2;
 7//1,2,3,16;
 1/14=-1,18=20,19=15,26=3/3(-5);
 2/9=110/2;
 6/7=2,8=2,9=2,10=2,19=2,28=1/1;
 99/9=1/99;
 ----------------
 hydrogen sulfide
 ----------------
 Symbolic Z-matrix:
 Charge =  0 Multiplicity = 1
 S                    -0.4574   -0.3303    0.2403 
 H                     0.028     0.893     0.498 
 H                     0.4294   -0.5627   -0.7383 
 

 GradGradGradGradGradGradGradGradGradGradGradGradGradGradGradGradGradGrad
 Berny optimization.
 Initialization pass.
                           ----------------------------
                           !    Initial Parameters    !
                           ! (Angstroms and Degrees)  !
 --------------------------                            --------------------------
 ! Name  Definition              Value          Derivative Info.                !
 --------------------------------------------------------------------------------
 ! R1    R(1,2)                  1.3411         estimate D2E/DX2                !
 ! R2    R(1,3)                  1.3409         estimate D2E/DX2                !
 ! A1    A(2,1,3)               93.3801         estimate D2E/DX2                !
 --------------------------------------------------------------------------------
 Trust Radius=3.00D-01 FncErr=1.00D-07 GrdErr=1.00D-06
 Number of steps in this run=     20 maximum allowed number of steps=    100.
 GradGradGradGradGradGradGradGradGradGradGradGradGradGradGradGradGradGrad

                          Input orientation:                          
 ---------------------------------------------------------------------
 Center     Atomic      Atomic             Coordinates (Angstroms)
 Number     Number       Type             X           Y           Z
 ---------------------------------------------------------------------
      1         16           0       -0.457400   -0.330300    0.240300
      2          1           0        0.028000    0.893000    0.498000
      3          1           0        0.429400   -0.562700   -0.738300
 ---------------------------------------------------------------------
                    Distance matrix (angstroms):
                    1          2          3
     1  S    0.000000
     2  H    1.341076   0.000000
     3  H    1.340926   1.951569   0.000000
 Stoichiometry    H2S
 Framework group  CS[SG(H2S)]
 Deg. of freedom     3
 Full point group                 CS      NOp   2
 Largest Abelian subgroup         CS      NOp   2
 Largest concise Abelian subgroup C1      NOp   1
                         Standard orientation:                         
 ---------------------------------------------------------------------
 Center     Atomic      Atomic             Coordinates (Angstroms)
 Number     Number       Type             X           Y           Z
 ---------------------------------------------------------------------
      1         16           0        0.000000    0.102206    0.000000
      2          1           0        0.975785   -0.817756    0.000000
      3          1           0       -0.975785   -0.817537    0.000000
 ---------------------------------------------------------------------
 Rotational constants (GHZ):    315.0048502    263.3262369    143.4282951
 Standard basis: 6-31+G(d) (6D, 7F)
 There are    21 symmetry adapted cartesian basis functions of A'  symmetry.
 There are     6 symmetry adapted cartesian basis functions of A"  symmetry.
 There are    21 symmetry adapted basis functions of A'  symmetry.
 There are     6 symmetry adapted basis functions of A"  symmetry.
    27 basis functions,    64 primitive gaussians,    27 cartesian basis functions
     9 alpha electrons        9 beta electrons
       nuclear repulsion energy        12.8987895398 Hartrees.
 NAtoms=    3 NActive=    3 NUniq=    3 SFac= 1.00D+00 NAtFMM=   60 NAOKFM=F Big=F
 Integral buffers will be    131072 words long.
 Raffenetti 2 integral format.
 Two-electron integral symmetry is turned on.
 One-electron integrals computed using PRISM.
 NBasis=    27 RedAO= T EigKep=  2.13D-02  NBF=    21     6
 NBsUse=    27 1.00D-06 EigRej= -1.00D+00 NBFU=    21     6
 ExpMin= 4.05D-02 ExpMax= 2.19D+04 ExpMxC= 3.30D+03 IAcc=2 IRadAn=         4 AccDes= 0.00D+00
 Harris functional with IExCor= 1009 and IRadAn=       4 diagonalized for initial guess.
 HarFok:  IExCor= 1009 AccDes= 0.00D+00 IRadAn=         4 IDoV= 1 UseB2=F ITyADJ=14
 ICtDFT=  3500011 ScaDFX=  1.000000  1.000000  1.000000  1.000000
 FoFCou: FMM=F IPFlag=           0 FMFlag=      100000 FMFlg1=           0
         NFxFlg=           0 DoJE=T BraDBF=F KetDBF=T FulRan=T
         wScrn=  0.000000 ICntrl=     500 IOpCl=  0 I1Cent=   200000004 NGrid=           0
         NMat0=    1 NMatS0=      1 NMatT0=    0 NMatD0=    1 NMtDS0=    0 NMtDT0=    0
 Petite list used in FoFCou.
 Initial guess orbital symmetries:
       Occupied  (A') (A') (A') (A') (A") (A') (A') (A') (A")
       Virtual   (A') (A') (A') (A') (A") (A') (A') (A') (A') (A")
                 (A') (A') (A") (A") (A') (A') (A') (A')
 The electronic state of the initial guess is 1-A'.
 Keep R1 ints in memory in symmetry-blocked form, NReq=954332.
 Requested convergence on RMS density matrix=1.00D-08 within 128 cycles.
 Requested convergence on MAX density matrix=1.00D-06.
 Requested convergence on             energy=1.00D-06.
 No special actions if energy rises.
 SCF Done:  E(RM062X) =  -399.337625558     A.U. after    8 cycles
            NFock=  8  Conv=0.88D-08     -V/T= 2.0027

 **********************************************************************

            Population analysis using the SCF density.

 **********************************************************************

 Orbital symmetries:
       Occupied  (A') (A') (A') (A') (A") (A') (A') (A') (A")
       Virtual   (A') (A') (A') (A') (A") (A') (A') (A') (A') (A")
                 (A') (A') (A") (A") (A') (A') (A') (A')
 The electronic state is 1-A'.
 Alpha  occ. eigenvalues --  -89.92643  -8.27622  -6.19689  -6.19475  -6.18980
 Alpha  occ. eigenvalues --   -0.83718  -0.51522  -0.42711  -0.31923
 Alpha virt. eigenvalues --    0.01751   0.05723   0.06662   0.06723   0.07553
 Alpha virt. eigenvalues --    0.15518   0.48059   0.49332   0.52889   0.53624
 Alpha virt. eigenvalues --    0.72654   0.78849   0.81829   0.82329   0.83995
 Alpha virt. eigenvalues --    1.13387   1.30219   3.93696
          Condensed to atoms (all electrons):
               1          2          3
     1  S   15.679012   0.283006   0.282996
     2  H    0.283006   0.613403  -0.018913
     3  H    0.282996  -0.018913   0.613406
 Mulliken charges:
               1
     1  S   -0.245015
     2  H    0.122504
     3  H    0.122510
 Sum of Mulliken charges =   0.00000
 Mulliken charges with hydrogens summed into heavy atoms:
               1
     1  S    0.000000
 Electronic spatial extent (au):  <R**2>=             44.1602
 Charge=              0.0000 electrons
 Dipole moment (field-independent basis, Debye):
    X=             -0.0001    Y=             -1.4722    Z=              0.0000  Tot=              1.4722
 Quadrupole moment (field-independent basis, Debye-Ang):
   XX=            -12.3046   YY=            -13.7752   ZZ=            -16.9451
   XY=             -0.0002   XZ=              0.0000   YZ=              0.0000
 Traceless Quadrupole moment (field-independent basis, Debye-Ang):
   XX=              2.0370   YY=              0.5664   ZZ=             -2.6035
   XY=             -0.0002   XZ=              0.0000   YZ=              0.0000
 Octapole moment (field-independent basis, Debye-Ang**2):
  XXX=             -0.0005  YYY=             -1.7773  ZZZ=              0.0000  XYY=              0.0001
  XXY=             -1.0775  XXZ=              0.0000  XZZ=             -0.0002  YZZ=             -0.6748
  YYZ=              0.0000  XYZ=              0.0000
 Hexadecapole moment (field-independent basis, Debye-Ang**3):
 XXXX=            -22.7483 YYYY=            -24.9694 ZZZZ=            -25.9263 XXXY=              0.0005
 XXXZ=              0.0000 YYYX=              0.0003 YYYZ=              0.0000 ZZZX=              0.0000
 ZZZY=              0.0000 XXYY=             -7.1645 XXZZ=             -8.3937 YYZZ=             -8.6724
 XXYZ=              0.0000 YYXZ=              0.0000 ZZXY=              0.0002
 N-N= 1.289878953981D+01 E-N=-9.748661871778D+02  KE= 3.982589947384D+02
 Symmetry A'   KE= 3.596702478776D+02
 Symmetry A"   KE= 3.858874686076D+01
 Calling FoFJK, ICntrl=      2127 FMM=F ISym2X=1 I1Cent= 0 IOpClX= 0 NMat=1 NMatS=1 NMatT=0.
 ***** Axes restored to original set *****
 -------------------------------------------------------------------
 Center     Atomic                   Forces (Hartrees/Bohr)
 Number     Number              X              Y              Z
 -------------------------------------------------------------------
      1       16          -0.000761618   -0.000496992    0.000431253
      2        1           0.000459125   -0.000128143   -0.000511248
      3        1           0.000302493    0.000625135    0.000079995
 -------------------------------------------------------------------
 Cartesian Forces:  Max     0.000761618 RMS     0.000470263

 GradGradGradGradGradGradGradGradGradGradGradGradGradGradGradGradGradGrad
 Berny optimization.
 FormGI is forming the generalized inverse of G from B-inverse, IUseBI=4.
 Internal  Forces:  Max     0.001768248 RMS     0.001021465
 Search for a local minimum.
 Step number   1 out of a maximum of   20
 All quantities printed in internal units (Hartrees-Bohrs-Radians)
 Mixed Optimization -- RFO/linear search
 Second derivative matrix not updated -- first step.
 The second derivative matrix:
                          R1        R2        A1
           R1           0.26336
           R2           0.00000   0.26348
           A1           0.00000   0.00000   0.16000
 ITU=  0
     Eigenvalues ---    0.16000   0.26336   0.26348
 RFO step:  Lambda=-1.95550453D-05 EMin= 1.60000000D-01
 Linear search not attempted -- first point.
 Iteration  1 RMS(Cart)=  0.00920599 RMS(Int)=  0.00003158
 Iteration  2 RMS(Cart)=  0.00002612 RMS(Int)=  0.00000000
 Iteration  3 RMS(Cart)=  0.00000000 RMS(Int)=  0.00000000
 ClnCor:  largest displacement from symmetrization is 3.58D-15 for atom     3.
 Variable       Old X    -DE/DX   Delta X   Delta X   Delta X     New X
                                 (Linear)    (Quad)   (Total)
    R1        2.53427  -0.00005   0.00000  -0.00019  -0.00019   2.53408
    R2        2.53398   0.00003   0.00000   0.00013   0.00013   2.53411
    A1        1.62979  -0.00177   0.00000  -0.01105  -0.01105   1.61874
         Item               Value     Threshold  Converged?
 Maximum Force            0.001768     0.000450     NO 
 RMS     Force            0.001021     0.000300     NO 
 Maximum Displacement     0.009008     0.001800     NO 
 RMS     Displacement     0.009219     0.001200     NO 
 Predicted change in Energy=-9.777523D-06
 GradGradGradGradGradGradGradGradGradGradGradGradGradGradGradGradGradGrad

                          Input orientation:                          
 ---------------------------------------------------------------------
 Center     Atomic      Atomic             Coordinates (Angstroms)
 Number     Number       Type             X           Y           Z
 ---------------------------------------------------------------------
      1         16           0       -0.460080   -0.332183    0.241739
      2          1           0        0.030370    0.890116    0.494055
      3          1           0        0.429710   -0.557933   -0.735794
 ---------------------------------------------------------------------
                    Distance matrix (angstroms):
                    1          2          3
     1  S    0.000000
     2  H    1.340978   0.000000
     3  H    1.340992   1.941352   0.000000
 Stoichiometry    H2S
 Framework group  CS[SG(H2S)]
 Deg. of freedom     3
 Full point group                 CS      NOp   2
 Largest Abelian subgroup         CS      NOp   2
 Largest concise Abelian subgroup C1      NOp   1
                         Standard orientation:                         
 ---------------------------------------------------------------------
 Center     Atomic      Atomic             Coordinates (Angstroms)
 Number     Number       Type             X           Y           Z
 ---------------------------------------------------------------------
      1         16           0        0.000000    0.102802    0.000000
      2          1           0        0.970676   -0.822406    0.000000
      3          1           0       -0.970676   -0.822427    0.000000
 ---------------------------------------------------------------------
 Rotational constants (GHZ):    311.3612806    266.1052372    143.4799506
 Standard basis: 6-31+G(d) (6D, 7F)
 There are    21 symmetry adapted cartesian basis functions of A'  symmetry.
 There are     6 symmetry adapted cartesian basis functions of A"  symmetry.
 There are    21 symmetry adapted basis functions of A'  symmetry.
 There are     6 symmetry adapted basis functions of A"  symmetry.
    27 basis functions,    64 primitive gaussians,    27 cartesian basis functions
     9 alpha electrons        9 beta electrons
       nuclear repulsion energy        12.9003645062 Hartrees.
 NAtoms=    3 NActive=    3 NUniq=    3 SFac= 1.00D+00 NAtFMM=   60 NAOKFM=F Big=F
 Integral buffers will be    131072 words long.
 Raffenetti 2 integral format.
 Two-electron integral symmetry is turned on.
 One-electron integrals computed using PRISM.
 NBasis=    27 RedAO= T EigKep=  2.13D-02  NBF=    21     6
 NBsUse=    27 1.00D-06 EigRej= -1.00D+00 NBFU=    21     6
 Initial guess from the checkpoint file:  "/srv/scratch/z5358697/gauss/Gau-369588.chk"
 B after Tr=     0.000000    0.000000    0.000000
         Rot=    1.000000    0.000000    0.000000   -0.000034 Ang=   0.00 deg.
 Initial guess orbital symmetries:
       Occupied  (A') (A') (A') (A') (A") (A') (A') (A') (A")
       Virtual   (A') (A') (A') (A') (A') (A') (A') (A') (A') (A')
                 (A') (A') (A') (A') (A") (A") (A") (A")
 Keep R1 ints in memory in symmetry-blocked form, NReq=954332.
 Requested convergence on RMS density matrix=1.00D-08 within 128 cycles.
 Requested convergence on MAX density matrix=1.00D-06.
 Requested convergence on             energy=1.00D-06.
 No special actions if energy rises.
 SCF Done:  E(RM062X) =  -399.337633669     A.U. after    7 cycles
            NFock=  7  Conv=0.36D-08     -V/T= 2.0027
 Calling FoFJK, ICntrl=      2127 FMM=F ISym2X=1 I1Cent= 0 IOpClX= 0 NMat=1 NMatS=1 NMatT=0.
 ***** Axes restored to original set *****
 -------------------------------------------------------------------
 Center     Atomic                   Forces (Hartrees/Bohr)
 Number     Number              X              Y              Z
 -------------------------------------------------------------------
      1       16           0.000079315    0.000052383   -0.000044543
      2        1          -0.000062108    0.000063845    0.000096482
      3        1          -0.000017207   -0.000116229   -0.000051939
 -------------------------------------------------------------------
 Cartesian Forces:  Max     0.000116229 RMS     0.000070525

 GradGradGradGradGradGradGradGradGradGradGradGradGradGradGradGradGradGrad
 Berny optimization.
 Using GEDIIS/GDIIS optimizer.
 FormGI is forming the generalized inverse of G from B-inverse, IUseBI=4.
 Internal  Forces:  Max     0.000303836 RMS     0.000180102
 Search for a local minimum.
 Step number   2 out of a maximum of   20
 All quantities printed in internal units (Hartrees-Bohrs-Radians)
 Mixed Optimization -- En-DIIS/RFO-DIIS
 Update second derivatives using D2CorX and points    1    2
 DE= -8.11D-06 DEPred=-9.78D-06 R= 8.30D-01
 TightC=F SS=  1.41D+00  RLast= 1.11D-02 DXNew= 5.0454D-01 3.3157D-02
 Trust test= 8.30D-01 RLast= 1.11D-02 DXMaxT set to 3.00D-01
 The second derivative matrix:
                          R1        R2        A1
           R1           0.26370
           R2           0.00014   0.26343
           A1           0.00485   0.00416   0.18748
 ITU=  1  0
 Use linear search instead of GDIIS.
     Eigenvalues ---    0.18695   0.26339   0.26427
 RFO step:  Lambda=-1.30665961D-08 EMin= 1.86949905D-01
 Quartic linear search produced a step of -0.14619.
 Iteration  1 RMS(Cart)=  0.00139872 RMS(Int)=  0.00000067
 Iteration  2 RMS(Cart)=  0.00000049 RMS(Int)=  0.00000000
 ClnCor:  largest displacement from symmetrization is 1.43D-15 for atom     3.
 Variable       Old X    -DE/DX   Delta X   Delta X   Delta X     New X
                                 (Linear)    (Quad)   (Total)
    R1        2.53408   0.00005   0.00003   0.00015   0.00017   2.53426
    R2        2.53411   0.00005  -0.00002   0.00017   0.00015   2.53426
    A1        1.61874   0.00030   0.00162  -0.00001   0.00161   1.62035
         Item               Value     Threshold  Converged?
 Maximum Force            0.000304     0.000450     YES
 RMS     Force            0.000180     0.000300     YES
 Maximum Displacement     0.001378     0.001800     YES
 RMS     Displacement     0.001399     0.001200     NO 
 Predicted change in Energy=-2.530994D-07
 GradGradGradGradGradGradGradGradGradGradGradGradGradGradGradGradGradGrad

                          Input orientation:                          
 ---------------------------------------------------------------------
 Center     Atomic      Atomic             Coordinates (Angstroms)
 Number     Number       Type             X           Y           Z
 ---------------------------------------------------------------------
      1         16           0       -0.459721   -0.331928    0.241547
      2          1           0        0.030027    0.890590    0.494660
      3          1           0        0.429694   -0.558662   -0.736207
 ---------------------------------------------------------------------
                    Distance matrix (angstroms):
                    1          2          3
     1  S    0.000000
     2  H    1.341070   0.000000
     3  H    1.341071   1.942962   0.000000
 Stoichiometry    H2S
 Framework group  CS[SG(H2S)]
 Deg. of freedom     3
 Full point group                 CS      NOp   2
 Largest Abelian subgroup         CS      NOp   2
 Largest concise Abelian subgroup C1      NOp   1
                         Standard orientation:                         
 ---------------------------------------------------------------------
 Center     Atomic      Atomic             Coordinates (Angstroms)
 Number     Number       Type             X           Y           Z
 ---------------------------------------------------------------------
      1         16           0        0.000000    0.102722    0.000000
      2          1           0        0.971481   -0.821775    0.000000
      3          1           0       -0.971481   -0.821776    0.000000
 ---------------------------------------------------------------------
 Rotational constants (GHZ):    311.8473848    265.6643896    143.4546425
 Standard basis: 6-31+G(d) (6D, 7F)
 There are    21 symmetry adapted cartesian basis functions of A'  symmetry.
 There are     6 symmetry adapted cartesian basis functions of A"  symmetry.
 There are    21 symmetry adapted basis functions of A'  symmetry.
 There are     6 symmetry adapted basis functions of A"  symmetry.
    27 basis functions,    64 primitive gaussians,    27 cartesian basis functions
     9 alpha electrons        9 beta electrons
       nuclear repulsion energy        12.8993341137 Hartrees.
 NAtoms=    3 NActive=    3 NUniq=    3 SFac= 1.00D+00 NAtFMM=   60 NAOKFM=F Big=F
 Integral buffers will be    131072 words long.
 Raffenetti 2 integral format.
 Two-electron integral symmetry is turned on.
 One-electron integrals computed using PRISM.
 NBasis=    27 RedAO= T EigKep=  2.13D-02  NBF=    21     6
 NBsUse=    27 1.00D-06 EigRej= -1.00D+00 NBFU=    21     6
 Initial guess from the checkpoint file:  "/srv/scratch/z5358697/gauss/Gau-369588.chk"
 B after Tr=     0.000000    0.000000    0.000000
         Rot=    1.000000    0.000000    0.000000    0.000003 Ang=   0.00 deg.
 Initial guess orbital symmetries:
       Occupied  (A') (A') (A') (A') (A") (A') (A') (A') (A")
       Virtual   (A') (A') (A') (A') (A') (A') (A') (A') (A') (A')
                 (A') (A') (A') (A') (A") (A") (A") (A")
 Keep R1 ints in memory in symmetry-blocked form, NReq=954332.
 Requested convergence on RMS density matrix=1.00D-08 within 128 cycles.
 Requested convergence on MAX density matrix=1.00D-06.
 Requested convergence on             energy=1.00D-06.
 No special actions if energy rises.
 SCF Done:  E(RM062X) =  -399.337633921     A.U. after    6 cycles
            NFock=  6  Conv=0.47D-08     -V/T= 2.0027
 Calling FoFJK, ICntrl=      2127 FMM=F ISym2X=1 I1Cent= 0 IOpClX= 0 NMat=1 NMatS=1 NMatT=0.
 ***** Axes restored to original set *****
 -------------------------------------------------------------------
 Center     Atomic                   Forces (Hartrees/Bohr)
 Number     Number              X              Y              Z
 -------------------------------------------------------------------
      1       16           0.000003566    0.000002188   -0.000002101
      2        1          -0.000001116   -0.000002832   -0.000000604
      3        1          -0.000002450    0.000000644    0.000002705
 -------------------------------------------------------------------
 Cartesian Forces:  Max     0.000003566 RMS     0.000002243

 GradGradGradGradGradGradGradGradGradGradGradGradGradGradGradGradGradGrad
 Berny optimization.
 Using GEDIIS/GDIIS optimizer.
 FormGI is forming the generalized inverse of G from B-inverse, IUseBI=4.
 Internal  Forces:  Max     0.000003705 RMS     0.000002791
 Search for a local minimum.
 Step number   3 out of a maximum of   20
 All quantities printed in internal units (Hartrees-Bohrs-Radians)
 Mixed Optimization -- En-DIIS/RFO-DIIS
 Swapping is turned off.
 Update second derivatives using D2CorX and points    1    2    3
 DE= -2.52D-07 DEPred=-2.53D-07 R= 9.94D-01
 Trust test= 9.94D-01 RLast= 1.62D-03 DXMaxT set to 3.00D-01
 The second derivative matrix:
                          R1        R2        A1
           R1           0.26444
           R2           0.00091   0.26423
           A1           0.00664   0.00630   0.18779
 ITU=  0  1  0
     Eigenvalues ---    0.18672   0.26341   0.26632
 En-DIIS/RFO-DIIS IScMMF=        0 using points:     3    2
 RFO step:  Lambda= 0.00000000D+00.
 DidBck=F Rises=F RFO-DIIS coefs:    0.99766    0.00234
 Iteration  1 RMS(Cart)=  0.00000847 RMS(Int)=  0.00000000
 Iteration  2 RMS(Cart)=  0.00000000 RMS(Int)=  0.00000000
 ClnCor:  largest displacement from symmetrization is 3.65D-15 for atom     3.
 Variable       Old X    -DE/DX   Delta X   Delta X   Delta X     New X
                                 (Linear)    (Quad)   (Total)
    R1        2.53426   0.00000   0.00000  -0.00001  -0.00001   2.53424
    R2        2.53426   0.00000   0.00000  -0.00001  -0.00001   2.53424
    A1        1.62035   0.00000   0.00000   0.00000   0.00000   1.62035
         Item               Value     Threshold  Converged?
 Maximum Force            0.000004     0.000450     YES
 RMS     Force            0.000003     0.000300     YES
 Maximum Displacement     0.000008     0.001800     YES
 RMS     Displacement     0.000008     0.001200     YES
 Predicted change in Energy=-4.407727D-11
 Optimization completed.
    -- Stationary point found.
                           ----------------------------
                           !   Optimized Parameters   !
                           ! (Angstroms and Degrees)  !
 --------------------------                            --------------------------
 ! Name  Definition              Value          Derivative Info.                !
 --------------------------------------------------------------------------------
 ! R1    R(1,2)                  1.3411         -DE/DX =    0.0                 !
 ! R2    R(1,3)                  1.3411         -DE/DX =    0.0                 !
 ! A1    A(2,1,3)               92.8391         -DE/DX =    0.0                 !
 --------------------------------------------------------------------------------
 GradGradGradGradGradGradGradGradGradGradGradGradGradGradGradGradGradGrad

                          Input orientation:                          
 ---------------------------------------------------------------------
 Center     Atomic      Atomic             Coordinates (Angstroms)
 Number     Number       Type             X           Y           Z
 ---------------------------------------------------------------------
      1         16           0       -0.459721   -0.331928    0.241547
      2          1           0        0.030027    0.890590    0.494660
      3          1           0        0.429694   -0.558662   -0.736207
 ---------------------------------------------------------------------
                    Distance matrix (angstroms):
                    1          2          3
     1  S    0.000000
     2  H    1.341070   0.000000
     3  H    1.341071   1.942962   0.000000
 Stoichiometry    H2S
 Framework group  CS[SG(H2S)]
 Deg. of freedom     3
 Full point group                 CS      NOp   2
 Largest Abelian subgroup         CS      NOp   2
 Largest concise Abelian subgroup C1      NOp   1
                         Standard orientation:                         
 ---------------------------------------------------------------------
 Center     Atomic      Atomic             Coordinates (Angstroms)
 Number     Number       Type             X           Y           Z
 ---------------------------------------------------------------------
      1         16           0        0.000000    0.102722    0.000000
      2          1           0        0.971481   -0.821775    0.000000
      3          1           0       -0.971481   -0.821776    0.000000
 ---------------------------------------------------------------------
 Rotational constants (GHZ):    311.8473848    265.6643896    143.4546425

 **********************************************************************

            Population analysis using the SCF density.

 **********************************************************************

 Orbital symmetries:
       Occupied  (A') (A') (A') (A') (A") (A') (A') (A') (A")
       Virtual   (A') (A') (A') (A') (A") (A') (A') (A') (A') (A")
                 (A') (A') (A") (A") (A') (A') (A') (A')
 The electronic state is 1-A'.
 Alpha  occ. eigenvalues --  -89.92651  -8.27629  -6.19694  -6.19484  -6.18986
 Alpha  occ. eigenvalues --   -0.83727  -0.51422  -0.42797  -0.31926
 Alpha virt. eigenvalues --    0.01752   0.05727   0.06601   0.06715   0.07552
 Alpha virt. eigenvalues --    0.15606   0.48060   0.49362   0.52872   0.53622
 Alpha virt. eigenvalues --    0.72594   0.78837   0.81844   0.82304   0.84066
 Alpha virt. eigenvalues --    1.13499   1.30059   3.93689
          Condensed to atoms (all electrons):
               1          2          3
     1  S   15.678472   0.282656   0.282656
     2  H    0.282656   0.614600  -0.019148
     3  H    0.282656  -0.019148   0.614600
 Mulliken charges:
               1
     1  S   -0.243783
     2  H    0.121892
     3  H    0.121892
 Sum of Mulliken charges =   0.00000
 Mulliken charges with hydrogens summed into heavy atoms:
               1
     1  S    0.000000
 Electronic spatial extent (au):  <R**2>=             44.1575
 Charge=              0.0000 electrons
 Dipole moment (field-independent basis, Debye):
    X=              0.0000    Y=             -1.4693    Z=              0.0000  Tot=              1.4693
 Quadrupole moment (field-independent basis, Debye-Ang):
   XX=            -12.3315   YY=            -13.7525   ZZ=            -16.9448
   XY=              0.0000   XZ=              0.0000   YZ=              0.0000
 Traceless Quadrupole moment (field-independent basis, Debye-Ang):
   XX=              2.0114   YY=              0.5904   ZZ=             -2.6018
   XY=              0.0000   XZ=              0.0000   YZ=              0.0000
 Octapole moment (field-independent basis, Debye-Ang**2):
  XXX=              0.0000  YYY=             -1.7789  ZZZ=              0.0000  XYY=              0.0000
  XXY=             -1.0635  XXZ=              0.0000  XZZ=              0.0000  YZZ=             -0.6739
  YYZ=              0.0000  XYZ=              0.0000
 Hexadecapole moment (field-independent basis, Debye-Ang**3):
 XXXX=            -22.7476 YYYY=            -24.9800 ZZZZ=            -25.9234 XXXY=              0.0000
 XXXZ=              0.0000 YYYX=              0.0000 YYYZ=              0.0000 ZZZX=              0.0000
 ZZZY=              0.0000 XXYY=             -7.1651 XXZZ=             -8.3856 YYZZ=             -8.6775
 XXYZ=              0.0000 YYXZ=              0.0000 ZZXY=              0.0000
 N-N= 1.289933411370D+01 E-N=-9.748667264671D+02  KE= 3.982591713634D+02
 Symmetry A'   KE= 3.596702540970D+02
 Symmetry A"   KE= 3.858891726641D+01
 1\1\GINC-KATANA1\FOpt\RM062X\6-31+G(d)\H2S1\Z5358697\13-Mar-2025\0\\#m
 062X/6-31+G(d) OPT Freq=noraman\\hydrogen sulfide\\0,1\S,-0.4597207911
 ,-0.3319278805,0.2415474622\H,0.0300266455,0.8905902862,0.4946599869\H
 ,0.4296941456,-0.5586624057,-0.736207449\\Version=ES64L-G09RevD.01\Sta
 te=1-A'\HF=-399.3376339\RMSD=4.666e-09\RMSF=2.243e-06\Dipole=0.4311818
 ,0.3113225,-0.2265522\Quadrupole=-0.4688298,0.6622173,-0.1933875,0.427
 1397,-1.1407357,1.1197676\PG=CS [SG(H2S1)]\\@



 IN THIS SHORT LIFE

 THAT ONLY LASTS AN HOUR

 HOW MUCH, HOW LITTLE, IS WITHIN OUR POWER....


 EMILY DICKINSON BOLTS OF MELODY NO. 521
 Job cpu time:       0 days  0 hours  0 minutes  3.0 seconds.
 File lengths (MBytes):  RWF=     72 Int=      0 D2E=      0 Chk=      2 Scr=      2
 Normal termination of Gaussian 09 at Thu Mar 13 14:54:05 2025.
 Link1:  Proceeding to internal job step number  2.
 ---------------------------------------------------------------------
 #N Geom=AllCheck Guess=TCheck SCRF=Check GenChk RM062X/6-31+G(d) Freq
 ---------------------------------------------------------------------
 1/10=4,29=7,30=1,38=1,40=1/1,3;
 2/12=2,40=1/2;
 3/5=1,6=6,7=11,11=2,14=-4,16=1,25=1,30=1,70=2,71=2,74=-55,116=1,140=1/1,2,3;
 4/5=101/1;
 5/5=2,98=1/2;
 8/6=4,10=90,11=11/1;
 11/6=1,8=1,9=11,15=111,16=1/1,2,10;
 10/6=1/2;
 6/7=2,8=2,9=2,10=2,18=1,28=1/1;
 7/8=1,10=1,25=1/1,2,3,16;
 1/10=4,30=1/3;
 99//99;
 Structure from the checkpoint file:  "/srv/scratch/z5358697/gauss/Gau-369588.chk"
 ----------------
 hydrogen sulfide
 ----------------
 Charge =  0 Multiplicity = 1
 Redundant internal coordinates found in file.
 S,0,-0.4597207911,-0.3319278805,0.2415474622
 H,0,0.0300266455,0.8905902862,0.4946599869
 H,0,0.4296941456,-0.5586624057,-0.736207449
 Recover connectivity data from disk.

 GradGradGradGradGradGradGradGradGradGradGradGradGradGradGradGradGradGrad
 Berny optimization.
 Initialization pass.
                           ----------------------------
                           !    Initial Parameters    !
                           ! (Angstroms and Degrees)  !
 --------------------------                            --------------------------
 ! Name  Definition              Value          Derivative Info.                !
 --------------------------------------------------------------------------------
 ! R1    R(1,2)                  1.3411         calculate D2E/DX2 analytically  !
 ! R2    R(1,3)                  1.3411         calculate D2E/DX2 analytically  !
 ! A1    A(2,1,3)               92.8391         calculate D2E/DX2 analytically  !
 --------------------------------------------------------------------------------
 Trust Radius=3.00D-01 FncErr=1.00D-07 GrdErr=1.00D-07
 Number of steps in this run=      2 maximum allowed number of steps=      2.
 GradGradGradGradGradGradGradGradGradGradGradGradGradGradGradGradGradGrad

                          Input orientation:                          
 ---------------------------------------------------------------------
 Center     Atomic      Atomic             Coordinates (Angstroms)
 Number     Number       Type             X           Y           Z
 ---------------------------------------------------------------------
      1         16           0       -0.459721   -0.331928    0.241547
      2          1           0        0.030027    0.890590    0.494660
      3          1           0        0.429694   -0.558662   -0.736207
 ---------------------------------------------------------------------
                    Distance matrix (angstroms):
                    1          2          3
     1  S    0.000000
     2  H    1.341070   0.000000
     3  H    1.341071   1.942962   0.000000
 Stoichiometry    H2S
 Framework group  CS[SG(H2S)]
 Deg. of freedom     3
 Full point group                 CS      NOp   2
 Largest Abelian subgroup         CS      NOp   2
 Largest concise Abelian subgroup C1      NOp   1
                         Standard orientation:                         
 ---------------------------------------------------------------------
 Center     Atomic      Atomic             Coordinates (Angstroms)
 Number     Number       Type             X           Y           Z
 ---------------------------------------------------------------------
      1         16           0        0.000000    0.102722    0.000000
      2          1           0        0.971481   -0.821775    0.000000
      3          1           0       -0.971481   -0.821776    0.000000
 ---------------------------------------------------------------------
 Rotational constants (GHZ):    311.8473848    265.6643896    143.4546425
 Standard basis: 6-31+G(d) (6D, 7F)
 There are    21 symmetry adapted cartesian basis functions of A'  symmetry.
 There are     6 symmetry adapted cartesian basis functions of A"  symmetry.
 There are    21 symmetry adapted basis functions of A'  symmetry.
 There are     6 symmetry adapted basis functions of A"  symmetry.
    27 basis functions,    64 primitive gaussians,    27 cartesian basis functions
     9 alpha electrons        9 beta electrons
       nuclear repulsion energy        12.8993341137 Hartrees.
 NAtoms=    3 NActive=    3 NUniq=    3 SFac= 1.00D+00 NAtFMM=   60 NAOKFM=F Big=F
 Integral buffers will be    131072 words long.
 Raffenetti 2 integral format.
 Two-electron integral symmetry is turned on.
 One-electron integrals computed using PRISM.
 NBasis=    27 RedAO= T EigKep=  2.13D-02  NBF=    21     6
 NBsUse=    27 1.00D-06 EigRej= -1.00D+00 NBFU=    21     6
 Initial guess from the checkpoint file:  "/srv/scratch/z5358697/gauss/Gau-369588.chk"
 B after Tr=     0.000000    0.000000    0.000000
         Rot=    1.000000    0.000000    0.000000    0.000000 Ang=   0.00 deg.
 Initial guess orbital symmetries:
       Occupied  (A') (A') (A') (A') (A") (A') (A') (A') (A")
       Virtual   (A') (A') (A') (A') (A") (A') (A') (A') (A') (A")
                 (A') (A') (A") (A") (A') (A') (A') (A')
 Keep R1 ints in memory in symmetry-blocked form, NReq=954332.
 Requested convergence on RMS density matrix=1.00D-08 within 128 cycles.
 Requested convergence on MAX density matrix=1.00D-06.
 Requested convergence on             energy=1.00D-06.
 No special actions if energy rises.
 SCF Done:  E(RM062X) =  -399.337633921     A.U. after    1 cycles
            NFock=  1  Conv=0.35D-09     -V/T= 2.0027
 DoSCS=F DFT=T ScalE2(SS,OS)=  1.000000  1.000000
 Range of M.O.s used for correlation:     1    27
 NBasis=    27 NAE=     9 NBE=     9 NFC=     0 NFV=     0
 NROrb=     27 NOA=     9 NOB=     9 NVA=    18 NVB=    18
 Symmetrizing basis deriv contribution to polar:
 IMax=3 JMax=2 DiffMx= 0.00D+00
 G2DrvN: will do     4 centers at a time, making    1 passes.
 Calling FoFCou, ICntrl=  3107 FMM=F I1Cent=   0 AccDes= 0.00D+00.
 End of G2Drv F.D. properties file   721 does not exist.
 End of G2Drv F.D. properties file   722 does not exist.
 End of G2Drv F.D. properties file   788 does not exist.
          IDoAtm=111
          Differentiating once with respect to electric field.
                with respect to dipole field.
          Differentiating once with respect to nuclear coordinates.
 Keep R1 ints in memory in symmetry-blocked form, NReq=932656.
          There are    12 degrees of freedom in the 1st order CPHF.  IDoFFX=6 NUNeed=     3.
      9 vectors produced by pass  0 Test12= 1.35D-15 8.33D-09 XBig12= 8.93D+00 2.28D+00.
 AX will form     9 AO Fock derivatives at one time.
      9 vectors produced by pass  1 Test12= 1.35D-15 8.33D-09 XBig12= 6.37D-01 3.99D-01.
      9 vectors produced by pass  2 Test12= 1.35D-15 8.33D-09 XBig12= 5.27D-03 3.68D-02.
      9 vectors produced by pass  3 Test12= 1.35D-15 8.33D-09 XBig12= 1.09D-05 1.16D-03.
      9 vectors produced by pass  4 Test12= 1.35D-15 8.33D-09 XBig12= 7.17D-08 9.76D-05.
      8 vectors produced by pass  5 Test12= 1.35D-15 8.33D-09 XBig12= 1.75D-10 5.42D-06.
      3 vectors produced by pass  6 Test12= 1.35D-15 8.33D-09 XBig12= 4.40D-13 3.16D-07.
      1 vectors produced by pass  7 Test12= 1.35D-15 8.33D-09 XBig12= 6.60D-16 1.06D-08.
 InvSVY:  IOpt=1 It=  1 EMax= 8.88D-16
 Solved reduced A of dimension    57 with     9 vectors.
 Isotropic polarizability for W=    0.000000       17.35 Bohr**3.
 End of Minotr F.D. properties file   721 does not exist.
 End of Minotr F.D. properties file   722 does not exist.
 End of Minotr F.D. properties file   788 does not exist.

 **********************************************************************

            Population analysis using the SCF density.

 **********************************************************************

 Orbital symmetries:
       Occupied  (A') (A') (A') (A') (A") (A') (A') (A') (A")
       Virtual   (A') (A') (A') (A') (A") (A') (A') (A') (A') (A")
                 (A') (A') (A") (A") (A') (A') (A') (A')
 The electronic state is 1-A'.
 Alpha  occ. eigenvalues --  -89.92651  -8.27629  -6.19694  -6.19484  -6.18986
 Alpha  occ. eigenvalues --   -0.83727  -0.51422  -0.42797  -0.31926
 Alpha virt. eigenvalues --    0.01752   0.05727   0.06601   0.06715   0.07552
 Alpha virt. eigenvalues --    0.15606   0.48060   0.49362   0.52872   0.53622
 Alpha virt. eigenvalues --    0.72594   0.78837   0.81844   0.82304   0.84066
 Alpha virt. eigenvalues --    1.13499   1.30059   3.93689
          Condensed to atoms (all electrons):
               1          2          3
     1  S   15.678472   0.282656   0.282656
     2  H    0.282656   0.614600  -0.019148
     3  H    0.282656  -0.019148   0.614600
 Mulliken charges:
               1
     1  S   -0.243783
     2  H    0.121892
     3  H    0.121892
 Sum of Mulliken charges =   0.00000
 Mulliken charges with hydrogens summed into heavy atoms:
               1
     1  S    0.000000
 APT charges:
               1
     1  S   -0.086450
     2  H    0.043225
     3  H    0.043225
 Sum of APT charges =   0.00000
 APT charges with hydrogens summed into heavy atoms:
               1
     1  S    0.000000
 Electronic spatial extent (au):  <R**2>=             44.1575
 Charge=              0.0000 electrons
 Dipole moment (field-independent basis, Debye):
    X=              0.0000    Y=             -1.4693    Z=              0.0000  Tot=              1.4693
 Quadrupole moment (field-independent basis, Debye-Ang):
   XX=            -12.3315   YY=            -13.7525   ZZ=            -16.9448
   XY=              0.0000   XZ=              0.0000   YZ=              0.0000
 Traceless Quadrupole moment (field-independent basis, Debye-Ang):
   XX=              2.0114   YY=              0.5904   ZZ=             -2.6018
   XY=              0.0000   XZ=              0.0000   YZ=              0.0000
 Octapole moment (field-independent basis, Debye-Ang**2):
  XXX=              0.0000  YYY=             -1.7789  ZZZ=              0.0000  XYY=              0.0000
  XXY=             -1.0635  XXZ=              0.0000  XZZ=              0.0000  YZZ=             -0.6739
  YYZ=              0.0000  XYZ=              0.0000
 Hexadecapole moment (field-independent basis, Debye-Ang**3):
 XXXX=            -22.7476 YYYY=            -24.9800 ZZZZ=            -25.9234 XXXY=              0.0000
 XXXZ=              0.0000 YYYX=              0.0000 YYYZ=              0.0000 ZZZX=              0.0000
 ZZZY=              0.0000 XXYY=             -7.1651 XXZZ=             -8.3856 YYZZ=             -8.6775
 XXYZ=              0.0000 YYXZ=              0.0000 ZZXY=              0.0000
 N-N= 1.289933411370D+01 E-N=-9.748667264587D+02  KE= 3.982591713585D+02
 Symmetry A'   KE= 3.596702540849D+02
 Symmetry A"   KE= 3.858891727366D+01
  Exact polarizability:  18.164   0.000  16.699   0.000   0.000  17.188
 Approx polarizability:  20.406   0.000  17.711   0.000   0.000  16.255
 Calling FoFJK, ICntrl=    100127 FMM=F ISym2X=1 I1Cent= 0 IOpClX= 0 NMat=1 NMatS=1 NMatT=0.
 Full mass-weighted force constant matrix:
 Low frequencies --- -214.4358 -183.3127 -149.1816    0.0052    0.0073    0.0076
 Low frequencies --- 1257.7991 2759.9773 2778.7649
 Diagonal vibrational polarizability:
        0.0217580       0.1005351       0.0000000
 Harmonic frequencies (cm**-1), IR intensities (KM/Mole), Raman scattering
 activities (A**4/AMU), depolarization ratios for plane and unpolarized
 incident light, reduced masses (AMU), force constants (mDyne/A),
 and normal coordinates:
                      1                      2                      3
                     A'                     A'                     A'
 Frequencies --   1257.7991              2759.9773              2778.5819
 Red. masses --      1.0388                 1.0364                 1.0401
 Frc consts  --      0.9683                 4.6515                 4.7311
 IR Inten    --      4.7497                 5.5879                 6.2421
  Atom  AN      X      Y      Z        X      Y      Z        X      Y      Z
     1  16     0.00   0.03   0.00     0.00   0.03   0.00     0.03   0.00   0.00
     2   1    -0.50  -0.50   0.00     0.52  -0.48   0.00    -0.51   0.49   0.00
     3   1     0.50  -0.50   0.00    -0.52  -0.48   0.00    -0.51  -0.49   0.00

 -------------------
 - Thermochemistry -
 -------------------
 Temperature   298.150 Kelvin.  Pressure   1.00000 Atm.
 Atom     1 has atomic number 16 and mass  31.97207
 Atom     2 has atomic number  1 and mass   1.00783
 Atom     3 has atomic number  1 and mass   1.00783
 Molecular mass:    33.98772 amu.
 Principal axes and moments of inertia in atomic units:
                           1         2         3
     Eigenvalues --     5.78726   6.79331  12.58057
           X            1.00000  -0.00001   0.00000
           Y            0.00001   1.00000   0.00000
           Z            0.00000   0.00000   1.00000
 This molecule is an asymmetric top.
 Rotational symmetry number  1.
 Rotational temperatures (Kelvin)     14.96630    12.74986     6.88473
 Rotational constants (GHZ):         311.84738   265.66439   143.45464
 Zero-point vibrational energy      40651.3 (Joules/Mol)
                                    9.71588 (Kcal/Mol)
 Vibrational temperatures:   1809.69  3970.99  3997.75
          (Kelvin)
 
 Zero-point correction=                           0.015483 (Hartree/Particle)
 Thermal correction to Energy=                    0.018329
 Thermal correction to Enthalpy=                  0.019273
 Thermal correction to Gibbs Free Energy=        -0.004721
 Sum of electronic and zero-point Energies=           -399.322151
 Sum of electronic and thermal Energies=              -399.319305
 Sum of electronic and thermal Enthalpies=            -399.318361
 Sum of electronic and thermal Free Energies=         -399.342355
 
                     E (Thermal)             CV                S
                      KCal/Mol        Cal/Mol-Kelvin    Cal/Mol-Kelvin
 Total                   11.502              6.133             50.501
 Electronic               0.000              0.000              0.000
 Translational            0.889              2.981             36.501
 Rotational               0.889              2.981             13.967
 Vibrational              9.724              0.171              0.033
                       Q            Log10(Q)             Ln(Q)
 Total Bot       0.148469D+03          2.171636          5.000377
 Total V=0       0.196525D+10          9.293419         21.398887
 Vib (Bot)       0.757223D-07         -7.120776        -16.396193
 Vib (V=0)       0.100232D+01          0.001007          0.002318
 Electronic      0.100000D+01          0.000000          0.000000
 Translational   0.778822D+07          6.891438         15.868123
 Rotational      0.251752D+03          2.400974          5.528446
 ***** Axes restored to original set *****
 -------------------------------------------------------------------
 Center     Atomic                   Forces (Hartrees/Bohr)
 Number     Number              X              Y              Z
 -------------------------------------------------------------------
      1       16           0.000003566    0.000002187   -0.000002102
      2        1          -0.000001115   -0.000002831   -0.000000604
      3        1          -0.000002451    0.000000644    0.000002706
 -------------------------------------------------------------------
 Cartesian Forces:  Max     0.000003566 RMS     0.000002243
 FormGI is forming the generalized inverse of G from B-inverse, IUseBI=4.

 GradGradGradGradGradGradGradGradGradGradGradGradGradGradGradGradGradGrad
 Berny optimization.
 Internal  Forces:  Max     0.000003706 RMS     0.000002791
 Search for a local minimum.
 Step number   1 out of a maximum of    2
 All quantities printed in internal units (Hartrees-Bohrs-Radians)
 Second derivative matrix not updated -- analytic derivatives used.
 The second derivative matrix:
                          R1        R2        A1
           R1           0.28206
           R2           0.00019   0.28206
           A1           0.00520   0.00520   0.18781
 ITU=  0
     Eigenvalues ---    0.18724   0.28186   0.28282
 Angle between quadratic step and forces=   1.89 degrees.
 Linear search not attempted -- first point.
 Iteration  1 RMS(Cart)=  0.00000802 RMS(Int)=  0.00000000
 Iteration  2 RMS(Cart)=  0.00000000 RMS(Int)=  0.00000000
 ClnCor:  largest displacement from symmetrization is 2.35D-15 for atom     3.
 Variable       Old X    -DE/DX   Delta X   Delta X   Delta X     New X
                                 (Linear)    (Quad)   (Total)
    R1        2.53426   0.00000   0.00000  -0.00001  -0.00001   2.53424
    R2        2.53426   0.00000   0.00000  -0.00001  -0.00001   2.53424
    A1        1.62035   0.00000   0.00000   0.00000   0.00000   1.62035
         Item               Value     Threshold  Converged?
 Maximum Force            0.000004     0.000450     YES
 RMS     Force            0.000003     0.000300     YES
 Maximum Displacement     0.000007     0.001800     YES
 RMS     Displacement     0.000008     0.001200     YES
 Predicted change in Energy=-4.140852D-11
 Optimization completed.
    -- Stationary point found.
                           ----------------------------
                           !   Optimized Parameters   !
                           ! (Angstroms and Degrees)  !
 --------------------------                            --------------------------
 ! Name  Definition              Value          Derivative Info.                !
 --------------------------------------------------------------------------------
 ! R1    R(1,2)                  1.3411         -DE/DX =    0.0                 !
 ! R2    R(1,3)                  1.3411         -DE/DX =    0.0                 !
 ! A1    A(2,1,3)               92.8391         -DE/DX =    0.0                 !
 --------------------------------------------------------------------------------
 GradGradGradGradGradGradGradGradGradGradGradGradGradGradGradGradGradGrad

 1\1\GINC-KATANA1\Freq\RM062X\6-31+G(d)\H2S1\Z5358697\13-Mar-2025\0\\#N
  Geom=AllCheck Guess=TCheck SCRF=Check GenChk RM062X/6-31+G(d) Freq\\h
 ydrogen sulfide\\0,1\S,-0.4597207911,-0.3319278805,0.2415474622\H,0.03
 00266455,0.8905902862,0.4946599869\H,0.4296941456,-0.5586624057,-0.736
 207449\\Version=ES64L-G09RevD.01\State=1-A'\HF=-399.3376339\RMSD=3.532
 e-10\RMSF=2.243e-06\ZeroPoint=0.0154832\Thermal=0.0183291\Dipole=0.431
 1818,0.3113225,-0.2265522\DipoleDeriv=-0.0553464,0.1493096,-0.1695392,
 0.1493097,-0.0505812,0.0201656,-0.1695391,0.0201657,-0.1534237,0.04759
 6,-0.143952,0.0251433,-0.0632162,-0.0268707,-0.0515865,0.0725711,0.025
 0778,0.1089501,0.0077504,-0.0053576,0.1443959,-0.0860935,0.0774519,0.0
 314209,0.096968,-0.0452435,0.0444736\Polar=16.957479,-0.3461937,17.589
 2472,0.0158587,0.5642395,17.5047508\PG=CS [SG(H2S1)]\NImag=0\\0.190239
 64,0.08491479,0.25537939,-0.13305260,0.07080522,0.16552554,-0.05606662
 ,-0.10965734,-0.01003358,0.05046107,-0.08867431,-0.22993844,-0.0515819
 7,0.09214232,0.23610288,0.00229279,-0.03165712,-0.01956827,0.00480709,
 0.05207111,0.02454446,-0.13417302,0.02474255,0.14308618,0.00560555,-0.
 00346802,-0.00709987,0.12856747,0.00375951,-0.02544095,-0.01922326,0.0
 1751502,-0.00616444,-0.02041399,-0.02127453,0.03160538,0.13075982,-0.0
 3914810,-0.14595727,0.00522650,-0.00048914,-0.00497619,-0.13598631,0.0
 3963724,0.15093346\\-0.00000357,-0.00000219,0.00000210,0.00000112,0.00
 000283,0.00000060,0.00000245,-0.00000064,-0.00000271\\\@


 TIME IS IN FACT THE HERO OF THE PLOT. THE TIME
 WITH WHICH WE HAVE TO DEAL IS OF THE ORDER OF TWO
 BILLION YEARS...GIVEN SO MUCH TIME, THE "IMPOSSIBLE"
 BECOMES POSSIBLE, THE POSSIBLE PROBABLE, THE PROBABLE
 VIRTUALLY CERTAIN.  ONE HAS ONLY TO WAIT, TIME
 ITSELF PERFORMS THE MIRACLES.
 "ORIGIN OF LIFE" LECTURES, GEORGE WALD, 1954
 Job cpu time:       0 days  0 hours  0 minutes  2.0 seconds.
 File lengths (MBytes):  RWF=     82 Int=      0 D2E=      0 Chk=      2 Scr=      2
 Normal termination of Gaussian 09 at Thu Mar 13 14:54:08 2025.
