 Entering Gaussian System, Link 0=g09
 Initial command:
 /apps/z_install_tree/linux-rocky8-ivybridge/gcc-12.2.0/gaussian-09-D.01-wczn3gur5lpur3omlkzwa2l5ecyxp5ef/g09/l1.exe "/srv/scratch/z5358697/gauss/Gau-4056046.inp" -scrdir="/srv/scratch/z5358697/gauss/"
 Entering Link 1 = /apps/z_install_tree/linux-rocky8-ivybridge/gcc-12.2.0/gaussian-09-D.01-wczn3gur5lpur3omlkzwa2l5ecyxp5ef/g09/l1.exe PID=   4056048.
  
 Copyright (c) 1988,1990,1992,1993,1995,1998,2003,2009,2013,
            Gaussian, Inc.  All Rights Reserved.
  
 This is part of the Gaussian(R) 09 program.  It is based on
 the Gaussian(R) 03 system (copyright 2003, Gaussian, Inc.),
 the Gaussian(R) 98 system (copyright 1998, Gaussian, Inc.),
 the Gaussian(R) 94 system (copyright 1995, Gaussian, Inc.),
 the Gaussian 92(TM) system (copyright 1992, Gaussian, Inc.),
 the Gaussian 90(TM) system (copyright 1990, Gaussian, Inc.),
 the Gaussian 88(TM) system (copyright 1988, Gaussian, Inc.),
 the Gaussian 86(TM) system (copyright 1986, Carnegie Mellon
 University), and the Gaussian 82(TM) system (copyright 1983,
 Carnegie Mellon University). Gaussian is a federally registered
 trademark of Gaussian, Inc.
  
 This software contains proprietary and confidential information,
 including trade secrets, belonging to Gaussian, Inc.
  
 This software is provided under written license and may be
 used, copied, transmitted, or stored only in accord with that
 written license.
  
 The following legend is applicable only to US Government
 contracts under FAR:
  
                    RESTRICTED RIGHTS LEGEND
  
 Use, reproduction and disclosure by the US Government is
 subject to restrictions as set forth in subparagraphs (a)
 and (c) of the Commercial Computer Software - Restricted
 Rights clause in FAR 52.227-19.
  
 Gaussian, Inc.
 340 Quinnipiac St., Bldg. 40, Wallingford CT 06492
  
  
 ---------------------------------------------------------------
 Warning -- This program may not be used in any manner that
 competes with the business of Gaussian, Inc. or will provide
 assistance to any competitor of Gaussian, Inc.  The licensee
 of this program is prohibited from giving any competitor of
 Gaussian, Inc. access to this program.  By using this program,
 the user acknowledges that Gaussian, Inc. is engaged in the
 business of creating and licensing software in the field of
 computational chemistry and represents and warrants to the
 licensee that it is not a competitor of Gaussian, Inc. and that
 it will not use this program in any manner prohibited above.
 ---------------------------------------------------------------
  

 Cite this work as:
 Gaussian 09, Revision D.01,
 M. J. Frisch, G. W. Trucks, H. B. Schlegel, G. E. Scuseria, 
 M. A. Robb, J. R. Cheeseman, G. Scalmani, V. Barone, B. Mennucci, 
 G. A. Petersson, H. Nakatsuji, M. Caricato, X. Li, H. P. Hratchian, 
 A. F. Izmaylov, J. Bloino, G. Zheng, J. L. Sonnenberg, M. Hada, 
 M. Ehara, K. Toyota, R. Fukuda, J. Hasegawa, M. Ishida, T. Nakajima, 
 Y. Honda, O. Kitao, H. Nakai, T. Vreven, J. A. Montgomery, Jr., 
 J. E. Peralta, F. Ogliaro, M. Bearpark, J. J. Heyd, E. Brothers, 
 K. N. Kudin, V. N. Staroverov, T. Keith, R. Kobayashi, J. Normand, 
 K. Raghavachari, A. Rendell, J. C. Burant, S. S. Iyengar, J. Tomasi, 
 M. Cossi, N. Rega, J. M. Millam, M. Klene, J. E. Knox, J. B. Cross, 
 V. Bakken, C. Adamo, J. Jaramillo, R. Gomperts, R. E. Stratmann, 
 O. Yazyev, A. J. Austin, R. Cammi, C. Pomelli, J. W. Ochterski, 
 R. L. Martin, K. Morokuma, V. G. Zakrzewski, G. A. Voth, 
 P. Salvador, J. J. Dannenberg, S. Dapprich, A. D. Daniels, 
 O. Farkas, J. B. Foresman, J. V. Ortiz, J. Cioslowski, 
 and D. J. Fox, Gaussian, Inc., Wallingford CT, 2013.
 
 ******************************************
 Gaussian 09:  ES64L-G09RevD.01 24-Apr-2013
                20-Mar-2025 
 ******************************************
 -------------------------------
 #m062X/def2SVP OPT Freq=noraman
 -------------------------------
 1/14=-1,18=20,19=15,26=3,38=1/1,3;
 2/9=110,12=2,17=6,18=5,40=1/2;
 3/5=43,7=101,11=2,16=1,25=1,30=1,71=1,74=-55/1,2,3;
 4//1;
 5/5=2,38=5/2;
 6/7=2,8=2,9=2,10=2,28=1/1;
 7//1,2,3,16;
 1/14=-1,18=20,19=15,26=3/3(2);
 2/9=110/2;
 99//99;
 2/9=110/2;
 3/5=43,7=101,11=2,16=1,25=1,30=1,71=1,74=-55/1,2,3;
 4/5=5,16=3,69=1/1;
 5/5=2,38=5/2;
 7//1,2,3,16;
 1/14=-1,18=20,19=15,26=3/3(-5);
 2/9=110/2;
 6/7=2,8=2,9=2,10=2,19=2,28=1/1;
 99/9=1/99;
 -------------
 2-iodopropane
 -------------
 Symbolic Z-matrix:
 Charge =  0 Multiplicity = 1
 C                    -0.2701   -0.5443   -1.1412 
 C                    -0.1818   -0.403     0.3755 
 C                     0.2417    1.0079    0.7727 
 I                     1.2321   -1.8337    1.158 
 H                    -0.5741   -1.557    -1.4281 
 H                    -1.0109    0.1517   -1.5493 
 H                     0.6897   -0.3327   -1.6256 
 H                    -1.1655   -0.6149    0.8103 
 H                     0.3055    1.1107    1.8616 
 H                    -0.4858    1.7433    0.4128 
 H                     1.2191    1.2717    0.3535 
 

 GradGradGradGradGradGradGradGradGradGradGradGradGradGradGradGradGradGrad
 Berny optimization.
 Initialization pass.
                           ----------------------------
                           !    Initial Parameters    !
                           ! (Angstroms and Degrees)  !
 --------------------------                            --------------------------
 ! Name  Definition              Value          Derivative Info.                !
 --------------------------------------------------------------------------------
 ! R1    R(1,2)                  1.5258         estimate D2E/DX2                !
 ! R2    R(1,5)                  1.0956         estimate D2E/DX2                !
 ! R3    R(1,6)                  1.0953         estimate D2E/DX2                !
 ! R4    R(1,7)                  1.0957         estimate D2E/DX2                !
 ! R5    R(2,3)                  1.5257         estimate D2E/DX2                !
 ! R6    R(2,4)                  2.1583         estimate D2E/DX2                !
 ! R7    R(2,8)                  1.0962         estimate D2E/DX2                !
 ! R8    R(3,9)                  1.0956         estimate D2E/DX2                !
 ! R9    R(3,10)                 1.0953         estimate D2E/DX2                !
 ! R10   R(3,11)                 1.0957         estimate D2E/DX2                !
 ! A1    A(2,1,5)              111.2208         estimate D2E/DX2                !
 ! A2    A(2,1,6)              110.527          estimate D2E/DX2                !
 ! A3    A(2,1,7)              111.7687         estimate D2E/DX2                !
 ! A4    A(5,1,6)              107.5851         estimate D2E/DX2                !
 ! A5    A(5,1,7)              107.8059         estimate D2E/DX2                !
 ! A6    A(6,1,7)              107.7584         estimate D2E/DX2                !
 ! A7    A(1,2,3)              111.1299         estimate D2E/DX2                !
 ! A8    A(1,2,4)              109.6886         estimate D2E/DX2                !
 ! A9    A(1,2,8)              108.9319         estimate D2E/DX2                !
 ! A10   A(3,2,4)              109.6805         estimate D2E/DX2                !
 ! A11   A(3,2,8)              108.9409         estimate D2E/DX2                !
 ! A12   A(4,2,8)              108.4169         estimate D2E/DX2                !
 ! A13   A(2,3,9)              111.2035         estimate D2E/DX2                !
 ! A14   A(2,3,10)             110.5482         estimate D2E/DX2                !
 ! A15   A(2,3,11)             111.755          estimate D2E/DX2                !
 ! A16   A(9,3,10)             107.5938         estimate D2E/DX2                !
 ! A17   A(9,3,11)             107.8004         estimate D2E/DX2                !
 ! A18   A(10,3,11)            107.7659         estimate D2E/DX2                !
 ! D1    D(5,1,2,3)            179.9983         estimate D2E/DX2                !
 ! D2    D(5,1,2,4)             58.5482         estimate D2E/DX2                !
 ! D3    D(5,1,2,8)            -59.972          estimate D2E/DX2                !
 ! D4    D(6,1,2,3)            -60.5653         estimate D2E/DX2                !
 ! D5    D(6,1,2,4)            177.9846         estimate D2E/DX2                !
 ! D6    D(6,1,2,8)             59.4644         estimate D2E/DX2                !
 ! D7    D(7,1,2,3)             59.4487         estimate D2E/DX2                !
 ! D8    D(7,1,2,4)            -62.0015         estimate D2E/DX2                !
 ! D9    D(7,1,2,8)            179.4784         estimate D2E/DX2                !
 ! D10   D(1,2,3,9)           -179.9994         estimate D2E/DX2                !
 ! D11   D(1,2,3,10)            60.5507         estimate D2E/DX2                !
 ! D12   D(1,2,3,11)           -59.4782         estimate D2E/DX2                !
 ! D13   D(4,2,3,9)            -58.5445         estimate D2E/DX2                !
 ! D14   D(4,2,3,10)          -177.9945         estimate D2E/DX2                !
 ! D15   D(4,2,3,11)            61.9767         estimate D2E/DX2                !
 ! D16   D(8,2,3,9)             59.9763         estimate D2E/DX2                !
 ! D17   D(8,2,3,10)           -59.4736         estimate D2E/DX2                !
 ! D18   D(8,2,3,11)          -179.5025         estimate D2E/DX2                !
 --------------------------------------------------------------------------------
 Trust Radius=3.00D-01 FncErr=1.00D-07 GrdErr=1.00D-06
 Number of steps in this run=     56 maximum allowed number of steps=    100.
 GradGradGradGradGradGradGradGradGradGradGradGradGradGradGradGradGradGrad

                          Input orientation:                          
 ---------------------------------------------------------------------
 Center     Atomic      Atomic             Coordinates (Angstroms)
 Number     Number       Type             X           Y           Z
 ---------------------------------------------------------------------
      1          6           0       -0.270100   -0.544300   -1.141200
      2          6           0       -0.181800   -0.403000    0.375500
      3          6           0        0.241700    1.007900    0.772700
      4         53           0        1.232100   -1.833700    1.158000
      5          1           0       -0.574100   -1.557000   -1.428100
      6          1           0       -1.010900    0.151700   -1.549300
      7          1           0        0.689700   -0.332700   -1.625600
      8          1           0       -1.165500   -0.614900    0.810300
      9          1           0        0.305500    1.110700    1.861600
     10          1           0       -0.485800    1.743300    0.412800
     11          1           0        1.219100    1.271700    0.353500
 ---------------------------------------------------------------------
                    Distance matrix (angstroms):
                    1          2          3          4          5
     1  C    0.000000
     2  C    1.525825   0.000000
     3  C    2.516799   1.525699   0.000000
     4  I    3.034053   2.158315   3.033816   0.000000
     5  H    1.095577   2.176830   3.476746   3.166518   0.000000
     6  H    1.095329   2.167938   2.773764   4.037615   1.767806
     7  H    1.095734   2.183771   2.783838   3.208680   1.770623
     8  H    2.148273   1.096184   2.148280   2.711983   2.499548
     9  H    3.476658   2.176521   1.095601   3.165933   4.325788
    10  H    2.773906   2.168043   1.095261   4.037503   3.780038
    11  H    2.783828   2.183489   1.095733   3.207943   3.793575
                    6          7          8          9         10
     6  H    0.000000
     7  H    1.769889   0.000000
     8  H    2.485818   3.074900   0.000000
     9  H    3.779792   3.793623   2.499354   0.000000
    10  H    2.580457   3.137937   2.486183   1.767869   0.000000
    11  H    3.138144   2.602153   3.074775   1.770579   1.769917
                   11
    11  H    0.000000
 Stoichiometry    C3H7I
 Framework group  C1[X(C3H7I)]
 Deg. of freedom    27
 Full point group                 C1      NOp   1
 Largest Abelian subgroup         C1      NOp   1
 Largest concise Abelian subgroup C1      NOp   1
                         Standard orientation:                         
 ---------------------------------------------------------------------
 Center     Atomic      Atomic             Coordinates (Angstroms)
 Number     Number       Type             X           Y           Z
 ---------------------------------------------------------------------
      1          6           0       -1.917571   -1.258314   -0.135735
      2          6           0       -1.270149    0.000061    0.434771
      3          6           0       -1.917198    1.258485   -0.135719
      4         53           0        0.840651   -0.000039   -0.015610
      5          1           0       -1.453994   -2.162947    0.272952
      6          1           0       -2.983131   -1.289894    0.115923
      7          1           0       -1.830535   -1.301002   -1.227173
      8          1           0       -1.391813   -0.000009    1.524182
      9          1           0       -1.453187    2.162842    0.273150
     10          1           0       -2.982775    1.290563    0.115505
     11          1           0       -1.829569    1.301150   -1.227109
 ---------------------------------------------------------------------
 Rotational constants (GHZ):      8.0871228      2.1909375      1.8272346
 Standard basis: def2SVP (5D, 7F)
 There are   108 symmetry adapted cartesian basis functions of A   symmetry.
 There are   103 symmetry adapted basis functions of A   symmetry.
   103 basis functions,   191 primitive gaussians,   108 cartesian basis functions
    25 alpha electrons       25 beta electrons
       nuclear repulsion energy       192.4862292755 Hartrees.
 NAtoms=   11 NActive=   11 NUniq=   11 SFac= 1.00D+00 NAtFMM=   60 NAOKFM=F Big=F
 Integral buffers will be    131072 words long.
 Raffenetti 2 integral format.
 Two-electron integral symmetry is turned on.
 One-electron integrals computed using PRISM.
   1 Symmetry operations used in ECPInt.
 ECPInt:  NShTT=    1225 NPrTT=    4557 LenC2=    1226 LenP2D=    3964.
 LDataN:  DoStor=T MaxTD1= 6 Len=  172
 NBasis=   103 RedAO= T EigKep=  2.87D-03  NBF=   103
 NBsUse=   103 1.00D-06 EigRej= -1.00D+00 NBFU=   103
 Defaulting to unpruned grid for atomic number  53.
 ExpMin= 1.11D-01 ExpMax= 1.24D+03 ExpMxC= 1.86D+02 IAcc=1 IRadAn=         1 AccDes= 0.00D+00
 Harris functional with IExCor= 1009 and IRadAn=       1 diagonalized for initial guess.
 HarFok:  IExCor= 1009 AccDes= 0.00D+00 IRadAn=         1 IDoV= 1 UseB2=F ITyADJ=14
 ICtDFT=  3500011 ScaDFX=  1.000000  1.000000  1.000000  1.000000
 Defaulting to unpruned grid for atomic number  53.
 FoFCou: FMM=F IPFlag=           0 FMFlag=      100000 FMFlg1=           0
         NFxFlg=           0 DoJE=T BraDBF=F KetDBF=T FulRan=T
         wScrn=  0.000000 ICntrl=     500 IOpCl=  0 I1Cent=   200000004 NGrid=           0
         NMat0=    1 NMatS0=      1 NMatT0=    0 NMatD0=    1 NMtDS0=    0 NMtDT0=    0
 Petite list used in FoFCou.
 Keep R1 ints in memory in canonical form, NReq=15439502.
 Requested convergence on RMS density matrix=1.00D-08 within 128 cycles.
 Requested convergence on MAX density matrix=1.00D-06.
 Requested convergence on             energy=1.00D-06.
 No special actions if energy rises.
 Integral accuracy reduced to 1.0D-05 until final iterations.
 Defaulting to unpruned grid for atomic number  53.
 Initial convergence to 1.0D-05 achieved.  Increase integral accuracy.
 SCF Done:  E(RM062X) =  -416.002090993     A.U. after   15 cycles
            NFock= 15  Conv=0.93D-08     -V/T= 2.8051

 **********************************************************************

            Population analysis using the SCF density.

 **********************************************************************

 Orbital symmetries:
       Occupied  (A) (A) (A) (A) (A) (A) (A) (A) (A) (A) (A) (A)
                 (A) (A) (A) (A) (A) (A) (A) (A) (A) (A) (A) (A)
                 (A)
       Virtual   (A) (A) (A) (A) (A) (A) (A) (A) (A) (A) (A) (A)
                 (A) (A) (A) (A) (A) (A) (A) (A) (A) (A) (A) (A)
                 (A) (A) (A) (A) (A) (A) (A) (A) (A) (A) (A) (A)
                 (A) (A) (A) (A) (A) (A) (A) (A) (A) (A) (A) (A)
                 (A) (A) (A) (A) (A) (A) (A) (A) (A) (A) (A) (A)
                 (A) (A) (A) (A) (A) (A) (A) (A) (A) (A) (A) (A)
                 (A) (A) (A) (A) (A) (A)
 The electronic state is 1-A.
 Alpha  occ. eigenvalues --  -10.61041 -10.55890 -10.55888  -7.08634  -5.08195
 Alpha  occ. eigenvalues --   -5.06897  -5.06893  -2.05031  -2.04568  -2.04568
 Alpha  occ. eigenvalues --   -2.03496  -2.03496  -0.90499  -0.78217  -0.76666
 Alpha  occ. eigenvalues --   -0.65491  -0.53989  -0.51257  -0.49014  -0.46192
 Alpha  occ. eigenvalues --   -0.42276  -0.41853  -0.37384  -0.30418  -0.30333
 Alpha virt. eigenvalues --    0.01059   0.09271   0.13620   0.14157   0.15688
 Alpha virt. eigenvalues --    0.17021   0.19025   0.19852   0.22189   0.25322
 Alpha virt. eigenvalues --    0.32746   0.38988   0.40037   0.41309   0.42924
 Alpha virt. eigenvalues --    0.44072   0.46316   0.47016   0.50709   0.51850
 Alpha virt. eigenvalues --    0.55390   0.62489   0.66177   0.66974   0.67834
 Alpha virt. eigenvalues --    0.68331   0.69393   0.70375   0.72700   0.73252
 Alpha virt. eigenvalues --    0.74112   0.75138   0.77103   0.80720   0.82038
 Alpha virt. eigenvalues --    0.94917   1.05284   1.06033   1.19289   1.22181
 Alpha virt. eigenvalues --    1.34284   1.51330   1.53669   1.57923   1.58262
 Alpha virt. eigenvalues --    1.63062   1.75458   1.75602   1.82210   1.84497
 Alpha virt. eigenvalues --    1.85204   1.86116   1.88310   1.89660   1.89769
 Alpha virt. eigenvalues --    1.97651   2.01639   2.14924   2.15561   2.24408
 Alpha virt. eigenvalues --    2.25980   2.38350   2.41918   2.50205   2.54794
 Alpha virt. eigenvalues --    2.58077   2.60201   2.71275   2.83165   2.89627
 Alpha virt. eigenvalues --    2.92141   2.99335   3.00177   3.04633  18.66710
 Alpha virt. eigenvalues --   18.69727  19.02150  55.86897
          Condensed to atoms (all electrons):
               1          2          3          4          5          6
     1  C    4.662724   0.353090  -0.055336  -0.088386   0.396512   0.380063
     2  C    0.353090   5.108703   0.353077   0.300241  -0.024914  -0.012933
     3  C   -0.055336   0.353077   4.662681  -0.088403   0.008598  -0.006676
     4  I   -0.088386   0.300241  -0.088403  24.944420  -0.001962   0.008088
     5  H    0.396512  -0.024914   0.008598  -0.001962   0.609185  -0.020007
     6  H    0.380063  -0.012933  -0.006676   0.008088  -0.020007   0.627580
     7  H    0.405840  -0.032673  -0.006703  -0.001278  -0.022409  -0.021763
     8  H   -0.026366   0.375623  -0.026365  -0.042041  -0.005811  -0.007291
     9  H    0.008602  -0.024933   0.396510  -0.001966  -0.000404  -0.000057
    10  H   -0.006675  -0.012928   0.380091   0.008089  -0.000057   0.004601
    11  H   -0.006706  -0.032690   0.405845  -0.001286   0.000013  -0.001257
               7          8          9         10         11
     1  C    0.405840  -0.026366   0.008602  -0.006675  -0.006706
     2  C   -0.032673   0.375623  -0.024933  -0.012928  -0.032690
     3  C   -0.006703  -0.026365   0.396510   0.380091   0.405845
     4  I   -0.001278  -0.042041  -0.001966   0.008089  -0.001286
     5  H   -0.022409  -0.005811  -0.000404  -0.000057   0.000013
     6  H   -0.021763  -0.007291  -0.000057   0.004601  -0.001257
     7  H    0.610263   0.007694   0.000013  -0.001257   0.006511
     8  H    0.007694   0.631442  -0.005817  -0.007286   0.007698
     9  H    0.000013  -0.005817   0.609211  -0.020005  -0.022408
    10  H   -0.001257  -0.007286  -0.020005   0.627523  -0.021763
    11  H    0.006511   0.007698  -0.022408  -0.021763   0.610282
 Mulliken charges:
               1
     1  C   -0.023363
     2  C   -0.349664
     3  C   -0.023322
     4  I   -0.035516
     5  H    0.061255
     6  H    0.049652
     7  H    0.055761
     8  H    0.098518
     9  H    0.061253
    10  H    0.049666
    11  H    0.055759
 Sum of Mulliken charges =   0.00000
 Mulliken charges with hydrogens summed into heavy atoms:
               1
     1  C    0.143306
     2  C   -0.251146
     3  C    0.143356
     4  I   -0.035516
 Electronic spatial extent (au):  <R**2>=            617.5099
 Charge=              0.0000 electrons
 Dipole moment (field-independent basis, Debye):
    X=             -2.0213    Y=              0.0001    Z=              0.2652  Tot=              2.0386
 Quadrupole moment (field-independent basis, Debye-Ang):
   XX=            -43.7384   YY=            -47.4591   ZZ=            -47.3927
   XY=              0.0001   XZ=             -1.1067   YZ=              0.0001
 Traceless Quadrupole moment (field-independent basis, Debye-Ang):
   XX=              2.4583   YY=             -1.2624   ZZ=             -1.1959
   XY=              0.0001   XZ=             -1.1067   YZ=              0.0001
 Octapole moment (field-independent basis, Debye-Ang**2):
  XXX=             40.8568  YYY=             -0.0039  ZZZ=             -0.2648  XYY=             11.9538
  XXY=             -0.0002  XXZ=             -0.4340  XZZ=             11.7460  YZZ=             -0.0008
  YYZ=              0.3367  XYZ=             -0.0002
 Hexadecapole moment (field-independent basis, Debye-Ang**3):
 XXXX=           -552.2888 YYYY=           -227.1698 ZZZZ=            -86.7822 XXXY=             -0.0095
 XXXZ=             -8.4365 YYYX=              0.0023 YYYZ=              0.0003 ZZZX=             -1.6972
 ZZZY=              0.0004 XXYY=           -136.3926 XXZZ=           -111.8609 YYZZ=            -53.7175
 XXYZ=              0.0008 YYXZ=             -0.9578 ZZXY=              0.0009
 N-N= 1.924862292755D+02 E-N=-1.289029555971D+03  KE= 2.304636931422D+02
   1 Symmetry operations used in ECPInt.
 ECPInt:  NShTT=    1225 NPrTT=    4557 LenC2=    1226 LenP2D=    3964.
 LDataN:  DoStor=T MaxTD1= 7 Len=  274
 Calling FoFJK, ICntrl=      2127 FMM=F ISym2X=0 I1Cent= 0 IOpClX= 0 NMat=1 NMatS=1 NMatT=0.
 Defaulting to unpruned grid for atomic number  53.
 ***** Axes restored to original set *****
 -------------------------------------------------------------------
 Center     Atomic                   Forces (Hartrees/Bohr)
 Number     Number              X              Y              Z
 -------------------------------------------------------------------
      1        6           0.001094437   -0.007124840    0.002465564
      2        6          -0.002616912    0.018122762   -0.014089889
      3        6           0.002104895   -0.004294331    0.006026510
      4       53          -0.000822798   -0.003374316    0.002949077
      5        1          -0.000518730   -0.001835313   -0.000824063
      6        1          -0.003108911    0.003845895    0.001038109
      7        1           0.002988879    0.000789894    0.000526094
      8        1           0.002439120   -0.006331585    0.004487652
      9        1           0.000233306    0.000490021    0.001995613
     10        1          -0.004170164    0.000743812   -0.002825288
     11        1           0.002376877   -0.001031997   -0.001749378
 -------------------------------------------------------------------
 Cartesian Forces:  Max     0.018122762 RMS     0.004977641

 GradGradGradGradGradGradGradGradGradGradGradGradGradGradGradGradGradGrad
 Berny optimization.
 FormGI is forming the generalized inverse of G from B-inverse, IUseBI=4.
 Internal  Forces:  Max     0.004211762 RMS     0.002210943
 Search for a local minimum.
 Step number   1 out of a maximum of   56
 All quantities printed in internal units (Hartrees-Bohrs-Radians)
 Mixed Optimization -- RFO/linear search
 Second derivative matrix not updated -- first step.
 ITU=  0
     Eigenvalues ---    0.00424   0.00426   0.04558   0.05179   0.05464
     Eigenvalues ---    0.05468   0.05596   0.05596   0.09040   0.12179
     Eigenvalues ---    0.16000   0.16000   0.16000   0.16000   0.16000
     Eigenvalues ---    0.16000   0.16578   0.23300   0.29812   0.29824
     Eigenvalues ---    0.34108   0.34158   0.34158   0.34173   0.34176
     Eigenvalues ---    0.34204   0.34212
 RFO step:  Lambda=-2.18292152D-03 EMin= 4.24334193D-03
 Linear search not attempted -- first point.
 Iteration  1 RMS(Cart)=  0.01768793 RMS(Int)=  0.00057138
 Iteration  2 RMS(Cart)=  0.00080263 RMS(Int)=  0.00028219
 Iteration  3 RMS(Cart)=  0.00000017 RMS(Int)=  0.00028219
 Variable       Old X    -DE/DX   Delta X   Delta X   Delta X     New X
                                 (Linear)    (Quad)   (Total)
    R1        2.88339  -0.00283   0.00000  -0.00941  -0.00941   2.87398
    R2        2.07034   0.00206   0.00000   0.00599   0.00599   2.07633
    R3        2.06987   0.00417   0.00000   0.01213   0.01213   2.08200
    R4        2.07064   0.00252   0.00000   0.00732   0.00732   2.07796
    R5        2.88315  -0.00275   0.00000  -0.00915  -0.00915   2.87401
    R6        4.07862   0.00280   0.00000   0.02262   0.02262   4.10124
    R7        2.07149   0.00078   0.00000   0.00228   0.00228   2.07377
    R8        2.07039   0.00205   0.00000   0.00595   0.00595   2.07633
    R9        2.06974   0.00421   0.00000   0.01223   0.01223   2.08198
   R10        2.07063   0.00252   0.00000   0.00733   0.00733   2.07797
    A1        1.94117   0.00171   0.00000   0.01400   0.01409   1.95526
    A2        1.92906  -0.00394   0.00000  -0.02676  -0.02689   1.90217
    A3        1.95073  -0.00207   0.00000  -0.01373  -0.01389   1.93684
    A4        1.87771   0.00141   0.00000   0.01068   0.01079   1.88851
    A5        1.88157   0.00069   0.00000   0.00879   0.00884   1.89040
    A6        1.88074   0.00245   0.00000   0.00858   0.00821   1.88895
    A7        1.93958   0.00315   0.00000   0.03270   0.03184   1.97142
    A8        1.91443  -0.00026   0.00000   0.00236   0.00218   1.91661
    A9        1.90122   0.00040   0.00000   0.01802   0.01706   1.91828
   A10        1.91429  -0.00024   0.00000   0.00248   0.00230   1.91658
   A11        1.90138   0.00039   0.00000   0.01798   0.01702   1.91839
   A12        1.89223  -0.00359   0.00000  -0.07619  -0.07597   1.81627
   A13        1.94087   0.00175   0.00000   0.01428   0.01436   1.95523
   A14        1.92943  -0.00397   0.00000  -0.02705  -0.02718   1.90225
   A15        1.95049  -0.00204   0.00000  -0.01352  -0.01368   1.93682
   A16        1.87787   0.00140   0.00000   0.01055   0.01066   1.88853
   A17        1.88147   0.00067   0.00000   0.00882   0.00887   1.89034
   A18        1.88087   0.00245   0.00000   0.00847   0.00810   1.88897
    D1        3.14156  -0.00022   0.00000  -0.00198  -0.00209   3.13947
    D2        1.02186  -0.00180   0.00000  -0.02813  -0.02818   0.99367
    D3       -1.04671   0.00247   0.00000   0.05216   0.05238  -0.99433
    D4       -1.05706   0.00007   0.00000   0.00291   0.00265  -1.05441
    D5        3.10642  -0.00151   0.00000  -0.02324  -0.02344   3.08298
    D6        1.03785   0.00276   0.00000   0.05705   0.05712   1.09497
    D7        1.03758  -0.00087   0.00000  -0.01348  -0.01349   1.02408
    D8       -1.08213  -0.00245   0.00000  -0.03963  -0.03959  -1.12172
    D9        3.13249   0.00182   0.00000   0.04066   0.04097  -3.10972
   D10       -3.14158   0.00021   0.00000   0.00192   0.00203  -3.13955
   D11        1.05681  -0.00007   0.00000  -0.00280  -0.00254   1.05427
   D12       -1.03809   0.00088   0.00000   0.01379   0.01381  -1.02428
   D13       -1.02179   0.00178   0.00000   0.02800   0.02805  -0.99374
   D14       -3.10659   0.00150   0.00000   0.02328   0.02348  -3.08311
   D15        1.08170   0.00245   0.00000   0.03987   0.03983   1.12153
   D16        1.04678  -0.00248   0.00000  -0.05225  -0.05247   0.99431
   D17       -1.03801  -0.00276   0.00000  -0.05698  -0.05704  -1.09505
   D18       -3.13291  -0.00181   0.00000  -0.04038  -0.04069   3.10958
         Item               Value     Threshold  Converged?
 Maximum Force            0.004212     0.000450     NO 
 RMS     Force            0.002211     0.000300     NO 
 Maximum Displacement     0.051346     0.001800     NO 
 RMS     Displacement     0.017885     0.001200     NO 
 Predicted change in Energy=-1.140211D-03
 GradGradGradGradGradGradGradGradGradGradGradGradGradGradGradGradGradGrad

                          Input orientation:                          
 ---------------------------------------------------------------------
 Center     Atomic      Atomic             Coordinates (Angstroms)
 Number     Number       Type             X           Y           Z
 ---------------------------------------------------------------------
      1          6           0       -0.270338   -0.548166   -1.150418
      2          6           0       -0.177308   -0.383785    0.358654
      3          6           0        0.245370    1.015709    0.777904
      4         53           0        1.204929   -1.844880    1.173978
      5          1           0       -0.574500   -1.564541   -1.436263
      6          1           0       -1.019371    0.158313   -1.542439
      7          1           0        0.694210   -0.328317   -1.630477
      8          1           0       -1.138776   -0.638524    0.822288
      9          1           0        0.309654    1.116903    1.870093
     10          1           0       -0.497537    1.740444    0.408217
     11          1           0        1.223566    1.276545    0.348663
 ---------------------------------------------------------------------
                    Distance matrix (angstroms):
                    1          2          3          4          5
     1  C    0.000000
     2  C    1.520846   0.000000
     3  C    2.535760   1.520858   0.000000
     4  I    3.043139   2.170283   3.043123   0.000000
     5  H    1.098745   2.184874   3.497486   3.171484   0.000000
     6  H    1.101746   2.148743   2.778252   4.042179   1.782529
     7  H    1.099611   2.172387   2.794309   3.228895   1.782020
     8  H    2.157294   1.097392   2.157386   2.659311   2.505388
     9  H    3.497475   2.184867   1.098749   3.171475   4.347857
    10  H    2.778254   2.148802   1.101735   4.042193   3.785624
    11  H    2.794380   2.172382   1.099613   3.228744   3.806674
                    6          7          8          9         10
     6  H    0.000000
     7  H    1.783513   0.000000
     8  H    2.498227   3.077682   0.000000
     9  H    3.785575   3.806644   2.505468   0.000000
    10  H    2.565250   3.139476   2.498425   1.782538   0.000000
    11  H    3.139661   2.602460   3.077737   1.781984   1.783519
                   11
    11  H    0.000000
 Stoichiometry    C3H7I
 Framework group  C1[X(C3H7I)]
 Deg. of freedom    27
 Full point group                 C1      NOp   1
 Largest Abelian subgroup         C1      NOp   1
 Largest concise Abelian subgroup C1      NOp   1
                         Standard orientation:                         
 ---------------------------------------------------------------------
 Center     Atomic      Atomic             Coordinates (Angstroms)
 Number     Number       Type             X           Y           Z
 ---------------------------------------------------------------------
      1          6           0       -1.921218   -1.267869   -0.131362
      2          6           0       -1.284175   -0.000008    0.416067
      3          6           0       -1.921188    1.267892   -0.131339
      4         53           0        0.842793   -0.000003   -0.015370
      5          1           0       -1.448432   -2.173935    0.272070
      6          1           0       -2.987052   -1.282600    0.147250
      7          1           0       -1.851938   -1.301170   -1.228283
      8          1           0       -1.333917   -0.000089    1.512331
      9          1           0       -1.448410    2.173922    0.272195
     10          1           0       -2.987055    1.282650    0.147105
     11          1           0       -1.851712    1.301289   -1.228247
 ---------------------------------------------------------------------
 Rotational constants (GHZ):      8.0359514      2.1813367      1.8148812
 Standard basis: def2SVP (5D, 7F)
 There are   108 symmetry adapted cartesian basis functions of A   symmetry.
 There are   103 symmetry adapted basis functions of A   symmetry.
   103 basis functions,   191 primitive gaussians,   108 cartesian basis functions
    25 alpha electrons       25 beta electrons
       nuclear repulsion energy       192.0750786148 Hartrees.
 NAtoms=   11 NActive=   11 NUniq=   11 SFac= 1.00D+00 NAtFMM=   60 NAOKFM=F Big=F
 Integral buffers will be    131072 words long.
 Raffenetti 2 integral format.
 Two-electron integral symmetry is turned on.
 One-electron integrals computed using PRISM.
   1 Symmetry operations used in ECPInt.
 ECPInt:  NShTT=    1225 NPrTT=    4557 LenC2=    1226 LenP2D=    3963.
 LDataN:  DoStor=T MaxTD1= 6 Len=  172
 NBasis=   103 RedAO= T EigKep=  2.92D-03  NBF=   103
 NBsUse=   103 1.00D-06 EigRej= -1.00D+00 NBFU=   103
 Defaulting to unpruned grid for atomic number  53.
 Initial guess from the checkpoint file:  "/srv/scratch/z5358697/gauss/Gau-4056048.chk"
 B after Tr=     0.000000    0.000000    0.000000
         Rot=    1.000000   -0.000005   -0.000865   -0.000036 Ang=  -0.10 deg.
 ExpMin= 1.11D-01 ExpMax= 1.24D+03 ExpMxC= 1.86D+02 IAcc=1 IRadAn=         1 AccDes= 0.00D+00
 Harris functional with IExCor= 1009 and IRadAn=       1 diagonalized for initial guess.
 HarFok:  IExCor= 1009 AccDes= 0.00D+00 IRadAn=         1 IDoV= 1 UseB2=F ITyADJ=14
 ICtDFT=  3500011 ScaDFX=  1.000000  1.000000  1.000000  1.000000
 Defaulting to unpruned grid for atomic number  53.
 FoFCou: FMM=F IPFlag=           0 FMFlag=      100000 FMFlg1=           0
         NFxFlg=           0 DoJE=T BraDBF=F KetDBF=T FulRan=T
         wScrn=  0.000000 ICntrl=     500 IOpCl=  0 I1Cent=   200000004 NGrid=           0
         NMat0=    1 NMatS0=      1 NMatT0=    0 NMatD0=    1 NMtDS0=    0 NMtDT0=    0
 Petite list used in FoFCou.
 Keep R1 ints in memory in canonical form, NReq=15439530.
 Requested convergence on RMS density matrix=1.00D-08 within 128 cycles.
 Requested convergence on MAX density matrix=1.00D-06.
 Requested convergence on             energy=1.00D-06.
 No special actions if energy rises.
 Integral accuracy reduced to 1.0D-05 until final iterations.
 Defaulting to unpruned grid for atomic number  53.
 Initial convergence to 1.0D-05 achieved.  Increase integral accuracy.
 SCF Done:  E(RM062X) =  -416.003388055     A.U. after   14 cycles
            NFock= 14  Conv=0.28D-08     -V/T= 2.8053
   1 Symmetry operations used in ECPInt.
 ECPInt:  NShTT=    1225 NPrTT=    4557 LenC2=    1226 LenP2D=    3963.
 LDataN:  DoStor=T MaxTD1= 7 Len=  274
 Calling FoFJK, ICntrl=      2127 FMM=F ISym2X=0 I1Cent= 0 IOpClX= 0 NMat=1 NMatS=1 NMatT=0.
 Defaulting to unpruned grid for atomic number  53.
 ***** Axes restored to original set *****
 -------------------------------------------------------------------
 Center     Atomic                   Forces (Hartrees/Bohr)
 Number     Number              X              Y              Z
 -------------------------------------------------------------------
      1        6           0.000642803   -0.000993431    0.000826329
      2        6          -0.003233554    0.005779902   -0.003825458
      3        6           0.000590985   -0.001185970    0.000615046
      4       53           0.001059570   -0.002267410    0.001555161
      5        1           0.000071281    0.000663633    0.000593001
      6        1           0.000055055    0.000411457    0.000105854
      7        1           0.000009559    0.000077367    0.000183673
      8        1           0.001254568   -0.001901681    0.001215750
      9        1          -0.000288112   -0.000413980   -0.000738876
     10        1          -0.000091396   -0.000014041   -0.000422401
     11        1          -0.000070757   -0.000155846   -0.000108080
 -------------------------------------------------------------------
 Cartesian Forces:  Max     0.005779902 RMS     0.001558105

 GradGradGradGradGradGradGradGradGradGradGradGradGradGradGradGradGradGrad
 Berny optimization.
 Using GEDIIS/GDIIS optimizer.
 FormGI is forming the generalized inverse of G from B-inverse, IUseBI=4.
 Internal  Forces:  Max     0.002814129 RMS     0.000707931
 Search for a local minimum.
 Step number   2 out of a maximum of   56
 All quantities printed in internal units (Hartrees-Bohrs-Radians)
 Mixed Optimization -- En-DIIS/RFO-DIIS
 Update second derivatives using D2CorX and points    1    2
 DE= -1.30D-03 DEPred=-1.14D-03 R= 1.14D+00
 TightC=F SS=  1.41D+00  RLast= 1.81D-01 DXNew= 5.0454D-01 5.4401D-01
 Trust test= 1.14D+00 RLast= 1.81D-01 DXMaxT set to 5.05D-01
 ITU=  1  0
 Use linear search instead of GDIIS.
     Eigenvalues ---    0.00423   0.00425   0.03610   0.04691   0.05463
     Eigenvalues ---    0.05467   0.05768   0.05774   0.09565   0.11700
     Eigenvalues ---    0.15811   0.16000   0.16000   0.16000   0.16000
     Eigenvalues ---    0.16673   0.17052   0.23656   0.29205   0.29819
     Eigenvalues ---    0.34054   0.34110   0.34158   0.34170   0.34175
     Eigenvalues ---    0.34208   0.35534
 RFO step:  Lambda=-2.04750658D-04 EMin= 4.22926761D-03
 Quartic linear search produced a step of  0.32602.
 Iteration  1 RMS(Cart)=  0.01159298 RMS(Int)=  0.00022696
 Iteration  2 RMS(Cart)=  0.00019133 RMS(Int)=  0.00014776
 Iteration  3 RMS(Cart)=  0.00000001 RMS(Int)=  0.00014776
 Variable       Old X    -DE/DX   Delta X   Delta X   Delta X     New X
                                 (Linear)    (Quad)   (Total)
    R1        2.87398  -0.00177  -0.00307  -0.00563  -0.00870   2.86529
    R2        2.07633  -0.00079   0.00195  -0.00448  -0.00253   2.07380
    R3        2.08200   0.00020   0.00395  -0.00212   0.00183   2.08383
    R4        2.07796  -0.00007   0.00239  -0.00203   0.00035   2.07832
    R5        2.87401  -0.00178  -0.00298  -0.00573  -0.00871   2.86529
    R6        4.10124   0.00281   0.00737   0.02540   0.03277   4.13401
    R7        2.07377  -0.00017   0.00074  -0.00120  -0.00045   2.07332
    R8        2.07633  -0.00079   0.00194  -0.00447  -0.00253   2.07380
    R9        2.08198   0.00021   0.00399  -0.00213   0.00186   2.08384
   R10        2.07797  -0.00007   0.00239  -0.00204   0.00035   2.07832
    A1        1.95526  -0.00045   0.00459  -0.00631  -0.00170   1.95356
    A2        1.90217  -0.00030  -0.00877   0.00321  -0.00561   1.89656
    A3        1.93684  -0.00006  -0.00453   0.00264  -0.00194   1.93490
    A4        1.88851   0.00038   0.00352   0.00079   0.00434   1.89285
    A5        1.89040   0.00035   0.00288   0.00201   0.00490   1.89530
    A6        1.88895   0.00010   0.00268  -0.00230   0.00024   1.88919
    A7        1.97142  -0.00062   0.01038  -0.00460   0.00533   1.97675
    A8        1.91661   0.00029   0.00071  -0.00055   0.00014   1.91675
    A9        1.91828   0.00063   0.00556   0.00889   0.01392   1.93220
   A10        1.91658   0.00029   0.00075  -0.00057   0.00016   1.91674
   A11        1.91839   0.00062   0.00555   0.00877   0.01378   1.93217
   A12        1.81627  -0.00124  -0.02477  -0.01247  -0.03708   1.77919
   A13        1.95523  -0.00045   0.00468  -0.00634  -0.00163   1.95359
   A14        1.90225  -0.00030  -0.00886   0.00319  -0.00572   1.89652
   A15        1.93682  -0.00006  -0.00446   0.00260  -0.00192   1.93490
   A16        1.88853   0.00038   0.00348   0.00080   0.00431   1.89284
   A17        1.89034   0.00036   0.00289   0.00207   0.00498   1.89531
   A18        1.88897   0.00010   0.00264  -0.00229   0.00021   1.88918
    D1        3.13947  -0.00014  -0.00068   0.01009   0.00933  -3.13438
    D2        0.99367  -0.00029  -0.00919   0.01447   0.00525   0.99892
    D3       -0.99433   0.00069   0.01708   0.02480   0.04200  -0.95234
    D4       -1.05441  -0.00014   0.00087   0.00924   0.00998  -1.04443
    D5        3.08298  -0.00029  -0.00764   0.01362   0.00590   3.08887
    D6        1.09497   0.00069   0.01862   0.02395   0.04264   1.13762
    D7        1.02408  -0.00024  -0.00440   0.01003   0.00559   1.02967
    D8       -1.12172  -0.00039  -0.01291   0.01441   0.00151  -1.12021
    D9       -3.10972   0.00059   0.01336   0.02475   0.03826  -3.07146
   D10       -3.13955   0.00014   0.00066  -0.00991  -0.00917   3.13446
   D11        1.05427   0.00015  -0.00083  -0.00905  -0.00975   1.04452
   D12       -1.02428   0.00025   0.00450  -0.00982  -0.00528  -1.02956
   D13       -0.99374   0.00029   0.00915  -0.01427  -0.00510  -0.99884
   D14       -3.08311   0.00029   0.00766  -0.01341  -0.00568  -3.08879
   D15        1.12153   0.00039   0.01299  -0.01418  -0.00121   1.12032
   D16        0.99431  -0.00069  -0.01711  -0.02469  -0.04191   0.95240
   D17       -1.09505  -0.00069  -0.01860  -0.02383  -0.04249  -1.13754
   D18        3.10958  -0.00059  -0.01327  -0.02460  -0.03802   3.07157
         Item               Value     Threshold  Converged?
 Maximum Force            0.002814     0.000450     NO 
 RMS     Force            0.000708     0.000300     NO 
 Maximum Displacement     0.036887     0.001800     NO 
 RMS     Displacement     0.011646     0.001200     NO 
 Predicted change in Energy=-1.541613D-04
 GradGradGradGradGradGradGradGradGradGradGradGradGradGradGradGradGradGrad

                          Input orientation:                          
 ---------------------------------------------------------------------
 Center     Atomic      Atomic             Coordinates (Angstroms)
 Number     Number       Type             X           Y           Z
 ---------------------------------------------------------------------
      1          6           0       -0.271469   -0.544373   -1.151064
      2          6           0       -0.178255   -0.376465    0.352969
      3          6           0        0.243560    1.017491    0.774828
      4         53           0        1.208066   -1.853049    1.179718
      5          1           0       -0.585055   -1.557895   -1.431675
      6          1           0       -1.014443    0.171288   -1.540679
      7          1           0        0.695589   -0.331406   -1.629604
      8          1           0       -1.123250   -0.658043    0.834055
      9          1           0        0.297021    1.116819    1.866423
     10          1           0       -0.497034    1.740544    0.394427
     11          1           0        1.225169    1.274790    0.350802
 ---------------------------------------------------------------------
                    Distance matrix (angstroms):
                    1          2          3          4          5
     1  C    0.000000
     2  C    1.516244   0.000000
     3  C    2.532535   1.516247   0.000000
     4  I    3.055192   2.187625   3.055193   0.000000
     5  H    1.097409   2.178581   3.491113   3.181473   0.000000
     6  H    1.102715   2.141295   2.767707   4.054386   1.785029
     7  H    1.099798   2.167079   2.793769   3.235788   1.784237
     8  H    2.163135   1.097153   2.163121   2.642453   2.496581
     9  H    3.491127   2.178607   1.097408   3.181459   4.337004
    10  H    2.767719   2.141277   1.102720   4.054375   3.771219
    11  H    2.793721   2.167083   1.099799   3.235857   3.805028
                    6          7          8          9         10
     6  H    0.000000
     7  H    1.784606   0.000000
     8  H    2.517735   3.079689   0.000000
     9  H    3.771247   3.805052   2.496615   0.000000
    10  H    2.544584   3.132416   2.517665   1.785029   0.000000
    11  H    3.132295   2.604290   3.079683   1.784242   1.784605
                   11
    11  H    0.000000
 Stoichiometry    C3H7I
 Framework group  C1[X(C3H7I)]
 Deg. of freedom    27
 Full point group                 C1      NOp   1
 Largest Abelian subgroup         C1      NOp   1
 Largest concise Abelian subgroup C1      NOp   1
                         Standard orientation:                         
 ---------------------------------------------------------------------
 Center     Atomic      Atomic             Coordinates (Angstroms)
 Number     Number       Type             X           Y           Z
 ---------------------------------------------------------------------
      1          6           0       -1.930842   -1.266268   -0.130307
      2          6           0       -1.298047   -0.000001    0.412959
      3          6           0       -1.930843    1.266267   -0.130309
      4         53           0        0.847212    0.000000   -0.015485
      5          1           0       -1.461642   -2.168492    0.282184
      6          1           0       -2.999108   -1.272288    0.143099
      7          1           0       -1.855932   -1.302173   -1.226964
      8          1           0       -1.310408    0.000013    1.510042
      9          1           0       -1.461615    2.168512    0.282102
     10          1           0       -2.999091    1.272297    0.143191
     11          1           0       -1.856037    1.302117   -1.226975
 ---------------------------------------------------------------------
 Rotational constants (GHZ):      8.0662015      2.1592376      1.8005330
 Standard basis: def2SVP (5D, 7F)
 There are   108 symmetry adapted cartesian basis functions of A   symmetry.
 There are   103 symmetry adapted basis functions of A   symmetry.
   103 basis functions,   191 primitive gaussians,   108 cartesian basis functions
    25 alpha electrons       25 beta electrons
       nuclear repulsion energy       191.6649522640 Hartrees.
 NAtoms=   11 NActive=   11 NUniq=   11 SFac= 1.00D+00 NAtFMM=   60 NAOKFM=F Big=F
 Integral buffers will be    131072 words long.
 Raffenetti 2 integral format.
 Two-electron integral symmetry is turned on.
 One-electron integrals computed using PRISM.
   1 Symmetry operations used in ECPInt.
 ECPInt:  NShTT=    1225 NPrTT=    4557 LenC2=    1226 LenP2D=    3964.
 LDataN:  DoStor=T MaxTD1= 6 Len=  172
 NBasis=   103 RedAO= T EigKep=  2.91D-03  NBF=   103
 NBsUse=   103 1.00D-06 EigRej= -1.00D+00 NBFU=   103
 Defaulting to unpruned grid for atomic number  53.
 Initial guess from the checkpoint file:  "/srv/scratch/z5358697/gauss/Gau-4056048.chk"
 B after Tr=     0.000000    0.000000    0.000000
         Rot=    1.000000    0.000010   -0.000092   -0.000004 Ang=   0.01 deg.
 ExpMin= 1.11D-01 ExpMax= 1.24D+03 ExpMxC= 1.86D+02 IAcc=1 IRadAn=         1 AccDes= 0.00D+00
 Harris functional with IExCor= 1009 and IRadAn=       1 diagonalized for initial guess.
 HarFok:  IExCor= 1009 AccDes= 0.00D+00 IRadAn=         1 IDoV= 1 UseB2=F ITyADJ=14
 ICtDFT=  3500011 ScaDFX=  1.000000  1.000000  1.000000  1.000000
 Defaulting to unpruned grid for atomic number  53.
 FoFCou: FMM=F IPFlag=           0 FMFlag=      100000 FMFlg1=           0
         NFxFlg=           0 DoJE=T BraDBF=F KetDBF=T FulRan=T
         wScrn=  0.000000 ICntrl=     500 IOpCl=  0 I1Cent=   200000004 NGrid=           0
         NMat0=    1 NMatS0=      1 NMatT0=    0 NMatD0=    1 NMtDS0=    0 NMtDT0=    0
 Petite list used in FoFCou.
 Keep R1 ints in memory in canonical form, NReq=15439516.
 Requested convergence on RMS density matrix=1.00D-08 within 128 cycles.
 Requested convergence on MAX density matrix=1.00D-06.
 Requested convergence on             energy=1.00D-06.
 No special actions if energy rises.
 Integral accuracy reduced to 1.0D-05 until final iterations.
 Defaulting to unpruned grid for atomic number  53.
 Initial convergence to 1.0D-05 achieved.  Increase integral accuracy.
 SCF Done:  E(RM062X) =  -416.003546419     A.U. after   13 cycles
            NFock= 13  Conv=0.41D-08     -V/T= 2.8053
   1 Symmetry operations used in ECPInt.
 ECPInt:  NShTT=    1225 NPrTT=    4557 LenC2=    1226 LenP2D=    3964.
 LDataN:  DoStor=T MaxTD1= 7 Len=  274
 Calling FoFJK, ICntrl=      2127 FMM=F ISym2X=0 I1Cent= 0 IOpClX= 0 NMat=1 NMatS=1 NMatT=0.
 Defaulting to unpruned grid for atomic number  53.
 ***** Axes restored to original set *****
 -------------------------------------------------------------------
 Center     Atomic                   Forces (Hartrees/Bohr)
 Number     Number              X              Y              Z
 -------------------------------------------------------------------
      1        6           0.000324511   -0.000018127    0.000156431
      2        6          -0.000947461   -0.000106837    0.000345998
      3        6           0.000250087   -0.000229690   -0.000114564
      4       53           0.000039737    0.000197785   -0.000171487
      5        1          -0.000037749    0.000094943   -0.000103293
      6        1           0.000325988   -0.000254712   -0.000160389
      7        1          -0.000281328   -0.000088600   -0.000031098
      8        1           0.000163420    0.000192768   -0.000201606
      9        1          -0.000026848    0.000126923   -0.000060753
     10        1           0.000415410    0.000007434    0.000164663
     11        1          -0.000225766    0.000078114    0.000176098
 -------------------------------------------------------------------
 Cartesian Forces:  Max     0.000947461 RMS     0.000250831

 GradGradGradGradGradGradGradGradGradGradGradGradGradGradGradGradGradGrad
 Berny optimization.
 Using GEDIIS/GDIIS optimizer.
 FormGI is forming the generalized inverse of G from B-inverse, IUseBI=4.
 Internal  Forces:  Max     0.000502561 RMS     0.000197826
 Search for a local minimum.
 Step number   3 out of a maximum of   56
 All quantities printed in internal units (Hartrees-Bohrs-Radians)
 Mixed Optimization -- En-DIIS/RFO-DIIS
 Swapping is turned off.
 Update second derivatives using D2CorX and points    1    2    3
 DE= -1.58D-04 DEPred=-1.54D-04 R= 1.03D+00
 TightC=F SS=  1.41D+00  RLast= 1.17D-01 DXNew= 8.4853D-01 3.5241D-01
 Trust test= 1.03D+00 RLast= 1.17D-01 DXMaxT set to 5.05D-01
 ITU=  1  1  0
     Eigenvalues ---    0.00414   0.00425   0.03020   0.04953   0.05474
     Eigenvalues ---    0.05482   0.05809   0.05822   0.09762   0.11979
     Eigenvalues ---    0.15998   0.16000   0.16000   0.16000   0.16167
     Eigenvalues ---    0.16822   0.17125   0.23901   0.29526   0.29819
     Eigenvalues ---    0.34078   0.34158   0.34165   0.34175   0.34208
     Eigenvalues ---    0.34286   0.35631
 En-DIIS/RFO-DIIS IScMMF=        0 using points:     3    2
 RFO step:  Lambda=-4.42366604D-06.
 DidBck=F Rises=F RFO-DIIS coefs:    0.93922    0.06078
 Iteration  1 RMS(Cart)=  0.00270637 RMS(Int)=  0.00000531
 Iteration  2 RMS(Cart)=  0.00000527 RMS(Int)=  0.00000280
 Iteration  3 RMS(Cart)=  0.00000000 RMS(Int)=  0.00000280
 Variable       Old X    -DE/DX   Delta X   Delta X   Delta X     New X
                                 (Linear)    (Quad)   (Total)
    R1        2.86529   0.00014   0.00053  -0.00009   0.00044   2.86572
    R2        2.07380  -0.00005   0.00015  -0.00025  -0.00010   2.07371
    R3        2.08383  -0.00032  -0.00011  -0.00072  -0.00083   2.08300
    R4        2.07832  -0.00026  -0.00002  -0.00067  -0.00069   2.07762
    R5        2.86529   0.00014   0.00053  -0.00010   0.00043   2.86573
    R6        4.13401  -0.00015  -0.00199   0.00077  -0.00122   4.13279
    R7        2.07332  -0.00030   0.00003  -0.00082  -0.00080   2.07252
    R8        2.07380  -0.00005   0.00015  -0.00025  -0.00010   2.07370
    R9        2.08384  -0.00032  -0.00011  -0.00072  -0.00084   2.08300
   R10        2.07832  -0.00026  -0.00002  -0.00067  -0.00070   2.07762
    A1        1.95356   0.00007   0.00010   0.00035   0.00045   1.95401
    A2        1.89656   0.00030   0.00034   0.00133   0.00167   1.89823
    A3        1.93490   0.00019   0.00012   0.00100   0.00111   1.93601
    A4        1.89285  -0.00020  -0.00026  -0.00096  -0.00122   1.89162
    A5        1.89530  -0.00014  -0.00030  -0.00046  -0.00076   1.89454
    A6        1.88919  -0.00025  -0.00001  -0.00136  -0.00137   1.88781
    A7        1.97675   0.00050  -0.00032   0.00158   0.00126   1.97801
    A8        1.91675  -0.00031  -0.00001  -0.00323  -0.00324   1.91351
    A9        1.93220  -0.00010  -0.00085   0.00221   0.00137   1.93357
   A10        1.91674  -0.00031  -0.00001  -0.00322  -0.00324   1.91351
   A11        1.93217  -0.00009  -0.00084   0.00222   0.00139   1.93357
   A12        1.77919   0.00028   0.00225   0.00014   0.00239   1.78158
   A13        1.95359   0.00007   0.00010   0.00032   0.00042   1.95402
   A14        1.89652   0.00031   0.00035   0.00135   0.00170   1.89822
   A15        1.93490   0.00019   0.00012   0.00100   0.00111   1.93602
   A16        1.89284  -0.00020  -0.00026  -0.00096  -0.00122   1.89162
   A17        1.89531  -0.00014  -0.00030  -0.00046  -0.00077   1.89455
   A18        1.88918  -0.00025  -0.00001  -0.00136  -0.00137   1.88781
    D1       -3.13438  -0.00015  -0.00057  -0.00149  -0.00205  -3.13643
    D2        0.99892   0.00014  -0.00032   0.00400   0.00368   1.00260
    D3       -0.95234   0.00004  -0.00255   0.00442   0.00186  -0.95047
    D4       -1.04443  -0.00015  -0.00061  -0.00159  -0.00219  -1.04662
    D5        3.08887   0.00013  -0.00036   0.00389   0.00353   3.09241
    D6        1.13762   0.00003  -0.00259   0.00431   0.00172   1.13933
    D7        1.02967  -0.00015  -0.00034  -0.00184  -0.00217   1.02750
    D8       -1.12021   0.00013  -0.00009   0.00365   0.00356  -1.11665
    D9       -3.07146   0.00003  -0.00233   0.00407   0.00174  -3.06973
   D10        3.13446   0.00015   0.00056   0.00145   0.00201   3.13647
   D11        1.04452   0.00015   0.00059   0.00156   0.00215   1.04666
   D12       -1.02956   0.00015   0.00032   0.00178   0.00210  -1.02746
   D13       -0.99884  -0.00014   0.00031  -0.00404  -0.00372  -1.00257
   D14       -3.08879  -0.00013   0.00035  -0.00393  -0.00358  -3.09237
   D15        1.12032  -0.00013   0.00007  -0.00370  -0.00363   1.11669
   D16        0.95240  -0.00003   0.00255  -0.00444  -0.00190   0.95051
   D17       -1.13754  -0.00003   0.00258  -0.00434  -0.00176  -1.13930
   D18        3.07157  -0.00003   0.00231  -0.00411  -0.00180   3.06977
         Item               Value     Threshold  Converged?
 Maximum Force            0.000503     0.000450     NO 
 RMS     Force            0.000198     0.000300     YES
 Maximum Displacement     0.007365     0.001800     NO 
 RMS     Displacement     0.002706     0.001200     NO 
 Predicted change in Energy=-6.276193D-06
 GradGradGradGradGradGradGradGradGradGradGradGradGradGradGradGradGradGrad

                          Input orientation:                          
 ---------------------------------------------------------------------
 Center     Atomic      Atomic             Coordinates (Angstroms)
 Number     Number       Type             X           Y           Z
 ---------------------------------------------------------------------
      1          6           0       -0.271843   -0.545368   -1.151103
      2          6           0       -0.180873   -0.375772    0.353111
      3          6           0        0.243484    1.017388    0.775873
      4         53           0        1.210118   -1.849152    1.176009
      5          1           0       -0.585317   -1.558923   -1.431520
      6          1           0       -1.013471    0.169107   -1.544200
      7          1           0        0.695180   -0.333468   -1.629341
      8          1           0       -1.125136   -0.657837    0.834388
      9          1           0        0.296950    1.116491    1.867437
     10          1           0       -0.494458    1.743109    0.396682
     11          1           0        1.225267    1.274125    0.352864
 ---------------------------------------------------------------------
                    Distance matrix (angstroms):
                    1          2          3          4          5
     1  C    0.000000
     2  C    1.516475   0.000000
     3  C    2.533970   1.516477   0.000000
     4  I    3.051477   2.186976   3.051481   0.000000
     5  H    1.097358   2.179066   3.492402   3.179155   0.000000
     6  H    1.102276   2.142406   2.771689   4.051822   1.783844
     7  H    1.099431   2.167805   2.795335   3.229930   1.783409
     8  H    2.164008   1.096731   2.164006   2.643737   2.497538
     9  H    3.492404   2.179071   1.097357   3.179149   4.338128
    10  H    2.771700   2.142403   1.102277   4.051823   3.775446
    11  H    2.795319   2.167808   1.099431   3.229962   3.806363
                    6          7          8          9         10
     6  H    0.000000
     7  H    1.783065   0.000000
     8  H    2.520711   3.080378   0.000000
     9  H    3.775449   3.806367   2.497551   0.000000
    10  H    2.552231   3.135632   2.520691   1.783843   0.000000
    11  H    3.135581   2.606623   3.080379   1.783410   1.783065
                   11
    11  H    0.000000
 Stoichiometry    C3H7I
 Framework group  C1[X(C3H7I)]
 Deg. of freedom    27
 Full point group                 C1      NOp   1
 Largest Abelian subgroup         C1      NOp   1
 Largest concise Abelian subgroup C1      NOp   1
                         Standard orientation:                         
 ---------------------------------------------------------------------
 Center     Atomic      Atomic             Coordinates (Angstroms)
 Number     Number       Type             X           Y           Z
 ---------------------------------------------------------------------
      1          6           0       -1.927558   -1.266987   -0.130822
      2          6           0       -1.298077   -0.000001    0.415253
      3          6           0       -1.927565    1.266984   -0.130823
      4         53           0        0.846060    0.000001   -0.015493
      5          1           0       -1.459008   -2.169063    0.282595
      6          1           0       -2.996492   -1.276114    0.138081
      7          1           0       -1.849555   -1.303322   -1.226880
      8          1           0       -1.311815    0.000002    1.511899
      9          1           0       -1.459001    2.169065    0.282564
     10          1           0       -2.996491    1.276117    0.138116
     11          1           0       -1.849602    1.303301   -1.226884
 ---------------------------------------------------------------------
 Rotational constants (GHZ):      8.0529471      2.1647468      1.8040689
 Standard basis: def2SVP (5D, 7F)
 There are   108 symmetry adapted cartesian basis functions of A   symmetry.
 There are   103 symmetry adapted basis functions of A   symmetry.
   103 basis functions,   191 primitive gaussians,   108 cartesian basis functions
    25 alpha electrons       25 beta electrons
       nuclear repulsion energy       191.7483374288 Hartrees.
 NAtoms=   11 NActive=   11 NUniq=   11 SFac= 1.00D+00 NAtFMM=   60 NAOKFM=F Big=F
 Integral buffers will be    131072 words long.
 Raffenetti 2 integral format.
 Two-electron integral symmetry is turned on.
 One-electron integrals computed using PRISM.
   1 Symmetry operations used in ECPInt.
 ECPInt:  NShTT=    1225 NPrTT=    4557 LenC2=    1226 LenP2D=    3964.
 LDataN:  DoStor=T MaxTD1= 6 Len=  172
 NBasis=   103 RedAO= T EigKep=  2.91D-03  NBF=   103
 NBsUse=   103 1.00D-06 EigRej= -1.00D+00 NBFU=   103
 Defaulting to unpruned grid for atomic number  53.
 Initial guess from the checkpoint file:  "/srv/scratch/z5358697/gauss/Gau-4056048.chk"
 B after Tr=     0.000000    0.000000    0.000000
         Rot=    1.000000   -0.000001    0.000153    0.000000 Ang=  -0.02 deg.
 Keep R1 ints in memory in canonical form, NReq=15439516.
 Requested convergence on RMS density matrix=1.00D-08 within 128 cycles.
 Requested convergence on MAX density matrix=1.00D-06.
 Requested convergence on             energy=1.00D-06.
 No special actions if energy rises.
 Defaulting to unpruned grid for atomic number  53.
 SCF Done:  E(RM062X) =  -416.003556342     A.U. after    9 cycles
            NFock=  9  Conv=0.33D-08     -V/T= 2.8053
   1 Symmetry operations used in ECPInt.
 ECPInt:  NShTT=    1225 NPrTT=    4557 LenC2=    1226 LenP2D=    3964.
 LDataN:  DoStor=T MaxTD1= 7 Len=  274
 Calling FoFJK, ICntrl=      2127 FMM=F ISym2X=0 I1Cent= 0 IOpClX= 0 NMat=1 NMatS=1 NMatT=0.
 Defaulting to unpruned grid for atomic number  53.
 ***** Axes restored to original set *****
 -------------------------------------------------------------------
 Center     Atomic                   Forces (Hartrees/Bohr)
 Number     Number              X              Y              Z
 -------------------------------------------------------------------
      1        6           0.000021296    0.000040289    0.000144332
      2        6          -0.000107510    0.000062315   -0.000020321
      3        6          -0.000036373   -0.000130811   -0.000068809
      4       53           0.000070308   -0.000154047    0.000106195
      5        1          -0.000034130    0.000014084   -0.000001353
      6        1           0.000064398   -0.000000045   -0.000124353
      7        1           0.000001915   -0.000045719    0.000023640
      8        1          -0.000049843    0.000134870   -0.000096221
      9        1          -0.000034403    0.000012840   -0.000001931
     10        1           0.000098278    0.000100159   -0.000000123
     11        1           0.000006064   -0.000033935    0.000038943
 -------------------------------------------------------------------
 Cartesian Forces:  Max     0.000154047 RMS     0.000073689

 GradGradGradGradGradGradGradGradGradGradGradGradGradGradGradGradGradGrad
 Berny optimization.
 Using GEDIIS/GDIIS optimizer.
 FormGI is forming the generalized inverse of G from B-inverse, IUseBI=4.
 Internal  Forces:  Max     0.000212414 RMS     0.000053717
 Search for a local minimum.
 Step number   4 out of a maximum of   56
 All quantities printed in internal units (Hartrees-Bohrs-Radians)
 Mixed Optimization -- En-DIIS/RFO-DIIS
 Swapping is turned off.
 Update second derivatives using D2CorX and points    1    2    3    4
 DE= -9.92D-06 DEPred=-6.28D-06 R= 1.58D+00
 TightC=F SS=  1.41D+00  RLast= 1.33D-02 DXNew= 8.4853D-01 4.0039D-02
 Trust test= 1.58D+00 RLast= 1.33D-02 DXMaxT set to 5.05D-01
 ITU=  1  1  1  0
     Eigenvalues ---    0.00406   0.00425   0.03196   0.04639   0.05473
     Eigenvalues ---    0.05486   0.05799   0.05809   0.09786   0.12438
     Eigenvalues ---    0.14687   0.16000   0.16000   0.16000   0.16233
     Eigenvalues ---    0.16618   0.17101   0.23427   0.29817   0.29974
     Eigenvalues ---    0.33960   0.34139   0.34158   0.34175   0.34208
     Eigenvalues ---    0.34385   0.35688
 En-DIIS/RFO-DIIS IScMMF=        0 using points:     4    3    2
 RFO step:  Lambda=-3.73047153D-07.
 DidBck=F Rises=F RFO-DIIS coefs:    1.11511   -0.11206   -0.00306
 Iteration  1 RMS(Cart)=  0.00096185 RMS(Int)=  0.00000064
 Iteration  2 RMS(Cart)=  0.00000053 RMS(Int)=  0.00000038
 Variable       Old X    -DE/DX   Delta X   Delta X   Delta X     New X
                                 (Linear)    (Quad)   (Total)
    R1        2.86572  -0.00006   0.00002  -0.00019  -0.00016   2.86556
    R2        2.07371   0.00000  -0.00002   0.00005   0.00003   2.07374
    R3        2.08300   0.00001  -0.00009   0.00010   0.00001   2.08301
    R4        2.07762  -0.00003  -0.00008  -0.00005  -0.00013   2.07750
    R5        2.86573  -0.00006   0.00002  -0.00019  -0.00017   2.86556
    R6        4.13279   0.00021  -0.00004   0.00180   0.00176   4.13455
    R7        2.07252  -0.00005  -0.00009  -0.00013  -0.00022   2.07230
    R8        2.07370   0.00000  -0.00002   0.00005   0.00003   2.07374
    R9        2.08300   0.00001  -0.00009   0.00010   0.00001   2.08301
   R10        2.07762  -0.00003  -0.00008  -0.00005  -0.00013   2.07750
    A1        1.95401  -0.00003   0.00005  -0.00018  -0.00013   1.95388
    A2        1.89823   0.00013   0.00018   0.00087   0.00104   1.89927
    A3        1.93601   0.00000   0.00012  -0.00007   0.00005   1.93607
    A4        1.89162  -0.00006  -0.00013  -0.00031  -0.00044   1.89119
    A5        1.89454   0.00000  -0.00007  -0.00008  -0.00015   1.89439
    A6        1.88781  -0.00006  -0.00016  -0.00024  -0.00040   1.88741
    A7        1.97801   0.00009   0.00016   0.00026   0.00042   1.97843
    A8        1.91351  -0.00004  -0.00037  -0.00014  -0.00051   1.91300
    A9        1.93357  -0.00004   0.00020  -0.00042  -0.00022   1.93335
   A10        1.91351  -0.00004  -0.00037  -0.00014  -0.00051   1.91300
   A11        1.93357  -0.00004   0.00020  -0.00042  -0.00021   1.93335
   A12        1.78158   0.00007   0.00016   0.00091   0.00107   1.78265
   A13        1.95402  -0.00003   0.00004  -0.00018  -0.00014   1.95388
   A14        1.89822   0.00014   0.00018   0.00087   0.00105   1.89927
   A15        1.93602   0.00000   0.00012  -0.00007   0.00005   1.93607
   A16        1.89162  -0.00006  -0.00013  -0.00031  -0.00044   1.89119
   A17        1.89455   0.00000  -0.00007  -0.00008  -0.00016   1.89439
   A18        1.88781  -0.00006  -0.00016  -0.00024  -0.00039   1.88741
    D1       -3.13643   0.00000  -0.00021   0.00079   0.00058  -3.13585
    D2        1.00260   0.00002   0.00044   0.00089   0.00133   1.00393
    D3       -0.95047  -0.00002   0.00034   0.00011   0.00045  -0.95003
    D4       -1.04662   0.00000  -0.00022   0.00087   0.00064  -1.04598
    D5        3.09241   0.00002   0.00042   0.00096   0.00139   3.09380
    D6        1.13933  -0.00002   0.00033   0.00018   0.00051   1.13984
    D7        1.02750   0.00001  -0.00023   0.00107   0.00084   1.02834
    D8       -1.11665   0.00003   0.00041   0.00117   0.00158  -1.11507
    D9       -3.06973  -0.00001   0.00032   0.00038   0.00070  -3.06902
   D10        3.13647   0.00000   0.00020  -0.00081  -0.00061   3.13586
   D11        1.04666   0.00000   0.00022  -0.00089  -0.00067   1.04599
   D12       -1.02746  -0.00001   0.00023  -0.00110  -0.00087  -1.02833
   D13       -1.00257  -0.00002  -0.00044  -0.00091  -0.00135  -1.00392
   D14       -3.09237  -0.00002  -0.00043  -0.00099  -0.00142  -3.09379
   D15        1.11669  -0.00003  -0.00042  -0.00120  -0.00162   1.11508
   D16        0.95051   0.00002  -0.00035  -0.00012  -0.00047   0.95003
   D17       -1.13930   0.00002  -0.00033  -0.00020  -0.00053  -1.13983
   D18        3.06977   0.00001  -0.00032  -0.00041  -0.00073   3.06903
         Item               Value     Threshold  Converged?
 Maximum Force            0.000212     0.000450     YES
 RMS     Force            0.000054     0.000300     YES
 Maximum Displacement     0.003423     0.001800     NO 
 RMS     Displacement     0.000962     0.001200     YES
 Predicted change in Energy=-5.685709D-07
 GradGradGradGradGradGradGradGradGradGradGradGradGradGradGradGradGradGrad

                          Input orientation:                          
 ---------------------------------------------------------------------
 Center     Atomic      Atomic             Coordinates (Angstroms)
 Number     Number       Type             X           Y           Z
 ---------------------------------------------------------------------
      1          6           0       -0.272142   -0.545498   -1.151053
      2          6           0       -0.181074   -0.375611    0.353035
      3          6           0        0.243231    1.017385    0.776078
      4         53           0        1.211930   -1.848839    1.175274
      5          1           0       -0.586201   -1.558995   -1.431093
      6          1           0       -1.013140    0.168959   -1.545388
      7          1           0        0.694982   -0.334531   -1.629345
      8          1           0       -1.125337   -0.657486    0.834156
      9          1           0        0.296005    1.116297    1.867710
     10          1           0       -0.493725    1.744113    0.396882
     11          1           0        1.225372    1.273906    0.353945
 ---------------------------------------------------------------------
                    Distance matrix (angstroms):
                    1          2          3          4          5
     1  C    0.000000
     2  C    1.516389   0.000000
     3  C    2.534175   1.516389   0.000000
     4  I    3.051714   2.187907   3.051717   0.000000
     5  H    1.097374   2.178907   3.492462   3.179690   0.000000
     6  H    1.102283   2.143105   2.772633   4.052708   1.783582
     7  H    1.099364   2.167716   2.796035   3.228970   1.783269
     8  H    2.163686   1.096614   2.163687   2.645468   2.496946
     9  H    3.492461   2.178907   1.097374   3.179689   4.337923
    10  H    2.772637   2.143106   1.102283   4.052710   3.776316
    11  H    2.796032   2.167717   1.099364   3.228978   3.807030
                    6          7          8          9         10
     6  H    0.000000
     7  H    1.782760   0.000000
     8  H    2.521473   3.080049   0.000000
     9  H    3.776314   3.807030   2.496949   0.000000
    10  H    2.554077   3.136778   2.521471   1.783581   0.000000
    11  H    3.136767   2.608030   3.080050   1.783269   1.782760
                   11
    11  H    0.000000
 Stoichiometry    C3H7I
 Framework group  C1[X(C3H7I)]
 Deg. of freedom    27
 Full point group                 C1      NOp   1
 Largest Abelian subgroup         C1      NOp   1
 Largest concise Abelian subgroup C1      NOp   1
                         Standard orientation:                         
 ---------------------------------------------------------------------
 Center     Atomic      Atomic             Coordinates (Angstroms)
 Number     Number       Type             X           Y           Z
 ---------------------------------------------------------------------
      1          6           0       -1.927642   -1.267088   -0.130886
      2          6           0       -1.298852    0.000000    0.415507
      3          6           0       -1.927645    1.267087   -0.130887
      4         53           0        0.846187    0.000000   -0.015475
      5          1           0       -1.459589   -2.168962    0.283578
      6          1           0       -2.997075   -1.277038    0.136024
      7          1           0       -1.847997   -1.304017   -1.226739
      8          1           0       -1.313735   -0.000001    1.512021
      9          1           0       -1.459589    2.168961    0.283572
     10          1           0       -2.997077    1.277039    0.136032
     11          1           0       -1.848008    1.304012   -1.226740
 ---------------------------------------------------------------------
 Rotational constants (GHZ):      8.0508571      2.1641531      1.8035840
 Standard basis: def2SVP (5D, 7F)
 There are   108 symmetry adapted cartesian basis functions of A   symmetry.
 There are   103 symmetry adapted basis functions of A   symmetry.
   103 basis functions,   191 primitive gaussians,   108 cartesian basis functions
    25 alpha electrons       25 beta electrons
       nuclear repulsion energy       191.7247730638 Hartrees.
 NAtoms=   11 NActive=   11 NUniq=   11 SFac= 1.00D+00 NAtFMM=   60 NAOKFM=F Big=F
 Integral buffers will be    131072 words long.
 Raffenetti 2 integral format.
 Two-electron integral symmetry is turned on.
 One-electron integrals computed using PRISM.
   1 Symmetry operations used in ECPInt.
 ECPInt:  NShTT=    1225 NPrTT=    4557 LenC2=    1226 LenP2D=    3964.
 LDataN:  DoStor=T MaxTD1= 6 Len=  172
 NBasis=   103 RedAO= T EigKep=  2.91D-03  NBF=   103
 NBsUse=   103 1.00D-06 EigRej= -1.00D+00 NBFU=   103
 Defaulting to unpruned grid for atomic number  53.
 Initial guess from the checkpoint file:  "/srv/scratch/z5358697/gauss/Gau-4056048.chk"
 B after Tr=     0.000000    0.000000    0.000000
         Rot=    1.000000   -0.000001    0.000070    0.000000 Ang=  -0.01 deg.
 Keep R1 ints in memory in canonical form, NReq=15439516.
 Requested convergence on RMS density matrix=1.00D-08 within 128 cycles.
 Requested convergence on MAX density matrix=1.00D-06.
 Requested convergence on             energy=1.00D-06.
 No special actions if energy rises.
 Defaulting to unpruned grid for atomic number  53.
 SCF Done:  E(RM062X) =  -416.003558144     A.U. after    8 cycles
            NFock=  8  Conv=0.54D-08     -V/T= 2.8053
   1 Symmetry operations used in ECPInt.
 ECPInt:  NShTT=    1225 NPrTT=    4557 LenC2=    1226 LenP2D=    3964.
 LDataN:  DoStor=T MaxTD1= 7 Len=  274
 Calling FoFJK, ICntrl=      2127 FMM=F ISym2X=0 I1Cent= 0 IOpClX= 0 NMat=1 NMatS=1 NMatT=0.
 Defaulting to unpruned grid for atomic number  53.
 ***** Axes restored to original set *****
 -------------------------------------------------------------------
 Center     Atomic                   Forces (Hartrees/Bohr)
 Number     Number              X              Y              Z
 -------------------------------------------------------------------
      1        6           0.000033131   -0.000014307    0.000033961
      2        6          -0.000006925    0.000046374   -0.000035840
      3        6           0.000023422   -0.000043807   -0.000002080
      4       53          -0.000140702   -0.000003290    0.000040395
      5        1          -0.000015988    0.000007607    0.000007285
      6        1           0.000045077    0.000029966   -0.000029301
      7        1           0.000051709   -0.000039907    0.000009668
      8        1          -0.000068285    0.000026699   -0.000003272
      9        1          -0.000018780   -0.000000944   -0.000003236
     10        1           0.000042854    0.000023301   -0.000037547
     11        1           0.000054487   -0.000031692    0.000019966
 -------------------------------------------------------------------
 Cartesian Forces:  Max     0.000140702 RMS     0.000039801

 GradGradGradGradGradGradGradGradGradGradGradGradGradGradGradGradGradGrad
 Berny optimization.
 Using GEDIIS/GDIIS optimizer.
 FormGI is forming the generalized inverse of G from B-inverse, IUseBI=4.
 Internal  Forces:  Max     0.000048372 RMS     0.000014016
 Search for a local minimum.
 Step number   5 out of a maximum of   56
 All quantities printed in internal units (Hartrees-Bohrs-Radians)
 Mixed Optimization -- En-DIIS/RFO-DIIS
 Swapping is turned off.
 Update second derivatives using D2CorX and points    1    2    3    4    5
 DE= -1.80D-06 DEPred=-5.69D-07 R= 3.17D+00
 TightC=F SS=  1.41D+00  RLast= 5.08D-03 DXNew= 8.4853D-01 1.5244D-02
 Trust test= 3.17D+00 RLast= 5.08D-03 DXMaxT set to 5.05D-01
 ITU=  1  1  1  1  0
     Eigenvalues ---    0.00407   0.00425   0.03266   0.04541   0.05473
     Eigenvalues ---    0.05490   0.05802   0.05804   0.09788   0.13592
     Eigenvalues ---    0.14212   0.16000   0.16000   0.16000   0.16425
     Eigenvalues ---    0.16792   0.17101   0.23145   0.29816   0.29898
     Eigenvalues ---    0.34123   0.34158   0.34175   0.34208   0.34279
     Eigenvalues ---    0.34646   0.35738
 En-DIIS/RFO-DIIS IScMMF=        0 using points:     5    4    3    2
 RFO step:  Lambda=-2.00224808D-08.
 DidBck=F Rises=F RFO-DIIS coefs:    0.87239    0.15612   -0.02496   -0.00355
 Iteration  1 RMS(Cart)=  0.00011259 RMS(Int)=  0.00000031
 Iteration  2 RMS(Cart)=  0.00000001 RMS(Int)=  0.00000031
 Variable       Old X    -DE/DX   Delta X   Delta X   Delta X     New X
                                 (Linear)    (Quad)   (Total)
    R1        2.86556  -0.00004   0.00000  -0.00012  -0.00012   2.86544
    R2        2.07374   0.00000  -0.00002   0.00001  -0.00001   2.07373
    R3        2.08301   0.00001  -0.00002   0.00005   0.00003   2.08304
    R4        2.07750   0.00002   0.00000   0.00005   0.00005   2.07755
    R5        2.86556  -0.00004   0.00000  -0.00013  -0.00012   2.86544
    R6        4.13455  -0.00005  -0.00014  -0.00010  -0.00024   4.13430
    R7        2.07230   0.00003   0.00000   0.00008   0.00008   2.07238
    R8        2.07374   0.00000  -0.00002   0.00001  -0.00001   2.07373
    R9        2.08301   0.00001  -0.00002   0.00005   0.00003   2.08304
   R10        2.07750   0.00002   0.00000   0.00005   0.00005   2.07755
    A1        1.95388  -0.00001   0.00002  -0.00013  -0.00010   1.95378
    A2        1.89927  -0.00001  -0.00011   0.00006  -0.00005   1.89922
    A3        1.93607   0.00002   0.00002   0.00008   0.00010   1.93617
    A4        1.89119   0.00001   0.00004  -0.00003   0.00000   1.89119
    A5        1.89439   0.00000   0.00002   0.00001   0.00003   1.89442
    A6        1.88741   0.00000   0.00001   0.00000   0.00002   1.88743
    A7        1.97843   0.00001   0.00000   0.00008   0.00008   1.97851
    A8        1.91300  -0.00001  -0.00003  -0.00003  -0.00005   1.91294
    A9        1.93335   0.00000   0.00012  -0.00003   0.00009   1.93344
   A10        1.91300  -0.00001  -0.00003  -0.00003  -0.00006   1.91294
   A11        1.93335   0.00000   0.00012  -0.00003   0.00009   1.93344
   A12        1.78265  -0.00001  -0.00020   0.00003  -0.00017   1.78248
   A13        1.95388  -0.00001   0.00002  -0.00012  -0.00010   1.95378
   A14        1.89927  -0.00001  -0.00011   0.00006  -0.00005   1.89922
   A15        1.93607   0.00002   0.00002   0.00008   0.00010   1.93617
   A16        1.89119   0.00001   0.00004  -0.00003   0.00001   1.89119
   A17        1.89439   0.00000   0.00002   0.00001   0.00003   1.89442
   A18        1.88741   0.00000   0.00001   0.00000   0.00002   1.88743
    D1       -3.13585   0.00000  -0.00010  -0.00002  -0.00012  -3.13596
    D2        1.00393   0.00000  -0.00005  -0.00001  -0.00006   1.00387
    D3       -0.95003   0.00001   0.00014  -0.00001   0.00013  -0.94990
    D4       -1.04598  -0.00001  -0.00011  -0.00010  -0.00021  -1.04619
    D5        3.09380  -0.00001  -0.00006  -0.00009  -0.00015   3.09365
    D6        1.13984   0.00000   0.00014  -0.00009   0.00004   1.13988
    D7        1.02834  -0.00001  -0.00015  -0.00001  -0.00016   1.02818
    D8       -1.11507   0.00000  -0.00010   0.00000  -0.00010  -1.11517
    D9       -3.06902   0.00001   0.00010  -0.00001   0.00009  -3.06893
   D10        3.13586   0.00000   0.00010   0.00001   0.00011   3.13597
   D11        1.04599   0.00001   0.00011   0.00009   0.00020   1.04619
   D12       -1.02833   0.00001   0.00015   0.00000   0.00015  -1.02818
   D13       -1.00392   0.00000   0.00005   0.00000   0.00005  -1.00387
   D14       -3.09379   0.00001   0.00006   0.00008   0.00014  -3.09365
   D15        1.11508   0.00000   0.00010  -0.00001   0.00009   1.11517
   D16        0.95003  -0.00001  -0.00014   0.00001  -0.00014   0.94990
   D17       -1.13983   0.00000  -0.00013   0.00009  -0.00005  -1.13988
   D18        3.06903  -0.00001  -0.00009   0.00000  -0.00010   3.06894
         Item               Value     Threshold  Converged?
 Maximum Force            0.000048     0.000450     YES
 RMS     Force            0.000014     0.000300     YES
 Maximum Displacement     0.000353     0.001800     YES
 RMS     Displacement     0.000113     0.001200     YES
 Predicted change in Energy=-2.450854D-08
 Optimization completed.
    -- Stationary point found.
                           ----------------------------
                           !   Optimized Parameters   !
                           ! (Angstroms and Degrees)  !
 --------------------------                            --------------------------
 ! Name  Definition              Value          Derivative Info.                !
 --------------------------------------------------------------------------------
 ! R1    R(1,2)                  1.5164         -DE/DX =    0.0                 !
 ! R2    R(1,5)                  1.0974         -DE/DX =    0.0                 !
 ! R3    R(1,6)                  1.1023         -DE/DX =    0.0                 !
 ! R4    R(1,7)                  1.0994         -DE/DX =    0.0                 !
 ! R5    R(2,3)                  1.5164         -DE/DX =    0.0                 !
 ! R6    R(2,4)                  2.1879         -DE/DX =    0.0                 !
 ! R7    R(2,8)                  1.0966         -DE/DX =    0.0                 !
[...]
 Electronic      0.100000D+01          0.000000          0.000000
 Translational   0.870877D+08          7.939957         18.282426
 Rotational      0.154823D+06          5.189836         11.950038
 ***** Axes restored to original set *****
 -------------------------------------------------------------------
 Center     Atomic                   Forces (Hartrees/Bohr)
 Number     Number              X              Y              Z
 -------------------------------------------------------------------
      1        6           0.000033129   -0.000014311    0.000033965
      2        6          -0.000006936    0.000046375   -0.000035838
      3        6           0.000023420   -0.000043811   -0.000002076
      4       53          -0.000140697   -0.000003289    0.000040393
      5        1          -0.000015986    0.000007609    0.000007286
      6        1           0.000045076    0.000029966   -0.000029300
      7        1           0.000051713   -0.000039906    0.000009666
      8        1          -0.000068282    0.000026701   -0.000003275
      9        1          -0.000018780   -0.000000945   -0.000003239
     10        1           0.000042853    0.000023301   -0.000037546
     11        1           0.000054490   -0.000031691    0.000019964
 -------------------------------------------------------------------
 Cartesian Forces:  Max     0.000140697 RMS     0.000039801
 FormGI is forming the generalized inverse of G from B-inverse, IUseBI=4.

 GradGradGradGradGradGradGradGradGradGradGradGradGradGradGradGradGradGrad
 Berny optimization.
 Internal  Forces:  Max     0.000048371 RMS     0.000014016
 Search for a local minimum.
 Step number   1 out of a maximum of    2
 All quantities printed in internal units (Hartrees-Bohrs-Radians)
 Second derivative matrix not updated -- analytic derivatives used.
 ITU=  0
     Eigenvalues ---    0.00285   0.00381   0.03175   0.04290   0.04360
     Eigenvalues ---    0.04433   0.04515   0.04619   0.08215   0.12015
     Eigenvalues ---    0.12354   0.12732   0.12930   0.13800   0.14397
     Eigenvalues ---    0.15794   0.16660   0.21790   0.31165   0.32826
     Eigenvalues ---    0.33936   0.34028   0.34542   0.34652   0.34982
     Eigenvalues ---    0.35025   0.35143
 Angle between quadratic step and forces=  43.58 degrees.
 Linear search not attempted -- first point.
 Iteration  1 RMS(Cart)=  0.00012372 RMS(Int)=  0.00000001
 Iteration  2 RMS(Cart)=  0.00000001 RMS(Int)=  0.00000000
 Variable       Old X    -DE/DX   Delta X   Delta X   Delta X     New X
                                 (Linear)    (Quad)   (Total)
    R1        2.86556  -0.00004   0.00000  -0.00012  -0.00012   2.86544
    R2        2.07374   0.00000   0.00000  -0.00001  -0.00001   2.07373
    R3        2.08301   0.00001   0.00000   0.00003   0.00003   2.08305
    R4        2.07750   0.00002   0.00000   0.00005   0.00005   2.07755
    R5        2.86556  -0.00004   0.00000  -0.00012  -0.00012   2.86544
    R6        4.13455  -0.00005   0.00000  -0.00023  -0.00023   4.13431
    R7        2.07230   0.00003   0.00000   0.00009   0.00009   2.07239
    R8        2.07374   0.00000   0.00000  -0.00001  -0.00001   2.07373
    R9        2.08301   0.00001   0.00000   0.00003   0.00003   2.08305
   R10        2.07750   0.00002   0.00000   0.00005   0.00005   2.07755
    A1        1.95388  -0.00001   0.00000  -0.00010  -0.00010   1.95378
    A2        1.89927  -0.00001   0.00000  -0.00006  -0.00006   1.89921
    A3        1.93607   0.00002   0.00000   0.00013   0.00013   1.93619
    A4        1.89119   0.00001   0.00000  -0.00001  -0.00001   1.89118
    A5        1.89439   0.00000   0.00000   0.00003   0.00003   1.89441
    A6        1.88741   0.00000   0.00000   0.00001   0.00001   1.88743
    A7        1.97843   0.00001   0.00000   0.00013   0.00013   1.97856
    A8        1.91300  -0.00001   0.00000  -0.00004  -0.00004   1.91296
    A9        1.93335   0.00000   0.00000   0.00005   0.00005   1.93340
   A10        1.91300  -0.00001   0.00000  -0.00004  -0.00004   1.91296
   A11        1.93335   0.00000   0.00000   0.00005   0.00005   1.93340
   A12        1.78265  -0.00001   0.00000  -0.00019  -0.00019   1.78246
   A13        1.95388  -0.00001   0.00000  -0.00010  -0.00010   1.95378
   A14        1.89927  -0.00001   0.00000  -0.00006  -0.00006   1.89921
   A15        1.93607   0.00002   0.00000   0.00013   0.00013   1.93619
   A16        1.89119   0.00001   0.00000  -0.00001  -0.00001   1.89118
   A17        1.89439   0.00000   0.00000   0.00003   0.00003   1.89441
   A18        1.88741   0.00000   0.00000   0.00001   0.00001   1.88743
    D1       -3.13585   0.00000   0.00000  -0.00007  -0.00007  -3.13592
    D2        1.00393   0.00000   0.00000  -0.00008  -0.00008   1.00385
    D3       -0.95003   0.00001   0.00000   0.00014   0.00014  -0.94989
    D4       -1.04598  -0.00001   0.00000  -0.00018  -0.00018  -1.04616
    D5        3.09380  -0.00001   0.00000  -0.00019  -0.00019   3.09361
    D6        1.13984   0.00000   0.00000   0.00003   0.00003   1.13987
    D7        1.02834  -0.00001   0.00000  -0.00012  -0.00012   1.02822
    D8       -1.11507   0.00000   0.00000  -0.00014  -0.00014  -1.11520
    D9       -3.06902   0.00001   0.00000   0.00008   0.00008  -3.06894
   D10        3.13586   0.00000   0.00000   0.00006   0.00006   3.13592
   D11        1.04599   0.00001   0.00000   0.00017   0.00017   1.04616
   D12       -1.02833   0.00001   0.00000   0.00011   0.00011  -1.02822
   D13       -1.00392   0.00000   0.00000   0.00007   0.00007  -1.00385
   D14       -3.09379   0.00001   0.00000   0.00018   0.00018  -3.09361
   D15        1.11508   0.00000   0.00000   0.00013   0.00013   1.11520
   D16        0.95003  -0.00001   0.00000  -0.00015  -0.00015   0.94989
   D17       -1.13983   0.00000   0.00000  -0.00004  -0.00004  -1.13987
   D18        3.06903  -0.00001   0.00000  -0.00009  -0.00009   3.06894
         Item               Value     Threshold  Converged?
 Maximum Force            0.000048     0.000450     YES
 RMS     Force            0.000014     0.000300     YES
 Maximum Displacement     0.000374     0.001800     YES
 RMS     Displacement     0.000124     0.001200     YES
 Predicted change in Energy=-2.408858D-08
 Optimization completed.
    -- Stationary point found.
                           ----------------------------
                           !   Optimized Parameters   !
                           ! (Angstroms and Degrees)  !
 --------------------------                            --------------------------
 ! Name  Definition              Value          Derivative Info.                !
 --------------------------------------------------------------------------------
 ! R1    R(1,2)                  1.5164         -DE/DX =    0.0                 !
 ! R2    R(1,5)                  1.0974         -DE/DX =    0.0                 !
 ! R3    R(1,6)                  1.1023         -DE/DX =    0.0                 !
 ! R4    R(1,7)                  1.0994         -DE/DX =    0.0                 !
 ! R5    R(2,3)                  1.5164         -DE/DX =    0.0                 !
 ! R6    R(2,4)                  2.1879         -DE/DX =    0.0                 !
 ! R7    R(2,8)                  1.0966         -DE/DX =    0.0                 !
 ! R8    R(3,9)                  1.0974         -DE/DX =    0.0                 !
 ! R9    R(3,10)                 1.1023         -DE/DX =    0.0                 !
 ! R10   R(3,11)                 1.0994         -DE/DX =    0.0                 !
 ! A1    A(2,1,5)              111.9489         -DE/DX =    0.0                 !
 ! A2    A(2,1,6)              108.8201         -DE/DX =    0.0                 !
 ! A3    A(2,1,7)              110.9285         -DE/DX =    0.0                 !
 ! A4    A(5,1,6)              108.357          -DE/DX =    0.0                 !
 ! A5    A(5,1,7)              108.5405         -DE/DX =    0.0                 !
 ! A6    A(6,1,7)              108.1409         -DE/DX =    0.0                 !
 ! A7    A(1,2,3)              113.3557         -DE/DX =    0.0                 !
 ! A8    A(1,2,4)              109.6066         -DE/DX =    0.0                 !
 ! A9    A(1,2,8)              110.7729         -DE/DX =    0.0                 !
 ! A10   A(3,2,4)              109.6067         -DE/DX =    0.0                 !
 ! A11   A(3,2,8)              110.7729         -DE/DX =    0.0                 !
 ! A12   A(4,2,8)              102.1382         -DE/DX =    0.0                 !
 ! A13   A(2,3,9)              111.9488         -DE/DX =    0.0                 !
 ! A14   A(2,3,10)             108.8201         -DE/DX =    0.0                 !
 ! A15   A(2,3,11)             110.9285         -DE/DX =    0.0                 !
 ! A16   A(9,3,10)             108.357          -DE/DX =    0.0                 !
 ! A17   A(9,3,11)             108.5405         -DE/DX =    0.0                 !
 ! A18   A(10,3,11)            108.1409         -DE/DX =    0.0                 !
 ! D1    D(5,1,2,3)           -179.6708         -DE/DX =    0.0                 !
 ! D2    D(5,1,2,4)             57.5209         -DE/DX =    0.0                 !
 ! D3    D(5,1,2,8)            -54.4325         -DE/DX =    0.0                 !
 ! D4    D(6,1,2,3)            -59.9303         -DE/DX =    0.0                 !
 ! D5    D(6,1,2,4)            177.2614         -DE/DX =    0.0                 !
 ! D6    D(6,1,2,8)             65.308          -DE/DX =    0.0                 !
 ! D7    D(7,1,2,3)             58.9195         -DE/DX =    0.0                 !
 ! D8    D(7,1,2,4)            -63.8888         -DE/DX =    0.0                 !
 ! D9    D(7,1,2,8)           -175.8421         -DE/DX =    0.0                 !
 ! D10   D(1,2,3,9)            179.6713         -DE/DX =    0.0                 !
 ! D11   D(1,2,3,10)            59.9308         -DE/DX =    0.0                 !
 ! D12   D(1,2,3,11)           -58.919          -DE/DX =    0.0                 !
 ! D13   D(4,2,3,9)            -57.5205         -DE/DX =    0.0                 !
 ! D14   D(4,2,3,10)          -177.261          -DE/DX =    0.0                 !
 ! D15   D(4,2,3,11)            63.8892         -DE/DX =    0.0                 !
 ! D16   D(8,2,3,9)             54.433          -DE/DX =    0.0                 !
 ! D17   D(8,2,3,10)           -65.3075         -DE/DX =    0.0                 !
 ! D18   D(8,2,3,11)           175.8427         -DE/DX =    0.0                 !
 --------------------------------------------------------------------------------
 GradGradGradGradGradGradGradGradGradGradGradGradGradGradGradGradGradGrad

 1\1\GINC-KATANA1\Freq\RM062X\def2SVP\C3H7I1\Z5358697\20-Mar-2025\0\\#N
  Geom=AllCheck Guess=TCheck SCRF=Check GenChk RM062X/def2SVP Freq\\2-i
 odopropane\\0,1\C,-0.2721419461,-0.5454983299,-1.1510528594\C,-0.18107
 41685,-0.3756110353,0.3530350757\C,0.2432307538,1.0173845205,0.7760776
 389\I,1.2119298039,-1.848839285,1.1752735461\H,-0.586201243,-1.5589945
 601,-1.4310928872\H,-1.0131399986,0.1689591563,-1.5453876896\H,0.69498
 24946,-0.3345308055,-1.6293450153\H,-1.125337249,-0.6574855464,0.83415
 59753\H,0.2960051323,1.1162973743,1.8677099233\H,-0.4937252874,1.74411
 25887,0.3968816673\H,1.225371708,1.2739059222,0.3539446248\\Version=ES
 64L-G09RevD.01\State=1-A\HF=-416.0035581\RMSD=9.447e-10\RMSF=3.980e-05
 \ZeroPoint=0.0938816\Thermal=0.0993836\Dipole=-0.5177714,0.6098961,-0.
 3561505\DipoleDeriv=-0.0400371,0.076379,-0.1301392,0.0798912,-0.110778
 3,0.0697456,-0.0032524,-0.0303114,-0.0354539,0.3378586,-0.415224,0.285
 5033,-0.3662612,0.5851765,-0.258002,0.2457954,-0.2449085,0.2791495,-0.
 039101,0.1577433,-0.0636133,0.0083264,-0.0896736,-0.006728,-0.0721731,
 0.0543096,-0.0574948,-0.2385963,0.1640212,-0.111614,0.1255255,-0.34116
 23,0.1145222,-0.0803944,0.1042274,-0.221583,0.0729601,-0.0388388,-0.00
 44304,-0.0529376,-0.0475716,-0.0636879,-0.0059573,-0.0163228,0.0300658
 ,-0.0005939,0.0878478,-0.054856,0.0965931,0.0026269,0.0594606,-0.08308
 91,0.0787517,-0.0340354,-0.0425166,-0.0435918,0.0824753,-0.0390889,0.0
 703121,0.008294,0.0075409,0.0044965,0.0294253,-0.0988773,0.0414658,-0.
 0062001,0.0602426,-0.0644006,0.0391051,-0.0214281,0.0441265,-0.0263715
 ,0.0791287,-0.0274932,-0.0082994,-0.013618,0.0493438,0.0016586,-0.0065
 91,-0.0457662,-0.0730178,0.0038312,0.0643781,-0.0438371,0.0981968,-0.1
 04384,0.0486817,-0.0501228,0.0407734,0.0685506,-0.0340563,-0.0666873,0
 .0550107,0.0031301,0.0505113,-0.0130498,0.069672,0.0106238,0.0407652\P
 olar=55.2572038,-12.2319578,65.5389242,8.9583972,-7.9831147,55.7400848
 \PG=C01 [X(C3H7I1)]\NImag=0\\0.58149272,0.00963530,0.59729475,-0.01540
 544,0.00666000,0.49197504,-0.07553884,-0.00916400,0.00082318,0.4739372
 1,-0.01130931,-0.07627575,-0.02215918,0.10886739,0.40638473,-0.0020419
 4,-0.01590965,-0.22445735,-0.08724903,0.02882742,0.47778503,0.00053990
 ,-0.00227617,-0.00123019,-0.08772942,-0.04650206,-0.00504843,0.5792636
 8,-0.00268128,-0.00414388,-0.00612262,-0.05078661,-0.19711329,-0.04243
 096,-0.01106479,0.49224288,-0.01146004,-0.03562990,-0.01207570,-0.0061
 7863,-0.03675343,-0.09142898,-0.00522763,-0.01460623,0.59925558,-0.008
 87068,0.00860721,-0.00630986,-0.04622082,0.02172902,-0.01062488,-0.003
 72138,0.00567142,-0.00195618,0.06424556,0.00764657,-0.00680228,0.00511
 510,0.02275673,-0.04165838,0.01143296,0.02115730,-0.02208713,0.0104478
 1,-0.05227953,0.07585306,-0.01882875,0.01770387,-0.01037379,-0.0114583
 2,0.01170781,-0.02648714,-0.00121710,0.00174359,-0.00023808,0.03100938
 ,-0.02996900,0.03767152,-0.07024242,-0.07497938,-0.01852896,-0.0023591
 5,-0.00060426,-0.00090556,0.00061787,0.00022104,-0.00054258,0.00000589
 ,-0.00041685,0.00027843,0.06980140,-0.07605405,-0.28945697,-0.06477451
 ,0.00144180,-0.00073103,0.00235596,0.00000868,0.00106437,-0.00090775,0
 .00006209,0.00075706,0.00017860,0.08052980,0.30603088,-0.01813721,-0.0
 6036718,-0.06168009,-0.01036334,-0.03148352,-0.00665540,0.00014936,0.0
 0100993,-0.00681374,0.00019543,-0.00036810,0.00035165,0.02128630,0.068
 92043,0.06861823,-0.16887652,0.11805412,-0.06179307,-0.00212382,0.0010
 7406,-0.00141116,0.00023328,0.00031597,0.00062576,0.00141477,-0.000439
 12,-0.00019002,0.00694688,-0.00639320,0.00433832,0.17703669,0.11834429
 ,-0.16112099,0.05943834,-0.00209224,0.00042162,0.00013886,-0.00054407,
 0.00025981,-0.00049830,-0.00061054,0.00143242,-0.00030521,0.01973242,-
 0.01491494,0.01026373,-0.12942135,0.16896536,-0.06295886,0.06066137,-0
 .07849391,-0.02065675,0.01877705,-0.01189332,0.00003448,0.00092811,0.0
 0135485,-0.00204188,0.00144278,-0.00404224,0.00647721,-0.00480300,0.00
 228016,0.06956274,-0.06615795,0.08522857,-0.26407215,-0.04875490,0.105
 01883,0.00279924,0.00138720,-0.00294404,0.00066946,0.00038955,-0.00045
 134,0.00128580,-0.00045141,-0.00008391,-0.00589459,0.00046358,0.002747
 67,-0.01524109,-0.00513787,0.00838110,0.27890336,-0.04842362,-0.057688
 84,0.02164395,0.00346705,-0.00033816,-0.00009213,0.00132878,0.00037459
 ,-0.00003048,-0.00058438,0.00012063,-0.00011534,-0.02485197,-0.0033399
 8,0.01331335,0.01783411,0.00437509,-0.01009131,0.05181592,0.05562244,0
 .10162504,0.02193796,-0.09334630,0.03044106,0.00709297,-0.01557847,0.0
 0038965,0.00151167,0.00158759,0.00036504,-0.00049704,0.00083630,-0.008
 09661,-0.00097102,0.00310071,-0.01057914,-0.00318914,0.00465443,-0.112
 07302,-0.02388686,0.10469998,0.00484983,0.00043153,-0.00267178,-0.2583
 7439,-0.07121436,0.11376582,-0.00503965,-0.00151020,0.00340502,-0.0112
 9521,0.00419266,-0.00019982,0.00015301,0.00014950,0.00018110,0.0003330
 8,-0.00013345,0.00057338,0.00145005,-0.00021061,-0.00099592,0.26621202
 ,0.00378868,0.00191384,-0.00236925,-0.06434185,-0.05958746,0.02585042,
 -0.02722336,-0.00707358,0.01223765,0.01789638,-0.00513038,-0.00008042,
 0.00069621,0.00014935,0.00038971,-0.00035593,0.00030098,0.00012791,-0.
 00017530,0.00075960,-0.00139199,0.07016779,0.07235167,0.02843604,0.007
 13479,-0.01389768,0.10819226,0.02768830,-0.10031822,-0.00957228,-0.003
 24509,0.00497925,-0.01131339,0.00358438,0.00079060,-0.00017790,-0.0003
 1242,0.00105833,-0.00032316,0.00038098,0.00088334,-0.00111698,-0.00070
 767,-0.00623704,-0.11342542,-0.03294531,0.11191797,0.00000161,-0.00194
 371,-0.00009482,-0.00192320,0.00147376,-0.00909615,-0.04777138,-0.0018
 3863,-0.01168675,0.00001873,-0.00018751,0.00043590,0.00053226,-0.00024
 148,-0.00053106,0.00015504,-0.00009205,0.00040979,0.00020330,-0.000089
 88,-0.00034057,0.00004988,0.00048986,-0.00040075,0.04610950,-0.0020328
 9,-0.00602422,-0.00019582,0.00019832,-0.00220934,-0.03207540,-0.001011
 10,-0.04673370,-0.01822199,-0.00020375,0.00052844,-0.00048342,-0.00031
 218,0.00005106,-0.00195920,-0.00025280,0.00013652,0.00006273,0.0001136
 7,-0.00003560,0.00017756,0.00028469,0.00088193,0.00068667,0.00267237,0
 .05169672,-0.00054228,-0.00219411,0.00089109,-0.00026365,0.00197025,-0
 .00561308,-0.01187800,-0.02269543,-0.32687449,0.00014365,0.00018703,0.
 00056745,0.00002136,-0.00001959,-0.00038966,0.00013020,0.00015031,0.00
 025383,-0.00007980,0.00016673,0.00024579,-0.00014999,-0.00021654,0.000
 42885,0.01416898,0.02485297,0.34664444,0.00024075,-0.00036272,-0.00009
 040,0.00506480,-0.00462881,0.00271880,-0.16942417,0.11689469,-0.063401
 29,0.00185683,-0.00189264,0.00030885,0.00010600,-0.00008102,0.00025540
 ,0.00023272,0.00005463,0.00018772,-0.00008732,0.00009424,-0.00005592,0
 .00046482,0.00047774,0.00046834,-0.00058954,-0.00066287,0.00066799,0.1
 7756666,0.00049839,0.00129411,0.00114321,0.01869241,-0.01995046,0.0088
 6769,0.11841191,-0.15941423,0.06099997,0.00035822,-0.00410281,-0.00018
 267,-0.00034519,0.00034083,0.00013956,-0.00051969,0.00015234,-0.000949
 01,-0.00004131,-0.00007819,0.00002228,-0.00040662,0.00078940,0.0002660
 9,-0.00323848,0.00210730,-0.00130370,-0.12782837,0.17377341,0.00050000
 ,-0.00028289,0.00031305,0.00561916,-0.00438034,0.00129016,-0.06370124,
 0.06026028,-0.07965296,0.00047430,-0.00137451,0.00105093,0.00005967,0.
 00019949,0.00009856,-0.00029059,-0.00025196,-0.00016404,0.00011818,-0.
 00003939,-0.00001540,0.00010858,0.00034213,0.00026322,-0.02056989,0.02
 006097,-0.00720569,0.06983586,-0.06535602,0.07989052,0.00047580,0.0007
 5271,0.00028250,-0.00753161,-0.00027263,0.00283658,-0.26763818,-0.0556
 1117,0.09687367,0.00128052,-0.00008618,-0.00005462,0.00033284,0.000114
 29,-0.00012199,-0.00011104,-0.00009976,0.00003107,-0.00001606,-0.00037
 965,-0.00067962,0.00119655,-0.00142020,-0.00076676,0.00321379,0.001206
 55,-0.00221846,-0.01543156,-0.00558127,0.00784597,0.28422896,0.0005879
 3,0.00101024,0.00162078,-0.02903901,-0.00894247,0.01303483,-0.05228512
 ,-0.05737582,0.02296266,-0.00064613,0.00108938,-0.00019780,0.00033036,
 0.00004938,0.00014130,0.00010384,-0.00000821,0.00000131,0.00039086,0.0
 0022843,-0.00080639,-0.00175093,-0.00535532,-0.00253071,0.00299575,-0.
 00039912,-0.00089791,0.01793513,0.00508831,-0.00917774,0.06137732,0.06
 461521,-0.00118657,0.00028575,0.00114564,-0.00890594,-0.00128731,0.003
 35677,0.09730140,0.02364676,-0.09009332,0.00005840,-0.00000141,-0.0001
 2719,0.00012862,0.00013381,0.00003127,-0.00006988,0.00003035,-0.000061
 66,0.00048332,-0.00016085,0.00005242,-0.00059097,-0.00194431,0.0001313
 9,0.02770532,0.00709492,-0.00894852,-0.01089535,-0.00364739,0.00413165
 ,-0.10402835,-0.02415032,0.09038155\\-0.00003313,0.00001431,-0.0000339
 7,0.00000694,-0.00004637,0.00003584,-0.00002342,0.00004381,0.00000208,
 0.00014070,0.00000329,-0.00004039,0.00001599,-0.00000761,-0.00000729,-
 0.00004508,-0.00002997,0.00002930,-0.00005171,0.00003991,-0.00000967,0
 .00006828,-0.00002670,0.00000327,0.00001878,0.00000094,0.00000324,-0.0
 0004285,-0.00002330,0.00003755,-0.00005449,0.00003169,-0.00001996\\\@


 Luck is a matter of preparation meeting opportunity.
                                    -- Oprah Winfrey
 Job cpu time:       0 days  0 hours  1 minutes 28.8 seconds.
 File lengths (MBytes):  RWF=    157 Int=      0 D2E=      0 Chk=      3 Scr=      2
 Normal termination of Gaussian 09 at Thu Mar 20 23:09:38 2025.
