 Entering Gaussian System, Link 0=g09
 Initial command:
 /apps/z_install_tree/linux-rocky8-ivybridge/gcc-12.2.0/gaussian-09-D.01-wczn3gur5lpur3omlkzwa2l5ecyxp5ef/g09/l1.exe "/srv/scratch/z5358697/gauss/Gau-2999458.inp" -scrdir="/srv/scratch/z5358697/gauss/"
 Entering Link 1 = /apps/z_install_tree/linux-rocky8-ivybridge/gcc-12.2.0/gaussian-09-D.01-wczn3gur5lpur3omlkzwa2l5ecyxp5ef/g09/l1.exe PID=   2999460.
  
 Copyright (c) 1988,1990,1992,1993,1995,1998,2003,2009,2013,
            Gaussian, Inc.  All Rights Reserved.
  
 This is part of the Gaussian(R) 09 program.  It is based on
 the Gaussian(R) 03 system (copyright 2003, Gaussian, Inc.),
 the Gaussian(R) 98 system (copyright 1998, Gaussian, Inc.),
 the Gaussian(R) 94 system (copyright 1995, Gaussian, Inc.),
 the Gaussian 92(TM) system (copyright 1992, Gaussian, Inc.),
 the Gaussian 90(TM) system (copyright 1990, Gaussian, Inc.),
 the Gaussian 88(TM) system (copyright 1988, Gaussian, Inc.),
 the Gaussian 86(TM) system (copyright 1986, Carnegie Mellon
 University), and the Gaussian 82(TM) system (copyright 1983,
 Carnegie Mellon University). Gaussian is a federally registered
 trademark of Gaussian, Inc.
  
 This software contains proprietary and confidential information,
 including trade secrets, belonging to Gaussian, Inc.
  
 This software is provided under written license and may be
 used, copied, transmitted, or stored only in accord with that
 written license.
  
 The following legend is applicable only to US Government
 contracts under FAR:
  
                    RESTRICTED RIGHTS LEGEND
  
 Use, reproduction and disclosure by the US Government is
 subject to restrictions as set forth in subparagraphs (a)
 and (c) of the Commercial Computer Software - Restricted
 Rights clause in FAR 52.227-19.
  
 Gaussian, Inc.
 340 Quinnipiac St., Bldg. 40, Wallingford CT 06492
  
  
 ---------------------------------------------------------------
 Warning -- This program may not be used in any manner that
 competes with the business of Gaussian, Inc. or will provide
 assistance to any competitor of Gaussian, Inc.  The licensee
 of this program is prohibited from giving any competitor of
 Gaussian, Inc. access to this program.  By using this program,
 the user acknowledges that Gaussian, Inc. is engaged in the
 business of creating and licensing software in the field of
 computational chemistry and represents and warrants to the
 licensee that it is not a competitor of Gaussian, Inc. and that
 it will not use this program in any manner prohibited above.
 ---------------------------------------------------------------
  

 Cite this work as:
 Gaussian 09, Revision D.01,
 M. J. Frisch, G. W. Trucks, H. B. Schlegel, G. E. Scuseria, 
 M. A. Robb, J. R. Cheeseman, G. Scalmani, V. Barone, B. Mennucci, 
 G. A. Petersson, H. Nakatsuji, M. Caricato, X. Li, H. P. Hratchian, 
 A. F. Izmaylov, J. Bloino, G. Zheng, J. L. Sonnenberg, M. Hada, 
 M. Ehara, K. Toyota, R. Fukuda, J. Hasegawa, M. Ishida, T. Nakajima, 
 Y. Honda, O. Kitao, H. Nakai, T. Vreven, J. A. Montgomery, Jr., 
 J. E. Peralta, F. Ogliaro, M. Bearpark, J. J. Heyd, E. Brothers, 
 K. N. Kudin, V. N. Staroverov, T. Keith, R. Kobayashi, J. Normand, 
 K. Raghavachari, A. Rendell, J. C. Burant, S. S. Iyengar, J. Tomasi, 
 M. Cossi, N. Rega, J. M. Millam, M. Klene, J. E. Knox, J. B. Cross, 
 V. Bakken, C. Adamo, J. Jaramillo, R. Gomperts, R. E. Stratmann, 
 O. Yazyev, A. J. Austin, R. Cammi, C. Pomelli, J. W. Ochterski, 
 R. L. Martin, K. Morokuma, V. G. Zakrzewski, G. A. Voth, 
 P. Salvador, J. J. Dannenberg, S. Dapprich, A. D. Daniels, 
 O. Farkas, J. B. Foresman, J. V. Ortiz, J. Cioslowski, 
 and D. J. Fox, Gaussian, Inc., Wallingford CT, 2013.
 
 ******************************************
 Gaussian 09:  ES64L-G09RevD.01 24-Apr-2013
                19-Mar-2025 
 ******************************************
 ---------------------------------
 #m062X/6-31+G(d) OPT Freq=noraman
 ---------------------------------
 1/14=-1,18=20,19=15,26=3,38=1/1,3;
 2/9=110,12=2,17=6,18=5,40=1/2;
 3/5=1,6=6,7=11,11=2,16=1,25=1,30=1,71=1,74=-55/1,2,3;
 4//1;
 5/5=2,38=5/2;
 6/7=2,8=2,9=2,10=2,28=1/1;
 7//1,2,3,16;
 1/14=-1,18=20,19=15,26=3/3(2);
 2/9=110/2;
 99//99;
 2/9=110/2;
 3/5=1,6=6,7=11,11=2,16=1,25=1,30=1,71=1,74=-55/1,2,3;
 4/5=5,16=3,69=1/1;
 5/5=2,38=5/2;
 7//1,2,3,16;
 1/14=-1,18=20,19=15,26=3/3(-5);
 2/9=110/2;
 6/7=2,8=2,9=2,10=2,19=2,28=1/1;
 99/9=1/99;
 ------------
 chloroethane
 ------------
 Symbolic Z-matrix:
 Charge =  0 Multiplicity = 1
 C                     0.1543   -0.7247    0.8062 
 C                     1.3672   -0.368     1.6395 
 Cl                    2.8321   -0.357     0.6342 
 H                    -0.7442   -0.7297    1.4311 
 H                    -0.0001    0.0001    0.0001 
 H                     0.2589   -1.7187    0.3589 
 H                     1.5144   -1.0958    2.4424 
 H                     1.255     0.6252    2.0832 
 

 GradGradGradGradGradGradGradGradGradGradGradGradGradGradGradGradGradGrad
 Berny optimization.
 Initialization pass.
                           ----------------------------
                           !    Initial Parameters    !
                           ! (Angstroms and Degrees)  !
 --------------------------                            --------------------------
 ! Name  Definition              Value          Derivative Info.                !
 --------------------------------------------------------------------------------
 ! R1    R(1,2)                  1.5142         estimate D2E/DX2                !
 ! R2    R(1,4)                  1.0945         estimate D2E/DX2                !
 ! R3    R(1,5)                  1.095          estimate D2E/DX2                !
 ! R4    R(1,6)                  1.095          estimate D2E/DX2                !
 ! R5    R(2,3)                  1.7767         estimate D2E/DX2                !
 ! R6    R(2,7)                  1.0936         estimate D2E/DX2                !
 ! R7    R(2,8)                  1.0936         estimate D2E/DX2                !
 ! A1    A(2,1,4)              110.149          estimate D2E/DX2                !
 ! A2    A(2,1,5)              111.2329         estimate D2E/DX2                !
 ! A3    A(2,1,6)              111.2309         estimate D2E/DX2                !
 ! A4    A(4,1,5)              107.9146         estimate D2E/DX2                !
 ! A5    A(4,1,6)              107.9092         estimate D2E/DX2                !
 ! A6    A(5,1,6)              108.2774         estimate D2E/DX2                !
 ! A7    A(1,2,3)              110.519          estimate D2E/DX2                !
 ! A8    A(1,2,7)              110.7982         estimate D2E/DX2                !
 ! A9    A(1,2,8)              110.7967         estimate D2E/DX2                !
 ! A10   A(3,2,7)              107.9719         estimate D2E/DX2                !
 ! A11   A(3,2,8)              107.9715         estimate D2E/DX2                !
 ! A12   A(7,2,8)              108.6839         estimate D2E/DX2                !
 ! D1    D(4,1,2,3)           -179.9992         estimate D2E/DX2                !
 ! D2    D(4,1,2,7)             60.3592         estimate D2E/DX2                !
 ! D3    D(4,1,2,8)            -60.3591         estimate D2E/DX2                !
 ! D4    D(5,1,2,3)            -60.3904         estimate D2E/DX2                !
 ! D5    D(5,1,2,7)            179.968          estimate D2E/DX2                !
 ! D6    D(5,1,2,8)             59.2497         estimate D2E/DX2                !
 ! D7    D(6,1,2,3)             60.4002         estimate D2E/DX2                !
 ! D8    D(6,1,2,7)            -59.2414         estimate D2E/DX2                !
 ! D9    D(6,1,2,8)           -179.9597         estimate D2E/DX2                !
 --------------------------------------------------------------------------------
 Trust Radius=3.00D-01 FncErr=1.00D-07 GrdErr=1.00D-06
 Number of steps in this run=     38 maximum allowed number of steps=    100.
 GradGradGradGradGradGradGradGradGradGradGradGradGradGradGradGradGradGrad

                          Input orientation:                          
 ---------------------------------------------------------------------
 Center     Atomic      Atomic             Coordinates (Angstroms)
 Number     Number       Type             X           Y           Z
 ---------------------------------------------------------------------
      1          6           0        0.154300   -0.724700    0.806200
      2          6           0        1.367200   -0.368000    1.639500
      3         17           0        2.832100   -0.357000    0.634200
      4          1           0       -0.744200   -0.729700    1.431100
      5          1           0       -0.000100    0.000100    0.000100
      6          1           0        0.258900   -1.718700    0.358900
      7          1           0        1.514400   -1.095800    2.442400
      8          1           0        1.255000    0.625200    2.083200
 ---------------------------------------------------------------------
                    Distance matrix (angstroms):
                    1          2          3          4          5
     1  C    0.000000
     2  C    1.514183   0.000000
     3  Cl   2.708394   1.776705   0.000000
     4  H    1.094453   2.152270   3.682917   0.000000
     5  H    1.094976   2.166250   2.924202   1.770326   0.000000
     6  H    1.095013   2.166254   2.924273   1.770295   1.774850
     7  H    2.159800   1.093622   2.356214   2.501606   3.075636
     8  H    2.159745   1.093574   2.356175   2.501557   2.511042
                    6          7          8
     6  H    0.000000
     7  H    2.511027   0.000000
     8  H    3.075596   1.777120   0.000000
 Stoichiometry    C2H5Cl
 Framework group  C1[X(C2H5Cl)]
 Deg. of freedom    18
 Full point group                 C1      NOp   1
 Largest Abelian subgroup         C1      NOp   1
 Largest concise Abelian subgroup C1      NOp   1
                         Standard orientation:                         
 ---------------------------------------------------------------------
 Center     Atomic      Atomic             Coordinates (Angstroms)
 Number     Number       Type             X           Y           Z
 ---------------------------------------------------------------------
      1          6           0       -1.585263   -0.355988   -0.000009
      2          6           0       -0.463948    0.661560   -0.000011
      3         17           0        1.115452   -0.152182    0.000003
      4          1           0       -2.554919    0.151551   -0.000032
      5          1           0       -1.540038   -0.995930   -0.887365
      6          1           0       -1.540117   -0.995808    0.887485
      7          1           0       -0.516174    1.296962    0.888553
      8          1           0       -0.516171    1.296891   -0.888567
 ---------------------------------------------------------------------
 Rotational constants (GHZ):     31.3211070      5.5889273      5.0435592
 Standard basis: 6-31+G(d) (6D, 7F)
 There are    71 symmetry adapted cartesian basis functions of A   symmetry.
 There are    71 symmetry adapted basis functions of A   symmetry.
    71 basis functions,   140 primitive gaussians,    71 cartesian basis functions
    17 alpha electrons       17 beta electrons
       nuclear repulsion energy       103.3578834824 Hartrees.
 NAtoms=    8 NActive=    8 NUniq=    8 SFac= 1.00D+00 NAtFMM=   60 NAOKFM=F Big=F
 Integral buffers will be    131072 words long.
 Raffenetti 2 integral format.
 Two-electron integral symmetry is turned on.
 One-electron integrals computed using PRISM.
 NBasis=    71 RedAO= T EigKep=  2.78D-04  NBF=    71
 NBsUse=    71 1.00D-06 EigRej= -1.00D+00 NBFU=    71
 ExpMin= 4.38D-02 ExpMax= 2.52D+04 ExpMxC= 3.78D+03 IAcc=2 IRadAn=         4 AccDes= 0.00D+00
 Harris functional with IExCor= 1009 and IRadAn=       4 diagonalized for initial guess.
 HarFok:  IExCor= 1009 AccDes= 0.00D+00 IRadAn=         4 IDoV= 1 UseB2=F ITyADJ=14
 ICtDFT=  3500011 ScaDFX=  1.000000  1.000000  1.000000  1.000000
 FoFCou: FMM=F IPFlag=           0 FMFlag=      100000 FMFlg1=           0
         NFxFlg=           0 DoJE=T BraDBF=F KetDBF=T FulRan=T
         wScrn=  0.000000 ICntrl=     500 IOpCl=  0 I1Cent=   200000004 NGrid=           0
         NMat0=    1 NMatS0=      1 NMatT0=    0 NMatD0=    1 NMtDS0=    0 NMtDT0=    0
 Petite list used in FoFCou.
 Keep R1 ints in memory in canonical form, NReq=4193186.
 Requested convergence on RMS density matrix=1.00D-08 within 128 cycles.
 Requested convergence on MAX density matrix=1.00D-06.
 Requested convergence on             energy=1.00D-06.
 No special actions if energy rises.
 SCF Done:  E(RM062X) =  -539.344052587     A.U. after   11 cycles
            NFock= 11  Conv=0.58D-08     -V/T= 2.0036

 **********************************************************************

            Population analysis using the SCF density.

 **********************************************************************

 Orbital symmetries:
       Occupied  (A) (A) (A) (A) (A) (A) (A) (A) (A) (A) (A) (A)
                 (A) (A) (A) (A) (A)
       Virtual   (A) (A) (A) (A) (A) (A) (A) (A) (A) (A) (A) (A)
                 (A) (A) (A) (A) (A) (A) (A) (A) (A) (A) (A) (A)
                 (A) (A) (A) (A) (A) (A) (A) (A) (A) (A) (A) (A)
                 (A) (A) (A) (A) (A) (A) (A) (A) (A) (A) (A) (A)
                 (A) (A) (A) (A) (A) (A)
 The electronic state is 1-A.
 Alpha  occ. eigenvalues -- -102.65364 -10.61017 -10.55449  -9.80124  -7.52523
 Alpha  occ. eigenvalues --   -7.51858  -7.51854  -0.96357  -0.83884  -0.70746
 Alpha  occ. eigenvalues --   -0.55210  -0.52472  -0.47624  -0.44262  -0.43517
 Alpha  occ. eigenvalues --   -0.35857  -0.35815
 Alpha virt. eigenvalues --    0.02711   0.03909   0.04346   0.05702   0.07237
 Alpha virt. eigenvalues --    0.08569   0.09218   0.09715   0.11440   0.12919
 Alpha virt. eigenvalues --    0.13707   0.14804   0.17745   0.22453   0.25118
 Alpha virt. eigenvalues --    0.25498   0.27785   0.32258   0.33353   0.60707
 Alpha virt. eigenvalues --    0.62262   0.64065   0.65008   0.67951   0.69011
 Alpha virt. eigenvalues --    0.71107   0.71514   0.75154   0.76204   0.93853
 Alpha virt. eigenvalues --    0.96201   0.97023   1.00158   1.00896   1.04217
 Alpha virt. eigenvalues --    1.05027   1.12433   1.14533   1.16271   1.27195
 Alpha virt. eigenvalues --    1.52926   1.58063   1.62412   1.97904   2.01116
 Alpha virt. eigenvalues --    2.04239   2.27164   2.32919   2.36306   2.36815
 Alpha virt. eigenvalues --    2.63108   4.16758   4.37230   4.46700
          Condensed to atoms (all electrons):
               1          2          3          4          5          6
     1  C    5.505544   0.125908  -0.068283   0.380100   0.400905   0.400912
     2  C    0.125908   5.575995   0.152276  -0.045345  -0.047342  -0.047349
     3  Cl  -0.068283   0.152276  17.039953   0.010139  -0.003604  -0.003606
     4  H    0.380100  -0.045345   0.010139   0.495704  -0.025333  -0.025339
     5  H    0.400905  -0.047342  -0.003604  -0.025333   0.474512  -0.026291
     6  H    0.400912  -0.047349  -0.003606  -0.025339  -0.026291   0.474529
     7  H   -0.050122   0.394914  -0.053891  -0.001940   0.003889  -0.004972
     8  H   -0.050120   0.394908  -0.053893  -0.001941  -0.004971   0.003889
               7          8
     1  C   -0.050122  -0.050120
     2  C    0.394914   0.394908
     3  Cl  -0.053891  -0.053893
     4  H   -0.001940  -0.001941
     5  H    0.003889  -0.004971
     6  H   -0.004972   0.003889
     7  H    0.497465  -0.034082
     8  H   -0.034082   0.497463
 Mulliken charges:
               1
     1  C   -0.644844
     2  C   -0.503966
     3  Cl  -0.019091
     4  H    0.213956
     5  H    0.228234
     6  H    0.228226
     7  H    0.248738
     8  H    0.248747
 Sum of Mulliken charges =   0.00000
 Mulliken charges with hydrogens summed into heavy atoms:
               1
     1  C    0.025571
     2  C   -0.006480
     3  Cl  -0.019091
 Electronic spatial extent (au):  <R**2>=            279.4758
 Charge=              0.0000 electrons
 Dipole moment (field-independent basis, Debye):
    X=             -2.0320    Y=              0.8450    Z=              0.0000  Tot=              2.2007
 Quadrupole moment (field-independent basis, Debye-Ang):
   XX=            -27.2068   YY=            -26.1405   ZZ=            -26.5326
   XY=             -0.5192   XZ=              0.0000   YZ=              0.0001
 Traceless Quadrupole moment (field-independent basis, Debye-Ang):
   XX=             -0.5801   YY=              0.4861   ZZ=              0.0940
   XY=             -0.5192   XZ=              0.0000   YZ=              0.0001
 Octapole moment (field-independent basis, Debye-Ang**2):
  XXX=              2.7978  YYY=              1.1451  ZZZ=              0.0000  XYY=              0.5646
  XXY=             -0.9905  XXZ=              0.0001  XZZ=              0.0559  YZZ=              0.6078
  YYZ=             -0.0002  XYZ=             -0.0001
 Hexadecapole moment (field-independent basis, Debye-Ang**3):
 XXXX=           -258.6589 YYYY=            -73.6794 ZZZZ=            -43.4538 XXXY=             -7.0528
 XXXZ=             -0.0002 YYYX=             -1.4615 YYYZ=              0.0006 ZZZX=             -0.0001
 ZZZY=             -0.0001 XXYY=            -56.2389 XXZZ=            -53.2429 YYZZ=            -17.2423
 XXYZ=              0.0000 YYXZ=              0.0002 ZZXY=              0.3119
 N-N= 1.033578834824D+02 E-N=-1.483357430748D+03  KE= 5.374316259273D+02
 Calling FoFJK, ICntrl=      2127 FMM=F ISym2X=0 I1Cent= 0 IOpClX= 0 NMat=1 NMatS=1 NMatT=0.
 ***** Axes restored to original set *****
 -------------------------------------------------------------------
 Center     Atomic                   Forces (Hartrees/Bohr)
 Number     Number              X              Y              Z
 -------------------------------------------------------------------
      1        6          -0.003933667   -0.001306269   -0.003271581
      2        6          -0.009750567   -0.000267730    0.005859960
      3       17           0.007697029    0.000540263   -0.002966598
      4        1          -0.000113767    0.000286751    0.001433028
      5        1           0.001002293   -0.000577872    0.000684797
      6        1           0.000756111    0.001080267    0.000348101
      7        1           0.001994785    0.001281860   -0.001296001
      8        1           0.002347783   -0.001037271   -0.000791704
 -------------------------------------------------------------------
 Cartesian Forces:  Max     0.009750567 RMS     0.003201805

 GradGradGradGradGradGradGradGradGradGradGradGradGradGradGradGradGradGrad
 Berny optimization.
 FormGI is forming the generalized inverse of G from B-inverse, IUseBI=4.
 Internal  Forces:  Max     0.008006615 RMS     0.002080421
 Search for a local minimum.
 Step number   1 out of a maximum of   38
 All quantities printed in internal units (Hartrees-Bohrs-Radians)
 Mixed Optimization -- RFO/linear search
 Second derivative matrix not updated -- first step.
 ITU=  0
     Eigenvalues ---    0.00578   0.05618   0.05752   0.05758   0.05952
     Eigenvalues ---    0.16000   0.16000   0.16000   0.16000   0.16000
     Eigenvalues ---    0.22321   0.28041   0.30934   0.34240   0.34244
     Eigenvalues ---    0.34303   0.34397   0.34403
 RFO step:  Lambda=-5.26262478D-04 EMin= 5.78333396D-03
 Linear search not attempted -- first point.
 Iteration  1 RMS(Cart)=  0.01102008 RMS(Int)=  0.00009737
 Iteration  2 RMS(Cart)=  0.00010752 RMS(Int)=  0.00004741
 Iteration  3 RMS(Cart)=  0.00000001 RMS(Int)=  0.00004741
 Variable       Old X    -DE/DX   Delta X   Delta X   Delta X     New X
                                 (Linear)    (Quad)   (Total)
    R1        2.86139   0.00241   0.00000   0.00777   0.00777   2.86917
    R2        2.06822   0.00089   0.00000   0.00259   0.00259   2.07080
    R3        2.06920  -0.00102   0.00000  -0.00296  -0.00296   2.06624
    R4        2.06928  -0.00104   0.00000  -0.00303  -0.00303   2.06625
    R5        3.35749   0.00801   0.00000   0.02850   0.02850   3.38599
    R6        2.06665  -0.00153   0.00000  -0.00443  -0.00443   2.06221
    R7        2.06656  -0.00149   0.00000  -0.00434  -0.00434   2.06222
    A1        1.92246  -0.00114   0.00000  -0.00584  -0.00585   1.91662
    A2        1.94138  -0.00070   0.00000  -0.00503  -0.00505   1.93633
    A3        1.94135  -0.00070   0.00000  -0.00500  -0.00502   1.93633
    A4        1.88347   0.00109   0.00000   0.00798   0.00797   1.89144
    A5        1.88337   0.00110   0.00000   0.00805   0.00804   1.89141
    A6        1.88980   0.00049   0.00000   0.00072   0.00069   1.89049
    A7        1.92892   0.00371   0.00000   0.01435   0.01430   1.94322
    A8        1.93379   0.00159   0.00000   0.01235   0.01224   1.94604
    A9        1.93377   0.00160   0.00000   0.01239   0.01228   1.94605
   A10        1.88447  -0.00299   0.00000  -0.01932  -0.01936   1.86510
   A11        1.88446  -0.00299   0.00000  -0.01931  -0.01935   1.86511
   A12        1.89689  -0.00122   0.00000  -0.00229  -0.00245   1.89444
    D1       -3.14158   0.00000   0.00000  -0.00001  -0.00001  -3.14159
    D2        1.05347   0.00030   0.00000   0.00682   0.00685   1.06032
    D3       -1.05346  -0.00029   0.00000  -0.00680  -0.00683  -1.06030
    D4       -1.05401   0.00017   0.00000   0.00291   0.00290  -1.05111
    D5        3.14103   0.00046   0.00000   0.00974   0.00977  -3.13238
    D6        1.03410  -0.00013   0.00000  -0.00388  -0.00392   1.03018
    D7        1.05418  -0.00017   0.00000  -0.00304  -0.00303   1.05115
    D8       -1.03396   0.00013   0.00000   0.00380   0.00383  -1.03013
    D9       -3.14089  -0.00047   0.00000  -0.00983  -0.00985   3.13244
         Item               Value     Threshold  Converged?
 Maximum Force            0.008007     0.000450     NO 
 RMS     Force            0.002080     0.000300     NO 
 Maximum Displacement     0.035580     0.001800     NO 
 RMS     Displacement     0.011055     0.001200     NO 
 Predicted change in Energy=-2.640882D-04
 GradGradGradGradGradGradGradGradGradGradGradGradGradGradGradGradGradGrad

                          Input orientation:                          
 ---------------------------------------------------------------------
 Center     Atomic      Atomic             Coordinates (Angstroms)
 Number     Number       Type             X           Y           Z
 ---------------------------------------------------------------------
      1          6           0        0.143582   -0.726942    0.803314
      2          6           0        1.360235   -0.369314    1.638230
      3         17           0        2.850928   -0.352100    0.644230
      4          1           0       -0.752171   -0.730198    1.434536
      5          1           0       -0.004768   -0.002074   -0.001732
      6          1           0        0.253953   -1.718816    0.356603
      7          1           0        1.522221   -1.092499    2.439259
      8          1           0        1.263620    0.623343    2.081160
 ---------------------------------------------------------------------
                    Distance matrix (angstroms):
                    1          2          3          4          5
     1  C    0.000000
     2  C    1.518297   0.000000
     3  Cl   2.737798   1.791786   0.000000
     4  H    1.095822   2.152670   3.708081   0.000000
     5  H    1.093408   2.165080   2.948692   1.775287   0.000000
     6  H    1.093411   2.165083   2.948715   1.775272   1.772721
     7  H    2.170390   1.091277   2.352825   2.512686   3.078825
     8  H    2.170401   1.091279   2.352829   2.512689   2.517616
                    6          7          8
     6  H    0.000000
     7  H    2.517585   0.000000
     8  H    3.078836   1.771786   0.000000
 Stoichiometry    C2H5Cl
 Framework group  C1[X(C2H5Cl)]
 Deg. of freedom    18
 Full point group                 C1      NOp   1
 Largest Abelian subgroup         C1      NOp   1
 Largest concise Abelian subgroup C1      NOp   1
                         Standard orientation:                         
 ---------------------------------------------------------------------
 Center     Atomic      Atomic             Coordinates (Angstroms)
 Number     Number       Type             X           Y           Z
 ---------------------------------------------------------------------
      1          6           0       -1.603917   -0.354655   -0.000003
      2          6           0       -0.472153    0.657440   -0.000001
      3         17           0        1.126371   -0.152015    0.000000
      4          1           0       -2.568028    0.166224   -0.000010
      5          1           0       -1.557202   -0.993203   -0.886352
      6          1           0       -1.557230   -0.993177    0.886370
      7          1           0       -0.504721    1.293843    0.885898
      8          1           0       -0.504715    1.293861   -0.885889
 ---------------------------------------------------------------------
 Rotational constants (GHZ):     31.5443307      5.4803548      4.9592283
 Standard basis: 6-31+G(d) (6D, 7F)
 There are    71 symmetry adapted cartesian basis functions of A   symmetry.
 There are    71 symmetry adapted basis functions of A   symmetry.
    71 basis functions,   140 primitive gaussians,    71 cartesian basis functions
    17 alpha electrons       17 beta electrons
       nuclear repulsion energy       102.7976630771 Hartrees.
 NAtoms=    8 NActive=    8 NUniq=    8 SFac= 1.00D+00 NAtFMM=   60 NAOKFM=F Big=F
 Integral buffers will be    131072 words long.
 Raffenetti 2 integral format.
 Two-electron integral symmetry is turned on.
 One-electron integrals computed using PRISM.
 NBasis=    71 RedAO= T EigKep=  2.82D-04  NBF=    71
 NBsUse=    71 1.00D-06 EigRej= -1.00D+00 NBFU=    71
 Initial guess from the checkpoint file:  "/srv/scratch/z5358697/gauss/Gau-2999460.chk"
 B after Tr=     0.000000    0.000000    0.000000
         Rot=    1.000000   -0.000013   -0.000001    0.000692 Ang=  -0.08 deg.
 ExpMin= 4.38D-02 ExpMax= 2.52D+04 ExpMxC= 3.78D+03 IAcc=2 IRadAn=         4 AccDes= 0.00D+00
 Harris functional with IExCor= 1009 and IRadAn=       4 diagonalized for initial guess.
 HarFok:  IExCor= 1009 AccDes= 0.00D+00 IRadAn=         4 IDoV= 1 UseB2=F ITyADJ=14
 ICtDFT=  3500011 ScaDFX=  1.000000  1.000000  1.000000  1.000000
 FoFCou: FMM=F IPFlag=           0 FMFlag=      100000 FMFlg1=           0
         NFxFlg=           0 DoJE=T BraDBF=F KetDBF=T FulRan=T
         wScrn=  0.000000 ICntrl=     500 IOpCl=  0 I1Cent=   200000004 NGrid=           0
         NMat0=    1 NMatS0=      1 NMatT0=    0 NMatD0=    1 NMtDS0=    0 NMtDT0=    0
 Petite list used in FoFCou.
 Keep R1 ints in memory in canonical form, NReq=4193186.
 Requested convergence on RMS density matrix=1.00D-08 within 128 cycles.
 Requested convergence on MAX density matrix=1.00D-06.
 Requested convergence on             energy=1.00D-06.
 No special actions if energy rises.
 SCF Done:  E(RM062X) =  -539.344367851     A.U. after   10 cycles
            NFock= 10  Conv=0.42D-08     -V/T= 2.0036
 Calling FoFJK, ICntrl=      2127 FMM=F ISym2X=0 I1Cent= 0 IOpClX= 0 NMat=1 NMatS=1 NMatT=0.
 ***** Axes restored to original set *****
 -------------------------------------------------------------------
 Center     Atomic                   Forces (Hartrees/Bohr)
 Number     Number              X              Y              Z
 -------------------------------------------------------------------
      1        6           0.000335951   -0.000074403   -0.000588384
      2        6          -0.004392025   -0.000173579    0.002342679
      3       17           0.001927790   -0.000015868   -0.001468894
      4        1           0.000595597    0.000162366    0.000341143
      5        1           0.000201498    0.000046625    0.000157349
      6        1           0.000198411    0.000079668    0.000150628
      7        1           0.000581539   -0.000110921   -0.000445921
      8        1           0.000551239    0.000086111   -0.000488599
 -------------------------------------------------------------------
 Cartesian Forces:  Max     0.004392025 RMS     0.001170466

 GradGradGradGradGradGradGradGradGradGradGradGradGradGradGradGradGradGrad
 Berny optimization.
 Using GEDIIS/GDIIS optimizer.
 FormGI is forming the generalized inverse of G from B-inverse, IUseBI=4.
 Internal  Forces:  Max     0.002398213 RMS     0.000592768
 Search for a local minimum.
 Step number   2 out of a maximum of   38
 All quantities printed in internal units (Hartrees-Bohrs-Radians)
 Mixed Optimization -- En-DIIS/RFO-DIIS
 Update second derivatives using D2CorX and points    1    2
 DE= -3.15D-04 DEPred=-2.64D-04 R= 1.19D+00
 TightC=F SS=  1.41D+00  RLast= 5.24D-02 DXNew= 5.0454D-01 1.5714D-01
 Trust test= 1.19D+00 RLast= 5.24D-02 DXMaxT set to 3.00D-01
 ITU=  1  0
 Use linear search instead of GDIIS.
     Eigenvalues ---    0.00578   0.05230   0.05637   0.05719   0.05805
     Eigenvalues ---    0.14298   0.16000   0.16000   0.16000   0.16251
     Eigenvalues ---    0.23428   0.24245   0.32824   0.34221   0.34242
     Eigenvalues ---    0.34329   0.34400   0.35324
 RFO step:  Lambda=-4.82326962D-05 EMin= 5.78333366D-03
 Quartic linear search produced a step of  0.21826.
 Iteration  1 RMS(Cart)=  0.00289869 RMS(Int)=  0.00003088
 Iteration  2 RMS(Cart)=  0.00001855 RMS(Int)=  0.00002678
 Iteration  3 RMS(Cart)=  0.00000000 RMS(Int)=  0.00002678
 Variable       Old X    -DE/DX   Delta X   Delta X   Delta X     New X
                                 (Linear)    (Quad)   (Total)
    R1        2.86917  -0.00114   0.00170  -0.00552  -0.00382   2.86534
    R2        2.07080  -0.00031   0.00056  -0.00145  -0.00088   2.06992
    R3        2.06624  -0.00010  -0.00065   0.00003  -0.00062   2.06563
    R4        2.06625  -0.00010  -0.00066   0.00003  -0.00063   2.06562
    R5        3.38599   0.00240   0.00622   0.00664   0.01286   3.39885
    R6        2.06221  -0.00016  -0.00097   0.00002  -0.00095   2.06127
    R7        2.06222  -0.00016  -0.00095   0.00000  -0.00094   2.06127
    A1        1.91662  -0.00077  -0.00128  -0.00549  -0.00678   1.90984
    A2        1.93633  -0.00016  -0.00110  -0.00034  -0.00145   1.93487
    A3        1.93633  -0.00016  -0.00109  -0.00035  -0.00146   1.93487
    A4        1.89144   0.00045   0.00174   0.00194   0.00367   1.89511
    A5        1.89141   0.00045   0.00176   0.00196   0.00370   1.89512
    A6        1.89049   0.00024   0.00015   0.00250   0.00265   1.89314
    A7        1.94322  -0.00056   0.00312  -0.00694  -0.00382   1.93940
    A8        1.94604   0.00044   0.00267   0.00274   0.00536   1.95140
    A9        1.94605   0.00044   0.00268   0.00272   0.00534   1.95140
   A10        1.86510  -0.00021  -0.00423  -0.00232  -0.00654   1.85856
   A11        1.86511  -0.00021  -0.00422  -0.00233  -0.00655   1.85856
   A12        1.89444   0.00005  -0.00054   0.00599   0.00535   1.89979
    D1       -3.14159   0.00000   0.00000   0.00001   0.00001  -3.14158
    D2        1.06032   0.00034   0.00150   0.00577   0.00729   1.06761
    D3       -1.06030  -0.00034  -0.00149  -0.00577  -0.00728  -1.06758
    D4       -1.05111  -0.00004   0.00063  -0.00134  -0.00071  -1.05181
    D5       -3.13238   0.00030   0.00213   0.00441   0.00657  -3.12581
    D6        1.03018  -0.00038  -0.00086  -0.00712  -0.00800   1.02219
    D7        1.05115   0.00004  -0.00066   0.00135   0.00069   1.05184
    D8       -1.03013   0.00038   0.00084   0.00711   0.00797  -1.02216
    D9        3.13244  -0.00030  -0.00215  -0.00442  -0.00660   3.12584
         Item               Value     Threshold  Converged?
 Maximum Force            0.002398     0.000450     NO 
 RMS     Force            0.000593     0.000300     NO 
 Maximum Displacement     0.010970     0.001800     NO 
 RMS     Displacement     0.002900     0.001200     NO 
 Predicted change in Energy=-3.631880D-05
 GradGradGradGradGradGradGradGradGradGradGradGradGradGradGradGradGradGrad

                          Input orientation:                          
 ---------------------------------------------------------------------
 Center     Atomic      Atomic             Coordinates (Angstroms)
 Number     Number       Type             X           Y           Z
 ---------------------------------------------------------------------
      1          6           0        0.142591   -0.727296    0.802354
      2          6           0        1.354430   -0.369699    1.640603
      3         17           0        2.850589   -0.352507    0.642532
      4          1           0       -0.750852   -0.729680    1.436039
      5          1           0       -0.002560   -0.001124   -0.001656
      6          1           0        0.256341   -1.718990    0.356904
      7          1           0        1.523024   -1.093826    2.438730
      8          1           0        1.264038    0.624522    2.080094
 ---------------------------------------------------------------------
                    Distance matrix (angstroms):
                    1          2          3          4          5
     1  C    0.000000
     2  C    1.516274   0.000000
     3  Cl   2.738478   1.798592   0.000000
     4  H    1.095355   2.145610   3.707059   0.000000
     5  H    1.093082   2.162009   2.945998   1.776993   0.000000
     6  H    1.093079   2.162005   2.946011   1.776993   1.773882
     7  H    2.172018   1.090775   2.353361   2.511673   3.078456
     8  H    2.172020   1.090779   2.353362   2.511663   2.515827
                    6          7          8
     6  H    0.000000
     7  H    2.515813   0.000000
     8  H    3.078455   1.774377   0.000000
 Stoichiometry    C2H5Cl
 Framework group  C1[X(C2H5Cl)]
 Deg. of freedom    18
 Full point group                 C1      NOp   1
 Largest Abelian subgroup         C1      NOp   1
 Largest concise Abelian subgroup C1      NOp   1
                         Standard orientation:                         
 ---------------------------------------------------------------------
 Center     Atomic      Atomic             Coordinates (Angstroms)
 Number     Number       Type             X           Y           Z
 ---------------------------------------------------------------------
      1          6           0       -1.603214   -0.357237    0.000001
      2          6           0       -0.478038    0.659162    0.000001
      3         17           0        1.127521   -0.151462    0.000000
      4          1           0       -2.565995    0.165119   -0.000017
      5          1           0       -1.552444   -0.994102   -0.886934
      6          1           0       -1.552460   -0.994079    0.886948
      7          1           0       -0.504722    1.293180    0.887187
      8          1           0       -0.504721    1.293181   -0.887190
 ---------------------------------------------------------------------
 Rotational constants (GHZ):     31.4460448      5.4744541      4.9526158
 Standard basis: 6-31+G(d) (6D, 7F)
 There are    71 symmetry adapted cartesian basis functions of A   symmetry.
 There are    71 symmetry adapted basis functions of A   symmetry.
    71 basis functions,   140 primitive gaussians,    71 cartesian basis functions
    17 alpha electrons       17 beta electrons
       nuclear repulsion energy       102.7118411161 Hartrees.
 NAtoms=    8 NActive=    8 NUniq=    8 SFac= 1.00D+00 NAtFMM=   60 NAOKFM=F Big=F
 Integral buffers will be    131072 words long.
 Raffenetti 2 integral format.
 Two-electron integral symmetry is turned on.
 One-electron integrals computed using PRISM.
 NBasis=    71 RedAO= T EigKep=  2.81D-04  NBF=    71
 NBsUse=    71 1.00D-06 EigRej= -1.00D+00 NBFU=    71
 Initial guess from the checkpoint file:  "/srv/scratch/z5358697/gauss/Gau-2999460.chk"
 B after Tr=     0.000000    0.000000    0.000000
         Rot=    1.000000    0.000001    0.000000   -0.000620 Ang=   0.07 deg.
 Keep R1 ints in memory in canonical form, NReq=4193186.
 Requested convergence on RMS density matrix=1.00D-08 within 128 cycles.
 Requested convergence on MAX density matrix=1.00D-06.
 Requested convergence on             energy=1.00D-06.
 No special actions if energy rises.
 SCF Done:  E(RM062X) =  -539.344406295     A.U. after    9 cycles
            NFock=  9  Conv=0.22D-08     -V/T= 2.0036
 Calling FoFJK, ICntrl=      2127 FMM=F ISym2X=0 I1Cent= 0 IOpClX= 0 NMat=1 NMatS=1 NMatT=0.
 ***** Axes restored to original set *****
 -------------------------------------------------------------------
 Center     Atomic                   Forces (Hartrees/Bohr)
 Number     Number              X              Y              Z
 -------------------------------------------------------------------
      1        6           0.000393017    0.000083076    0.000106433
      2        6          -0.000632100    0.000014760    0.000515754
      3       17           0.000418293   -0.000024894   -0.000420521
      4        1          -0.000124901   -0.000033142   -0.000067491
      5        1          -0.000113081    0.000009837    0.000023735
      6        1          -0.000106972   -0.000033122    0.000031362
      7        1           0.000095322   -0.000090302   -0.000076836
      8        1           0.000070422    0.000073787   -0.000112436
 -------------------------------------------------------------------
 Cartesian Forces:  Max     0.000632100 RMS     0.000231418

 GradGradGradGradGradGradGradGradGradGradGradGradGradGradGradGradGradGrad
 Berny optimization.
 Using GEDIIS/GDIIS optimizer.
 FormGI is forming the generalized inverse of G from B-inverse, IUseBI=4.
 Internal  Forces:  Max     0.000561432 RMS     0.000132023
 Search for a local minimum.
 Step number   3 out of a maximum of   38
 All quantities printed in internal units (Hartrees-Bohrs-Radians)
 Mixed Optimization -- En-DIIS/RFO-DIIS
 Swapping is turned off.
 Update second derivatives using D2CorX and points    1    2    3
 DE= -3.84D-05 DEPred=-3.63D-05 R= 1.06D+00
 TightC=F SS=  1.41D+00  RLast= 2.78D-02 DXNew= 5.0454D-01 8.3537D-02
 Trust test= 1.06D+00 RLast= 2.78D-02 DXMaxT set to 3.00D-01
 ITU=  1  1  0
     Eigenvalues ---    0.00578   0.04785   0.05661   0.05727   0.05853
     Eigenvalues ---    0.15456   0.16000   0.16000   0.16000   0.16630
     Eigenvalues ---    0.21213   0.24042   0.32813   0.34242   0.34264
     Eigenvalues ---    0.34396   0.34401   0.35345
 En-DIIS/RFO-DIIS IScMMF=        0 using points:     3    2
 RFO step:  Lambda=-1.22091382D-06.
 DidBck=F Rises=F RFO-DIIS coefs:    1.14259   -0.14259
 Iteration  1 RMS(Cart)=  0.00090449 RMS(Int)=  0.00000321
 Iteration  2 RMS(Cart)=  0.00000091 RMS(Int)=  0.00000310
 Variable       Old X    -DE/DX   Delta X   Delta X   Delta X     New X
                                 (Linear)    (Quad)   (Total)
    R1        2.86534  -0.00009  -0.00054   0.00015  -0.00039   2.86495
    R2        2.06992   0.00004  -0.00013   0.00026   0.00014   2.07006
    R3        2.06563   0.00002  -0.00009   0.00007  -0.00002   2.06560
    R4        2.06562   0.00002  -0.00009   0.00007  -0.00002   2.06560
    R5        3.39885   0.00056   0.00183   0.00147   0.00330   3.40215
    R6        2.06127   0.00003  -0.00014   0.00011  -0.00002   2.06125
    R7        2.06127   0.00002  -0.00013   0.00011  -0.00003   2.06125
    A1        1.90984   0.00021  -0.00097   0.00201   0.00105   1.91088
    A2        1.93487   0.00004  -0.00021   0.00040   0.00019   1.93506
    A3        1.93487   0.00004  -0.00021   0.00040   0.00019   1.93507
    A4        1.89511  -0.00014   0.00052  -0.00128  -0.00076   1.89435
    A5        1.89512  -0.00014   0.00053  -0.00129  -0.00076   1.89435
    A6        1.89314  -0.00003   0.00038  -0.00034   0.00004   1.89318
    A7        1.93940  -0.00019  -0.00055  -0.00077  -0.00132   1.93808
    A8        1.95140   0.00003   0.00076   0.00002   0.00078   1.95218
    A9        1.95140   0.00003   0.00076   0.00003   0.00078   1.95218
   A10        1.85856   0.00003  -0.00093  -0.00010  -0.00103   1.85753
   A11        1.85856   0.00003  -0.00093  -0.00010  -0.00103   1.85753
   A12        1.89979   0.00007   0.00076   0.00094   0.00170   1.90149
    D1       -3.14158   0.00000   0.00000  -0.00001  -0.00001  -3.14158
    D2        1.06761   0.00007   0.00104   0.00062   0.00167   1.06927
    D3       -1.06758  -0.00007  -0.00104  -0.00064  -0.00168  -1.06926
    D4       -1.05181  -0.00001  -0.00010  -0.00006  -0.00016  -1.05198
    D5       -3.12581   0.00006   0.00094   0.00057   0.00151  -3.12430
    D6        1.02219  -0.00008  -0.00114  -0.00069  -0.00183   1.02035
    D7        1.05184   0.00001   0.00010   0.00005   0.00014   1.05199
    D8       -1.02216   0.00008   0.00114   0.00068   0.00182  -1.02034
    D9        3.12584  -0.00006  -0.00094  -0.00058  -0.00153   3.12431
         Item               Value     Threshold  Converged?
 Maximum Force            0.000561     0.000450     NO 
 RMS     Force            0.000132     0.000300     YES
 Maximum Displacement     0.002173     0.001800     NO 
 RMS     Displacement     0.000904     0.001200     YES
 Predicted change in Energy=-1.693365D-06
 GradGradGradGradGradGradGradGradGradGradGradGradGradGradGradGradGradGrad

                          Input orientation:                          
 ---------------------------------------------------------------------
 Center     Atomic      Atomic             Coordinates (Angstroms)
 Number     Number       Type             X           Y           Z
 ---------------------------------------------------------------------
      1          6           0        0.142669   -0.727225    0.802638
      2          6           0        1.353757   -0.369595    1.641579
      3         17           0        2.850735   -0.352689    0.641582
      4          1           0       -0.751876   -0.730080    1.434889
      5          1           0       -0.002327   -0.001019   -0.001355
      6          1           0        0.256579   -1.718896    0.357198
      7          1           0        1.523601   -1.094233    2.438962
      8          1           0        1.264463    0.625136    2.080106
 ---------------------------------------------------------------------
                    Distance matrix (angstroms):
                    1          2          3          4          5
     1  C    0.000000
     2  C    1.516066   0.000000
     3  Cl   2.738583   1.800339   0.000000
     4  H    1.095427   2.146244   3.708175   0.000000
     5  H    1.093071   2.161954   2.945675   1.776555   0.000000
     6  H    1.093071   2.161955   2.945682   1.776557   1.773892
     7  H    2.172377   1.090765   2.354091   2.513676   3.078753
     8  H    2.172378   1.090765   2.354092   2.513670   2.515811
                    6          7          8
     6  H    0.000000
     7  H    2.515808   0.000000
     8  H    3.078754   1.775432   0.000000
 Stoichiometry    C2H5Cl
 Framework group  C1[X(C2H5Cl)]
 Deg. of freedom    18
 Full point group                 C1      NOp   1
 Largest Abelian subgroup         C1      NOp   1
 Largest concise Abelian subgroup C1      NOp   1
                         Standard orientation:                         
 ---------------------------------------------------------------------
 Center     Atomic      Atomic             Coordinates (Angstroms)
 Number     Number       Type             X           Y           Z
 ---------------------------------------------------------------------
      1          6           0       -1.602963   -0.357625    0.000000
      2          6           0       -0.479218    0.660047    0.000000
      3         17           0        1.127850   -0.151467    0.000000
      4          1           0       -2.567006    0.162548   -0.000008
      5          1           0       -1.551660   -0.994416   -0.886944
      6          1           0       -1.551667   -0.994410    0.886949
      7          1           0       -0.505012    1.293341    0.887717
      8          1           0       -0.505013    1.293342   -0.887715
 ---------------------------------------------------------------------
 Rotational constants (GHZ):     31.4060707      5.4725161      4.9502223
 Standard basis: 6-31+G(d) (6D, 7F)
 There are    71 symmetry adapted cartesian basis functions of A   symmetry.
 There are    71 symmetry adapted basis functions of A   symmetry.
    71 basis functions,   140 primitive gaussians,    71 cartesian basis functions
    17 alpha electrons       17 beta electrons
       nuclear repulsion energy       102.6799307583 Hartrees.
 NAtoms=    8 NActive=    8 NUniq=    8 SFac= 1.00D+00 NAtFMM=   60 NAOKFM=F Big=F
 Integral buffers will be    131072 words long.
 Raffenetti 2 integral format.
 Two-electron integral symmetry is turned on.
 One-electron integrals computed using PRISM.
 NBasis=    71 RedAO= T EigKep=  2.81D-04  NBF=    71
 NBsUse=    71 1.00D-06 EigRej= -1.00D+00 NBFU=    71
 Initial guess from the checkpoint file:  "/srv/scratch/z5358697/gauss/Gau-2999460.chk"
 B after Tr=     0.000000    0.000000    0.000000
         Rot=    1.000000   -0.000001    0.000000   -0.000144 Ang=  -0.02 deg.
 Keep R1 ints in memory in canonical form, NReq=4193186.
 Requested convergence on RMS density matrix=1.00D-08 within 128 cycles.
 Requested convergence on MAX density matrix=1.00D-06.
 Requested convergence on             energy=1.00D-06.
 No special actions if energy rises.
 SCF Done:  E(RM062X) =  -539.344407759     A.U. after    8 cycles
            NFock=  8  Conv=0.38D-08     -V/T= 2.0036
 Calling FoFJK, ICntrl=      2127 FMM=F ISym2X=0 I1Cent= 0 IOpClX= 0 NMat=1 NMatS=1 NMatT=0.
 ***** Axes restored to original set *****
 -------------------------------------------------------------------
 Center     Atomic                   Forces (Hartrees/Bohr)
 Number     Number              X              Y              Z
 -------------------------------------------------------------------
      1        6           0.000165508    0.000043853    0.000088199
      2        6          -0.000056176    0.000000964    0.000045468
      3       17          -0.000015508   -0.000020453   -0.000086891
      4        1          -0.000043917   -0.000004557    0.000010901
      5        1          -0.000062644    0.000010577    0.000005709
      6        1          -0.000057354   -0.000024902    0.000013136
      7        1           0.000035141   -0.000003482   -0.000038007
      8        1           0.000034950   -0.000002001   -0.000038515
 -------------------------------------------------------------------
 Cartesian Forces:  Max     0.000165508 RMS     0.000052499

 GradGradGradGradGradGradGradGradGradGradGradGradGradGradGradGradGradGrad
 Berny optimization.
 Using GEDIIS/GDIIS optimizer.
 FormGI is forming the generalized inverse of G from B-inverse, IUseBI=4.
 Internal  Forces:  Max     0.000072799 RMS     0.000029495
 Search for a local minimum.
 Step number   4 out of a maximum of   38
 All quantities printed in internal units (Hartrees-Bohrs-Radians)
 Mixed Optimization -- En-DIIS/RFO-DIIS
 Swapping is turned off.
 Update second derivatives using D2CorX and points    1    2    3    4
 DE= -1.46D-06 DEPred=-1.69D-06 R= 8.64D-01
 TightC=F SS=  1.41D+00  RLast= 6.19D-03 DXNew= 5.0454D-01 1.8566D-02
 Trust test= 8.64D-01 RLast= 6.19D-03 DXMaxT set to 3.00D-01
 ITU=  1  1  1  0
     Eigenvalues ---    0.00578   0.04479   0.05671   0.05713   0.05847
     Eigenvalues ---    0.15405   0.15634   0.16000   0.16000   0.16022
     Eigenvalues ---    0.21070   0.23706   0.32941   0.34213   0.34242
     Eigenvalues ---    0.34400   0.34481   0.35224
 En-DIIS/RFO-DIIS IScMMF=        0 using points:     4    3    2
 RFO step:  Lambda=-6.02602203D-08.
 DidBck=F Rises=F RFO-DIIS coefs:    1.23443   -0.25997    0.02554
 Iteration  1 RMS(Cart)=  0.00027990 RMS(Int)=  0.00000046
 Iteration  2 RMS(Cart)=  0.00000010 RMS(Int)=  0.00000045
 Variable       Old X    -DE/DX   Delta X   Delta X   Delta X     New X
                                 (Linear)    (Quad)   (Total)
    R1        2.86495  -0.00006   0.00001  -0.00024  -0.00024   2.86471
    R2        2.07006   0.00002   0.00005   0.00003   0.00009   2.07015
    R3        2.06560   0.00002   0.00001   0.00006   0.00007   2.06567
    R4        2.06560   0.00002   0.00001   0.00006   0.00007   2.06567
    R5        3.40215   0.00002   0.00045  -0.00021   0.00024   3.40239
    R6        2.06125  -0.00001   0.00002  -0.00008  -0.00006   2.06119
    R7        2.06125  -0.00001   0.00002  -0.00008  -0.00006   2.06119
    A1        1.91088   0.00007   0.00042   0.00008   0.00050   1.91138
    A2        1.93506   0.00002   0.00008   0.00008   0.00016   1.93523
    A3        1.93507   0.00002   0.00008   0.00008   0.00016   1.93523
    A4        1.89435  -0.00005  -0.00027  -0.00011  -0.00038   1.89397
    A5        1.89435  -0.00005  -0.00027  -0.00011  -0.00039   1.89397
    A6        1.89318  -0.00002  -0.00006  -0.00003  -0.00008   1.89309
    A7        1.93808  -0.00007  -0.00021  -0.00025  -0.00047   1.93761
    A8        1.95218   0.00001   0.00005   0.00009   0.00014   1.95232
    A9        1.95218   0.00001   0.00005   0.00009   0.00014   1.95232
   A10        1.85753   0.00002  -0.00008  -0.00001  -0.00008   1.85744
   A11        1.85753   0.00002  -0.00007  -0.00001  -0.00009   1.85744
   A12        1.90149   0.00001   0.00026   0.00008   0.00034   1.90183
    D1       -3.14158   0.00000   0.00000   0.00000  -0.00001  -3.14159
    D2        1.06927   0.00001   0.00020   0.00012   0.00032   1.06959
    D3       -1.06926  -0.00001  -0.00021  -0.00012  -0.00033  -1.06959
    D4       -1.05198   0.00000  -0.00002  -0.00004  -0.00006  -1.05203
    D5       -3.12430   0.00001   0.00019   0.00008   0.00027  -3.12404
    D6        1.02035  -0.00002  -0.00023  -0.00016  -0.00038   1.01997
    D7        1.05199   0.00000   0.00002   0.00004   0.00005   1.05204
    D8       -1.02034   0.00002   0.00022   0.00015   0.00038  -1.01996
    D9        3.12431  -0.00001  -0.00019  -0.00009  -0.00027   3.12404
         Item               Value     Threshold  Converged?
 Maximum Force            0.000073     0.000450     YES
 RMS     Force            0.000029     0.000300     YES
 Maximum Displacement     0.000765     0.001800     YES
 RMS     Displacement     0.000280     0.001200     YES
 Predicted change in Energy=-8.114120D-08
 Optimization completed.
    -- Stationary point found.
                           ----------------------------
                           !   Optimized Parameters   !
                           ! (Angstroms and Degrees)  !
 --------------------------                            --------------------------
 ! Name  Definition              Value          Derivative Info.                !
 --------------------------------------------------------------------------------
 ! R1    R(1,2)                  1.5161         -DE/DX =   -0.0001              !
 ! R2    R(1,4)                  1.0954         -DE/DX =    0.0                 !
 ! R3    R(1,5)                  1.0931         -DE/DX =    0.0                 !
 ! R4    R(1,6)                  1.0931         -DE/DX =    0.0                 !
 ! R5    R(2,3)                  1.8003         -DE/DX =    0.0                 !
 ! R6    R(2,7)                  1.0908         -DE/DX =    0.0                 !
 ! R7    R(2,8)                  1.0908         -DE/DX =    0.0                 !
 ! A1    A(2,1,4)              109.4856         -DE/DX =    0.0001              !
 ! A2    A(2,1,5)              110.871          -DE/DX =    0.0                 !
 ! A3    A(2,1,6)              110.8711         -DE/DX =    0.0                 !
 ! A4    A(4,1,5)              108.5383         -DE/DX =    0.0                 !
 ! A5    A(4,1,6)              108.5385         -DE/DX =    0.0                 !
 ! A6    A(5,1,6)              108.471          -DE/DX =    0.0                 !
 ! A7    A(1,2,3)              111.0436         -DE/DX =   -0.0001              !
 ! A8    A(1,2,7)              111.8515         -DE/DX =    0.0                 !
 ! A9    A(1,2,8)              111.8515         -DE/DX =    0.0                 !
 ! A10   A(3,2,7)              106.4284         -DE/DX =    0.0                 !
 ! A11   A(3,2,8)              106.4284         -DE/DX =    0.0                 !
 ! A12   A(7,2,8)              108.9471         -DE/DX =    0.0                 !
 ! D1    D(4,1,2,3)           -179.9996         -DE/DX =    0.0                 !
 ! D2    D(4,1,2,7)             61.2649         -DE/DX =    0.0                 !
 ! D3    D(4,1,2,8)            -61.2639         -DE/DX =    0.0                 !
 ! D4    D(5,1,2,3)            -60.2738         -DE/DX =    0.0                 !
 ! D5    D(5,1,2,7)           -179.0093         -DE/DX =    0.0                 !
 ! D6    D(5,1,2,8)             58.4619         -DE/DX =    0.0                 !
 ! D7    D(6,1,2,3)             60.2744         -DE/DX =    0.0                 !
 ! D8    D(6,1,2,7)            -58.4612         -DE/DX =    0.0                 !
 ! D9    D(6,1,2,8)            179.01           -DE/DX =    0.0                 !
 --------------------------------------------------------------------------------
 GradGradGradGradGradGradGradGradGradGradGradGradGradGradGradGradGradGrad

                          Input orientation:                          
 ---------------------------------------------------------------------
 Center     Atomic      Atomic             Coordinates (Angstroms)
 Number     Number       Type             X           Y           Z
 ---------------------------------------------------------------------
      1          6           0        0.142669   -0.727225    0.802638
      2          6           0        1.353757   -0.369595    1.641579
      3         17           0        2.850735   -0.352689    0.641582
      4          1           0       -0.751876   -0.730080    1.434889
      5          1           0       -0.002327   -0.001019   -0.001355
      6          1           0        0.256579   -1.718896    0.357198
      7          1           0        1.523601   -1.094233    2.438962
      8          1           0        1.264463    0.625136    2.080106
 ---------------------------------------------------------------------
                    Distance matrix (angstroms):
                    1          2          3          4          5
     1  C    0.000000
     2  C    1.516066   0.000000
     3  Cl   2.738583   1.800339   0.000000
     4  H    1.095427   2.146244   3.708175   0.000000
     5  H    1.093071   2.161954   2.945675   1.776555   0.000000
     6  H    1.093071   2.161955   2.945682   1.776557   1.773892
     7  H    2.172377   1.090765   2.354091   2.513676   3.078753
     8  H    2.172378   1.090765   2.354092   2.513670   2.515811
                    6          7          8
     6  H    0.000000
     7  H    2.515808   0.000000
     8  H    3.078754   1.775432   0.000000
 Stoichiometry    C2H5Cl
 Framework group  C1[X(C2H5Cl)]
 Deg. of freedom    18
 Full point group                 C1      NOp   1
 Largest Abelian subgroup         C1      NOp   1
 Largest concise Abelian subgroup C1      NOp   1
                         Standard orientation:                         
 ---------------------------------------------------------------------
 Center     Atomic      Atomic             Coordinates (Angstroms)
 Number     Number       Type             X           Y           Z
 ---------------------------------------------------------------------
      1          6           0       -1.602963   -0.357625    0.000000
      2          6           0       -0.479218    0.660047    0.000000
      3         17           0        1.127850   -0.151467    0.000000
      4          1           0       -2.567006    0.162548   -0.000008
      5          1           0       -1.551660   -0.994416   -0.886944
      6          1           0       -1.551667   -0.994410    0.886949
      7          1           0       -0.505012    1.293341    0.887717
      8          1           0       -0.505013    1.293342   -0.887715
 ---------------------------------------------------------------------
 Rotational constants (GHZ):     31.4060707      5.4725161      4.9502223

 **********************************************************************

            Population analysis using the SCF density.

 **********************************************************************

 Orbital symmetries:
       Occupied  (A) (A) (A) (A) (A) (A) (A) (A) (A) (A) (A) (A)
                 (A) (A) (A) (A) (A)
       Virtual   (A) (A) (A) (A) (A) (A) (A) (A) (A) (A) (A) (A)
                 (A) (A) (A) (A) (A) (A) (A) (A) (A) (A) (A) (A)
                 (A) (A) (A) (A) (A) (A) (A) (A) (A) (A) (A) (A)
                 (A) (A) (A) (A) (A) (A) (A) (A) (A) (A) (A) (A)
                 (A) (A) (A) (A) (A) (A)
 The electronic state is 1-A.
 Alpha  occ. eigenvalues -- -102.65240 -10.61176 -10.55600  -9.79970  -7.52366
 Alpha  occ. eigenvalues --   -7.51706  -7.51700  -0.95824  -0.83982  -0.70893
 Alpha  occ. eigenvalues --   -0.55235  -0.52296  -0.47634  -0.44429  -0.43330
 Alpha  occ. eigenvalues --   -0.35868  -0.35772
 Alpha virt. eigenvalues --    0.02635   0.03843   0.04318   0.05697   0.07014
 Alpha virt. eigenvalues --    0.08589   0.09198   0.09723   0.11471   0.12825
 Alpha virt. eigenvalues --    0.13684   0.14467   0.17697   0.22362   0.25307
 Alpha virt. eigenvalues --    0.25515   0.27699   0.32187   0.33267   0.60570
 Alpha virt. eigenvalues --    0.62438   0.63935   0.65078   0.68088   0.68919
 Alpha virt. eigenvalues --    0.71016   0.71692   0.75267   0.76167   0.93975
 Alpha virt. eigenvalues --    0.96311   0.97035   1.00457   1.00549   1.03804
 Alpha virt. eigenvalues --    1.04988   1.11879   1.14385   1.16116   1.26504
 Alpha virt. eigenvalues --    1.52891   1.57827   1.62578   1.97391   2.00255
 Alpha virt. eigenvalues --    2.03813   2.26641   2.33054   2.36020   2.36835
 Alpha virt. eigenvalues --    2.62900   4.16522   4.37461   4.45962
          Condensed to atoms (all electrons):
               1          2          3          4          5          6
     1  C    5.492155   0.125728  -0.064022   0.379784   0.401692   0.401691
     2  C    0.125728   5.574499   0.154674  -0.044914  -0.048090  -0.048089
     3  Cl  -0.064022   0.154674  17.047752   0.009605  -0.003503  -0.003503
     4  H    0.379784  -0.044914   0.009605   0.494256  -0.024730  -0.024730
     5  H    0.401692  -0.048090  -0.003503  -0.024730   0.472423  -0.026217
     6  H    0.401691  -0.048089  -0.003503  -0.024730  -0.026217   0.472423
     7  H   -0.047262   0.392845  -0.054338  -0.001934   0.003819  -0.004836
     8  H   -0.047263   0.392845  -0.054338  -0.001934  -0.004836   0.003819
               7          8
     1  C   -0.047262  -0.047263
     2  C    0.392845   0.392845
     3  Cl  -0.054338  -0.054338
     4  H   -0.001934  -0.001934
     5  H    0.003819  -0.004836
     6  H   -0.004836   0.003819
     7  H    0.494705  -0.033423
     8  H   -0.033423   0.494705
 Mulliken charges:
               1
     1  C   -0.642503
     2  C   -0.499499
     3  Cl  -0.032327
     4  H    0.214598
     5  H    0.229442
     6  H    0.229442
     7  H    0.250423
     8  H    0.250423
 Sum of Mulliken charges =   0.00000
 Mulliken charges with hydrogens summed into heavy atoms:
               1
     1  C    0.030979
     2  C    0.001348
     3  Cl  -0.032327
 Electronic spatial extent (au):  <R**2>=            282.9560
 Charge=              0.0000 electrons
 Dipole moment (field-independent basis, Debye):
    X=             -2.1238    Y=              0.8671    Z=              0.0000  Tot=              2.2940
 Quadrupole moment (field-independent basis, Debye-Ang):
   XX=            -27.2202   YY=            -26.1247   ZZ=            -26.5364
   XY=             -0.4864   XZ=              0.0000   YZ=              0.0000
 Traceless Quadrupole moment (field-independent basis, Debye-Ang):
   XX=             -0.5931   YY=              0.5024   ZZ=              0.0907
   XY=             -0.4864   XZ=              0.0000   YZ=              0.0000
 Octapole moment (field-independent basis, Debye-Ang**2):
  XXX=              2.5275  YYY=              1.1994  ZZZ=              0.0000  XYY=              0.4905
  XXY=             -0.9240  XXZ=              0.0000  XZZ=              0.0022  YZZ=              0.6179
  YYZ=              0.0000  XYZ=              0.0000
 Hexadecapole moment (field-independent basis, Debye-Ang**3):
 XXXX=           -263.1608 YYYY=            -73.3785 ZZZZ=            -43.3912 XXXY=             -7.2057
 XXXZ=              0.0001 YYYX=             -1.3129 YYYZ=              0.0000 ZZZX=              0.0000
 ZZZY=              0.0000 XXYY=            -57.0901 XXZZ=            -54.1005 YYZZ=            -17.1619
 XXYZ=              0.0000 YYXZ=              0.0000 ZZXY=              0.3925
 N-N= 1.026799307583D+02 E-N=-1.481999310005D+03  KE= 5.374076143644D+02
 1\1\GINC-KATANA1\FOpt\RM062X\6-31+G(d)\C2H5Cl1\Z5358697\19-Mar-2025\0\
 \#m062X/6-31+G(d) OPT Freq=noraman\\chloroethane\\0,1\C,0.1426687785,-
 0.7272249591,0.8026383644\C,1.3537574406,-0.3695945694,1.6415791229\Cl
 ,2.8507345808,-0.3526886039,0.6415818176\H,-0.7518761799,-0.730079884,
 1.4348891113\H,-0.0023274842,-0.0010186475,-0.0013545333\H,0.256578803
 9,-1.7188955896,0.3571978568\H,1.5236011513,-1.0942332917,2.4389617755
 \H,1.2644629089,0.6251355452,2.0801064848\\Version=ES64L-G09RevD.01\St
 ate=1-A\HF=-539.3444078\RMSD=3.815e-09\RMSF=5.250e-05\Dipole=-0.786712
 7,-0.0264123,0.4415519\Quadrupole=-0.4951523,0.055568,0.4395843,-0.135
 5882,-0.2433577,0.0409948\PG=C01 [X(C2H5Cl1)]\\@


 The chemist is a guest at the physicist's table and
 frequently dines well.
                   -- Richard Bersohn
 Job cpu time:       0 days  0 hours  0 minutes 25.6 seconds.
 File lengths (MBytes):  RWF=    132 Int=      0 D2E=      0 Chk=      2 Scr=      2
 Normal termination of Gaussian 09 at Wed Mar 19 11:58:23 2025.
 Link1:  Proceeding to internal job step number  2.
 ---------------------------------------------------------------------
 #N Geom=AllCheck Guess=TCheck SCRF=Check GenChk RM062X/6-31+G(d) Freq
 ---------------------------------------------------------------------
 1/10=4,29=7,30=1,38=1,40=1/1,3;
 2/12=2,40=1/2;
 3/5=1,6=6,7=11,11=2,14=-4,16=1,25=1,30=1,70=2,71=2,74=-55,116=1,140=1/1,2,3;
 4/5=101/1;
 5/5=2,98=1/2;
 8/6=4,10=90,11=11/1;
 11/6=1,8=1,9=11,15=111,16=1/1,2,10;
 10/6=1/2;
 6/7=2,8=2,9=2,10=2,18=1,28=1/1;
 7/8=1,10=1,25=1/1,2,3,16;
 1/10=4,30=1/3;
 99//99;
 Structure from the checkpoint file:  "/srv/scratch/z5358697/gauss/Gau-2999460.chk"
 ------------
 chloroethane
 ------------
 Charge =  0 Multiplicity = 1
 Redundant internal coordinates found in file.
 C,0,0.1426687785,-0.7272249591,0.8026383644
 C,0,1.3537574406,-0.3695945694,1.6415791229
 Cl,0,2.8507345808,-0.3526886039,0.6415818176
 H,0,-0.7518761799,-0.730079884,1.4348891113
 H,0,-0.0023274842,-0.0010186475,-0.0013545333
 H,0,0.2565788039,-1.7188955896,0.3571978568
 H,0,1.5236011513,-1.0942332917,2.4389617755
 H,0,1.2644629089,0.6251355452,2.0801064848
 Recover connectivity data from disk.

 GradGradGradGradGradGradGradGradGradGradGradGradGradGradGradGradGradGrad
 Berny optimization.
 Initialization pass.
                           ----------------------------
                           !    Initial Parameters    !
                           ! (Angstroms and Degrees)  !
 --------------------------                            --------------------------
 ! Name  Definition              Value          Derivative Info.                !
 --------------------------------------------------------------------------------
 ! R1    R(1,2)                  1.5161         calculate D2E/DX2 analytically  !
 ! R2    R(1,4)                  1.0954         calculate D2E/DX2 analytically  !
 ! R3    R(1,5)                  1.0931         calculate D2E/DX2 analytically  !
 ! R4    R(1,6)                  1.0931         calculate D2E/DX2 analytically  !
 ! R5    R(2,3)                  1.8003         calculate D2E/DX2 analytically  !
 ! R6    R(2,7)                  1.0908         calculate D2E/DX2 analytically  !
 ! R7    R(2,8)                  1.0908         calculate D2E/DX2 analytically  !
 ! A1    A(2,1,4)              109.4856         calculate D2E/DX2 analytically  !
 ! A2    A(2,1,5)              110.871          calculate D2E/DX2 analytically  !
 ! A3    A(2,1,6)              110.8711         calculate D2E/DX2 analytically  !
 ! A4    A(4,1,5)              108.5383         calculate D2E/DX2 analytically  !
 ! A5    A(4,1,6)              108.5385         calculate D2E/DX2 analytically  !
 ! A6    A(5,1,6)              108.471          calculate D2E/DX2 analytically  !
 ! A7    A(1,2,3)              111.0436         calculate D2E/DX2 analytically  !
 ! A8    A(1,2,7)              111.8515         calculate D2E/DX2 analytically  !
 ! A9    A(1,2,8)              111.8515         calculate D2E/DX2 analytically  !
 ! A10   A(3,2,7)              106.4284         calculate D2E/DX2 analytically  !
 ! A11   A(3,2,8)              106.4284         calculate D2E/DX2 analytically  !
 ! A12   A(7,2,8)              108.9471         calculate D2E/DX2 analytically  !
 ! D1    D(4,1,2,3)           -179.9996         calculate D2E/DX2 analytically  !
 ! D2    D(4,1,2,7)             61.2649         calculate D2E/DX2 analytically  !
 ! D3    D(4,1,2,8)            -61.2639         calculate D2E/DX2 analytically  !
 ! D4    D(5,1,2,3)            -60.2738         calculate D2E/DX2 analytically  !
 ! D5    D(5,1,2,7)           -179.0093         calculate D2E/DX2 analytically  !
 ! D6    D(5,1,2,8)             58.4619         calculate D2E/DX2 analytically  !
 ! D7    D(6,1,2,3)             60.2744         calculate D2E/DX2 analytically  !
 ! D8    D(6,1,2,7)            -58.4612         calculate D2E/DX2 analytically  !
 ! D9    D(6,1,2,8)            179.01           calculate D2E/DX2 analytically  !
 --------------------------------------------------------------------------------
 Trust Radius=3.00D-01 FncErr=1.00D-07 GrdErr=1.00D-07
 Number of steps in this run=      2 maximum allowed number of steps=      2.
 GradGradGradGradGradGradGradGradGradGradGradGradGradGradGradGradGradGrad

                          Input orientation:                          
 ---------------------------------------------------------------------
 Center     Atomic      Atomic             Coordinates (Angstroms)
 Number     Number       Type             X           Y           Z
 ---------------------------------------------------------------------
      1          6           0        0.142669   -0.727225    0.802638
      2          6           0        1.353757   -0.369595    1.641579
      3         17           0        2.850735   -0.352689    0.641582
      4          1           0       -0.751876   -0.730080    1.434889
      5          1           0       -0.002327   -0.001019   -0.001355
      6          1           0        0.256579   -1.718896    0.357198
      7          1           0        1.523601   -1.094233    2.438962
      8          1           0        1.264463    0.625136    2.080106
 ---------------------------------------------------------------------
                    Distance matrix (angstroms):
                    1          2          3          4          5
     1  C    0.000000
     2  C    1.516066   0.000000
     3  Cl   2.738583   1.800339   0.000000
     4  H    1.095427   2.146244   3.708175   0.000000
     5  H    1.093071   2.161954   2.945675   1.776555   0.000000
     6  H    1.093071   2.161955   2.945682   1.776557   1.773892
     7  H    2.172377   1.090765   2.354091   2.513676   3.078753
     8  H    2.172378   1.090765   2.354092   2.513670   2.515811
                    6          7          8
     6  H    0.000000
     7  H    2.515808   0.000000
     8  H    3.078754   1.775432   0.000000
 Stoichiometry    C2H5Cl
 Framework group  C1[X(C2H5Cl)]
 Deg. of freedom    18
 Full point group                 C1      NOp   1
 Largest Abelian subgroup         C1      NOp   1
 Largest concise Abelian subgroup C1      NOp   1
                         Standard orientation:                         
 ---------------------------------------------------------------------
 Center     Atomic      Atomic             Coordinates (Angstroms)
 Number     Number       Type             X           Y           Z
 ---------------------------------------------------------------------
      1          6           0       -1.602963   -0.357625    0.000000
      2          6           0       -0.479218    0.660047    0.000000
      3         17           0        1.127850   -0.151467    0.000000
      4          1           0       -2.567006    0.162548   -0.000008
      5          1           0       -1.551660   -0.994416   -0.886944
      6          1           0       -1.551667   -0.994410    0.886949
      7          1           0       -0.505012    1.293341    0.887717
      8          1           0       -0.505013    1.293342   -0.887715
 ---------------------------------------------------------------------
 Rotational constants (GHZ):     31.4060707      5.4725161      4.9502223
 Standard basis: 6-31+G(d) (6D, 7F)
 There are    71 symmetry adapted cartesian basis functions of A   symmetry.
 There are    71 symmetry adapted basis functions of A   symmetry.
    71 basis functions,   140 primitive gaussians,    71 cartesian basis functions
    17 alpha electrons       17 beta electrons
       nuclear repulsion energy       102.6799307583 Hartrees.
 NAtoms=    8 NActive=    8 NUniq=    8 SFac= 1.00D+00 NAtFMM=   60 NAOKFM=F Big=F
 Integral buffers will be    131072 words long.
 Raffenetti 2 integral format.
 Two-electron integral symmetry is turned on.
 One-electron integrals computed using PRISM.
 NBasis=    71 RedAO= T EigKep=  2.81D-04  NBF=    71
 NBsUse=    71 1.00D-06 EigRej= -1.00D+00 NBFU=    71
 Initial guess from the checkpoint file:  "/srv/scratch/z5358697/gauss/Gau-2999460.chk"
 B after Tr=     0.000000    0.000000    0.000000
         Rot=    1.000000    0.000000    0.000000    0.000000 Ang=   0.00 deg.
 Keep R1 ints in memory in canonical form, NReq=4193186.
 Requested convergence on RMS density matrix=1.00D-08 within 128 cycles.
 Requested convergence on MAX density matrix=1.00D-06.
 Requested convergence on             energy=1.00D-06.
 No special actions if energy rises.
 SCF Done:  E(RM062X) =  -539.344407759     A.U. after    1 cycles
            NFock=  1  Conv=0.12D-08     -V/T= 2.0036
 DoSCS=F DFT=T ScalE2(SS,OS)=  1.000000  1.000000
 Range of M.O.s used for correlation:     1    71
 NBasis=    71 NAE=    17 NBE=    17 NFC=     0 NFV=     0
 NROrb=     71 NOA=    17 NOB=    17 NVA=    54 NVB=    54

 **** Warning!!: The largest alpha MO coefficient is  0.26966439D+02

 Symmetrizing basis deriv contribution to polar:
 IMax=3 JMax=2 DiffMx= 0.00D+00
 G2DrvN: will do     9 centers at a time, making    1 passes.
 Calling FoFCou, ICntrl=  3107 FMM=F I1Cent=   0 AccDes= 0.00D+00.
 End of G2Drv F.D. properties file   721 does not exist.
 End of G2Drv F.D. properties file   722 does not exist.
 End of G2Drv F.D. properties file   788 does not exist.
          IDoAtm=11111111
          Differentiating once with respect to electric field.
                with respect to dipole field.
          Differentiating once with respect to nuclear coordinates.
 Keep R1 ints in memory in canonical form, NReq=4159542.
          There are    27 degrees of freedom in the 1st order CPHF.  IDoFFX=6 NUNeed=     3.
     24 vectors produced by pass  0 Test12= 3.40D-15 3.70D-09 XBig12= 1.88D+01 1.58D+00.
 AX will form    24 AO Fock derivatives at one time.
     24 vectors produced by pass  1 Test12= 3.40D-15 3.70D-09 XBig12= 1.24D+00 3.47D-01.
     24 vectors produced by pass  2 Test12= 3.40D-15 3.70D-09 XBig12= 2.46D-02 3.91D-02.
     24 vectors produced by pass  3 Test12= 3.40D-15 3.70D-09 XBig12= 1.32D-04 3.46D-03.
     24 vectors produced by pass  4 Test12= 3.40D-15 3.70D-09 XBig12= 3.65D-07 1.38D-04.
     24 vectors produced by pass  5 Test12= 3.40D-15 3.70D-09 XBig12= 1.14D-09 7.76D-06.
      9 vectors produced by pass  6 Test12= 3.40D-15 3.70D-09 XBig12= 3.11D-12 3.41D-07.
      3 vectors produced by pass  7 Test12= 3.40D-15 3.70D-09 XBig12= 8.83D-15 1.79D-08.
 InvSVY:  IOpt=1 It=  1 EMax= 5.33D-15
 Solved reduced A of dimension   156 with    27 vectors.
 Isotropic polarizability for W=    0.000000       35.53 Bohr**3.
 End of Minotr F.D. properties file   721 does not exist.
 End of Minotr F.D. properties file   722 does not exist.
 End of Minotr F.D. properties file   788 does not exist.

 **********************************************************************

            Population analysis using the SCF density.

 **********************************************************************

 Orbital symmetries:
       Occupied  (A) (A) (A) (A) (A) (A) (A) (A) (A) (A) (A) (A)
                 (A) (A) (A) (A) (A)
       Virtual   (A) (A) (A) (A) (A) (A) (A) (A) (A) (A) (A) (A)
                 (A) (A) (A) (A) (A) (A) (A) (A) (A) (A) (A) (A)
                 (A) (A) (A) (A) (A) (A) (A) (A) (A) (A) (A) (A)
                 (A) (A) (A) (A) (A) (A) (A) (A) (A) (A) (A) (A)
                 (A) (A) (A) (A) (A) (A)
 The electronic state is 1-A.
 Alpha  occ. eigenvalues -- -102.65240 -10.61176 -10.55600  -9.79970  -7.52366
 Alpha  occ. eigenvalues --   -7.51706  -7.51700  -0.95824  -0.83982  -0.70893
 Alpha  occ. eigenvalues --   -0.55235  -0.52296  -0.47634  -0.44429  -0.43330
 Alpha  occ. eigenvalues --   -0.35868  -0.35772
 Alpha virt. eigenvalues --    0.02635   0.03843   0.04318   0.05697   0.07014
 Alpha virt. eigenvalues --    0.08589   0.09198   0.09723   0.11471   0.12825
 Alpha virt. eigenvalues --    0.13684   0.14467   0.17697   0.22362   0.25307
 Alpha virt. eigenvalues --    0.25515   0.27699   0.32187   0.33267   0.60570
 Alpha virt. eigenvalues --    0.62438   0.63935   0.65078   0.68088   0.68919
 Alpha virt. eigenvalues --    0.71016   0.71692   0.75267   0.76167   0.93975
 Alpha virt. eigenvalues --    0.96311   0.97035   1.00457   1.00549   1.03804
 Alpha virt. eigenvalues --    1.04988   1.11879   1.14385   1.16116   1.26504
 Alpha virt. eigenvalues --    1.52891   1.57827   1.62578   1.97391   2.00255
 Alpha virt. eigenvalues --    2.03813   2.26641   2.33054   2.36020   2.36835
 Alpha virt. eigenvalues --    2.62900   4.16522   4.37461   4.45962
          Condensed to atoms (all electrons):
               1          2          3          4          5          6
     1  C    5.492155   0.125728  -0.064023   0.379784   0.401692   0.401691
     2  C    0.125728   5.574499   0.154674  -0.044914  -0.048090  -0.048089
     3  Cl  -0.064023   0.154674  17.047752   0.009605  -0.003503  -0.003503
     4  H    0.379784  -0.044914   0.009605   0.494256  -0.024730  -0.024730
     5  H    0.401692  -0.048090  -0.003503  -0.024730   0.472423  -0.026217
     6  H    0.401691  -0.048089  -0.003503  -0.024730  -0.026217   0.472423
     7  H   -0.047262   0.392845  -0.054338  -0.001934   0.003819  -0.004836
     8  H   -0.047263   0.392845  -0.054338  -0.001934  -0.004836   0.003819
               7          8
     1  C   -0.047262  -0.047263
     2  C    0.392845   0.392845
     3  Cl  -0.054338  -0.054338
     4  H   -0.001934  -0.001934
     5  H    0.003819  -0.004836
     6  H   -0.004836   0.003819
     7  H    0.494705  -0.033423
     8  H   -0.033423   0.494705
 Mulliken charges:
               1
     1  C   -0.642503
     2  C   -0.499499
     3  Cl  -0.032327
     4  H    0.214598
     5  H    0.229442
     6  H    0.229442
     7  H    0.250423
     8  H    0.250423
 Sum of Mulliken charges =   0.00000
 Mulliken charges with hydrogens summed into heavy atoms:
               1
     1  C    0.030979
     2  C    0.001348
     3  Cl  -0.032327
 APT charges:
               1
     1  C   -0.004377
     2  C    0.415403
     3  Cl  -0.362154
     4  H   -0.004234
     5  H    0.009882
     6  H    0.009883
     7  H   -0.032201
     8  H   -0.032201
 Sum of APT charges =   0.00000
 APT charges with hydrogens summed into heavy atoms:
               1
     1  C    0.011154
     2  C    0.351000
     3  Cl  -0.362154
 Electronic spatial extent (au):  <R**2>=            282.9560
 Charge=              0.0000 electrons
 Dipole moment (field-independent basis, Debye):
    X=             -2.1238    Y=              0.8671    Z=              0.0000  Tot=              2.2940
 Quadrupole moment (field-independent basis, Debye-Ang):
   XX=            -27.2202   YY=            -26.1247   ZZ=            -26.5364
   XY=             -0.4864   XZ=              0.0000   YZ=              0.0000
 Traceless Quadrupole moment (field-independent basis, Debye-Ang):
   XX=             -0.5931   YY=              0.5024   ZZ=              0.0907
   XY=             -0.4864   XZ=              0.0000   YZ=              0.0000
 Octapole moment (field-independent basis, Debye-Ang**2):
  XXX=              2.5275  YYY=              1.1994  ZZZ=              0.0000  XYY=              0.4905
  XXY=             -0.9240  XXZ=              0.0000  XZZ=              0.0022  YZZ=              0.6179
  YYZ=              0.0000  XYZ=              0.0000
 Hexadecapole moment (field-independent basis, Debye-Ang**3):
 XXXX=           -263.1608 YYYY=            -73.3785 ZZZZ=            -43.3912 XXXY=             -7.2057
 XXXZ=              0.0001 YYYX=             -1.3129 YYYZ=              0.0000 ZZZX=              0.0000
 ZZZY=              0.0000 XXYY=            -57.0901 XXZZ=            -54.1005 YYZZ=            -17.1619
 XXYZ=              0.0000 YYXZ=              0.0000 ZZXY=              0.3925
 N-N= 1.026799307583D+02 E-N=-1.481999309317D+03  KE= 5.374076141022D+02
  Exact polarizability:  43.558  -2.926  32.762   0.000   0.000  30.284
 Approx polarizability:  44.901  -5.074  35.919   0.000   0.000  33.665
 Calling FoFJK, ICntrl=    100127 FMM=F ISym2X=0 I1Cent= 0 IOpClX= 0 NMat=1 NMatS=1 NMatT=0.
 Full mass-weighted force constant matrix:
 Low frequencies ---  -43.4054  -37.4185   -0.0027    0.0024    0.0031   28.7074
 Low frequencies ---  251.1386  334.1811  695.5356
 Diagonal vibrational polarizability:
        3.4015820       0.5193705       0.3103869
 Harmonic frequencies (cm**-1), IR intensities (KM/Mole), Raman scattering
 activities (A**4/AMU), depolarization ratios for plane and unpolarized
 incident light, reduced masses (AMU), force constants (mDyne/A),
 and normal coordinates:
                      1                      2                      3
                      A                      A                      A
 Frequencies --    251.0254               334.1539               695.5356
 Red. masses --      1.0928                 3.1824                 4.5358
 Frc consts  --      0.0406                 0.2094                 1.2928
 IR Inten    --      0.0529                 2.8070                30.7694
  Atom  AN      X      Y      Z        X      Y      Z        X      Y      Z
     1   6     0.00   0.00   0.01     0.29  -0.05   0.00     0.13   0.02   0.00
     2   6     0.00   0.00  -0.07     0.04   0.20   0.00     0.32  -0.30   0.00
     3  17     0.00   0.00   0.03    -0.15  -0.05   0.00    -0.16   0.09   0.00
     4   1     0.00   0.00   0.61     0.09  -0.42   0.00     0.42   0.55   0.00
     5   1    -0.37   0.32  -0.24     0.54  -0.04   0.01    -0.23   0.01  -0.02
     6   1     0.37  -0.32  -0.24     0.54  -0.04  -0.01    -0.23   0.01   0.02
     7   1     0.00   0.05  -0.11     0.02   0.19   0.01     0.17  -0.24  -0.04
     8   1     0.00  -0.05  -0.11     0.02   0.19  -0.01     0.17  -0.24   0.04
                      4                      5                      6
[...]
 Frequencies --   1438.2968              1509.7471              1517.8451
 Red. masses --      1.2562                 1.0361                 1.0816
 Frc consts  --      1.5311                 1.3914                 1.4682
 IR Inten    --      9.4907                 9.3917                 1.7448
  Atom  AN      X      Y      Z        X      Y      Z        X      Y      Z
     1   6    -0.12  -0.09   0.00     0.00   0.00  -0.05     0.00  -0.03   0.00
     2   6     0.03   0.00   0.00     0.00   0.00  -0.02     0.03   0.07   0.00
     3  17     0.00   0.00   0.00     0.00   0.00   0.00     0.00   0.00   0.00
     4   1     0.23   0.54   0.00     0.00   0.00   0.70    -0.06  -0.12   0.00
     5   1     0.49   0.19  -0.15     0.50  -0.07   0.05    -0.03   0.26  -0.20
     6   1     0.49   0.19   0.15    -0.50   0.07   0.05    -0.03   0.26   0.20
     7   1    -0.09   0.07  -0.05    -0.03  -0.04   0.00    -0.03  -0.49   0.37
     8   1    -0.09   0.07   0.05     0.03   0.04   0.00    -0.03  -0.49  -0.37
                     13                     14                     15
                      A                      A                      A
 Frequencies --   1522.9712              3082.3210              3141.6662
 Red. masses --      1.0628                 1.0373                 1.0633
 Frc consts  --      1.4524                 5.8067                 6.1832
 IR Inten    --      3.3492                14.8937                 8.2569
  Atom  AN      X      Y      Z        X      Y      Z        X      Y      Z
     1   6    -0.03   0.04   0.00    -0.05  -0.02   0.00    -0.02   0.03   0.00
     2   6    -0.01   0.05   0.00     0.00   0.00   0.00     0.00  -0.06   0.00
     3  17     0.00   0.00   0.00     0.00   0.00   0.00     0.00   0.00   0.00
     4   1     0.13   0.30   0.00     0.63  -0.35   0.00     0.21  -0.12   0.00
     5   1     0.15  -0.44   0.34    -0.03   0.28   0.40     0.01  -0.10  -0.15
     6   1     0.15  -0.44  -0.34    -0.03   0.28  -0.40     0.01  -0.10   0.15
     7   1     0.05  -0.25   0.21     0.00   0.00   0.01    -0.01   0.37   0.55
     8   1     0.05  -0.25  -0.21     0.00   0.00  -0.01    -0.01   0.37  -0.55
                     16                     17                     18
                      A                      A                      A
 Frequencies --   3159.7569              3172.3003              3205.1098
 Red. masses --      1.0941                 1.1047                 1.1104
 Frc consts  --      6.4359                 6.5503                 6.7207
 IR Inten    --     22.9242                 5.4712                12.5680
  Atom  AN      X      Y      Z        X      Y      Z        X      Y      Z
     1   6     0.05  -0.07   0.00     0.00   0.00   0.09     0.00   0.00   0.03
     2   6     0.00  -0.03   0.00     0.00   0.00  -0.03     0.00   0.00   0.09
     3  17     0.00   0.00   0.00     0.00   0.00   0.00     0.00   0.00   0.00
     4   1    -0.56   0.30   0.00     0.00   0.00   0.02     0.00   0.00   0.01
     5   1    -0.01   0.27   0.40     0.04  -0.39  -0.53     0.01  -0.15  -0.20
     6   1    -0.01   0.27  -0.40    -0.04   0.39  -0.53    -0.01   0.15  -0.20
     7   1     0.00   0.15   0.22    -0.01   0.14   0.20     0.01  -0.38  -0.54
     8   1     0.00   0.15  -0.22     0.01  -0.14   0.20    -0.01   0.38  -0.54

 -------------------
 - Thermochemistry -
 -------------------
 Temperature   298.150 Kelvin.  Pressure   1.00000 Atm.
 Atom     1 has atomic number  6 and mass  12.00000
 Atom     2 has atomic number  6 and mass  12.00000
 Atom     3 has atomic number 17 and mass  34.96885
 Atom     4 has atomic number  1 and mass   1.00783
 Atom     5 has atomic number  1 and mass   1.00783
 Atom     6 has atomic number  1 and mass   1.00783
 Atom     7 has atomic number  1 and mass   1.00783
 Atom     8 has atomic number  1 and mass   1.00783
 Molecular mass:    64.00798 amu.
 Principal axes and moments of inertia in atomic units:
                           1         2         3
     Eigenvalues --    57.46472 329.78271 364.57781
           X            0.99983   0.01847   0.00000
           Y           -0.01847   0.99983   0.00000
           Z            0.00000   0.00000   1.00000
 This molecule is an asymmetric top.
 Rotational symmetry number  1.
 Rotational temperatures (Kelvin)      1.50725     0.26264     0.23757
 Rotational constants (GHZ):          31.40607     5.47252     4.95022
 Zero-point vibrational energy     177469.5 (Joules/Mol)
                                   42.41622 (Kcal/Mol)
 Warning -- explicit consideration of   2 degrees of freedom as
           vibrations may cause significant error
 Vibrational temperatures:    361.17   480.77  1000.72  1141.62  1442.41
          (Kelvin)           1576.80  1593.12  1857.41  1941.88  2069.39
                             2172.19  2183.84  2191.21  4434.77  4520.15
                             4546.18  4564.23  4611.43
 
 Zero-point correction=                           0.067595 (Hartree/Particle)
 Thermal correction to Energy=                    0.071613
 Thermal correction to Enthalpy=                  0.072557
 Thermal correction to Gibbs Free Energy=         0.041369
 Sum of electronic and zero-point Energies=           -539.276813
 Sum of electronic and thermal Energies=              -539.272795
 Sum of electronic and thermal Enthalpies=            -539.271851
 Sum of electronic and thermal Free Energies=         -539.303039
 
                     E (Thermal)             CV                S
                      KCal/Mol        Cal/Mol-Kelvin    Cal/Mol-Kelvin
 Total                   44.938             12.344             65.641
 Electronic               0.000              0.000              0.000
 Translational            0.889              2.981             38.388
 Rotational               0.889              2.981             23.451
 Vibrational             43.160              6.383              3.803
 Vibration     1          0.663              1.761              1.723
 Vibration     2          0.716              1.607              1.240
                       Q            Log10(Q)             Ln(Q)
 Total Bot       0.936856D-19        -19.028327        -43.814343
 Total V=0       0.115596D+13         12.062942         27.775951
 Vib (Bot)       0.156426D-30        -30.805690        -70.932722
 Vib (Bot)    1  0.777120D+00         -0.109512         -0.252161
 Vib (Bot)    2  0.557728D+00         -0.253578         -0.583884
 Vib (V=0)       0.193010D+01          0.285580          0.657572
 Vib (V=0)    1  0.142408D+01          0.153533          0.353523
 Vib (V=0)    2  0.124904D+01          0.096576          0.222375
 Electronic      0.100000D+01          0.000000          0.000000
 Translational   0.201283D+08          7.303806         16.817636
 Rotational      0.297547D+05          4.473556         10.300744
 ***** Axes restored to original set *****
 -------------------------------------------------------------------
 Center     Atomic                   Forces (Hartrees/Bohr)
 Number     Number              X              Y              Z
 -------------------------------------------------------------------
      1        6           0.000165512    0.000043853    0.000088195
      2        6          -0.000056172    0.000000964    0.000045465
      3       17          -0.000015511   -0.000020454   -0.000086893
      4        1          -0.000043918   -0.000004557    0.000010903
      5        1          -0.000062645    0.000010575    0.000005711
      6        1          -0.000057355   -0.000024900    0.000013137
      7        1           0.000035140   -0.000003481   -0.000038005
      8        1           0.000034949   -0.000002000   -0.000038513
 -------------------------------------------------------------------
 Cartesian Forces:  Max     0.000165512 RMS     0.000052499
 FormGI is forming the generalized inverse of G from B-inverse, IUseBI=4.

 GradGradGradGradGradGradGradGradGradGradGradGradGradGradGradGradGradGrad
 Berny optimization.
 Internal  Forces:  Max     0.000072803 RMS     0.000029496
 Search for a local minimum.
 Step number   1 out of a maximum of    2
 All quantities printed in internal units (Hartrees-Bohrs-Radians)
 Second derivative matrix not updated -- analytic derivatives used.
 ITU=  0
     Eigenvalues ---    0.00278   0.04505   0.04602   0.04645   0.06154
     Eigenvalues ---    0.12502   0.12603   0.12944   0.13874   0.17884
     Eigenvalues ---    0.21017   0.24007   0.32498   0.34527   0.34995
     Eigenvalues ---    0.35368   0.35619   0.36080
 Angle between quadratic step and forces=  30.16 degrees.
 Linear search not attempted -- first point.
 Iteration  1 RMS(Cart)=  0.00030640 RMS(Int)=  0.00000012
 Iteration  2 RMS(Cart)=  0.00000012 RMS(Int)=  0.00000003
 Variable       Old X    -DE/DX   Delta X   Delta X   Delta X     New X
                                 (Linear)    (Quad)   (Total)
    R1        2.86495  -0.00006   0.00000  -0.00028  -0.00028   2.86467
    R2        2.07006   0.00002   0.00000   0.00009   0.00009   2.07015
    R3        2.06560   0.00002   0.00000   0.00007   0.00007   2.06568
    R4        2.06560   0.00002   0.00000   0.00008   0.00008   2.06568
    R5        3.40215   0.00002   0.00000   0.00022   0.00022   3.40236
    R6        2.06125  -0.00001   0.00000  -0.00005  -0.00005   2.06120
    R7        2.06125  -0.00001   0.00000  -0.00005  -0.00005   2.06120
    A1        1.91088   0.00007   0.00000   0.00058   0.00058   1.91146
    A2        1.93506   0.00002   0.00000   0.00017   0.00017   1.93524
    A3        1.93507   0.00002   0.00000   0.00017   0.00017   1.93524
    A4        1.89435  -0.00005   0.00000  -0.00042  -0.00042   1.89393
    A5        1.89435  -0.00005   0.00000  -0.00042  -0.00042   1.89393
    A6        1.89318  -0.00002   0.00000  -0.00011  -0.00011   1.89306
    A7        1.93808  -0.00007   0.00000  -0.00049  -0.00049   1.93758
    A8        1.95218   0.00001   0.00000   0.00014   0.00014   1.95231
    A9        1.95218   0.00001   0.00000   0.00014   0.00014   1.95231
   A10        1.85753   0.00002   0.00000  -0.00005  -0.00005   1.85748
   A11        1.85753   0.00002   0.00000  -0.00005  -0.00005   1.85748
   A12        1.90149   0.00001   0.00000   0.00031   0.00031   1.90179
    D1       -3.14158   0.00000   0.00000  -0.00001  -0.00001   3.14159
    D2        1.06927   0.00001   0.00000   0.00029   0.00029   1.06956
    D3       -1.06926  -0.00001   0.00000  -0.00031  -0.00031  -1.06957
    D4       -1.05198   0.00000   0.00000  -0.00005  -0.00005  -1.05202
    D5       -3.12430   0.00001   0.00000   0.00025   0.00025  -3.12405
    D6        1.02035  -0.00002   0.00000  -0.00035  -0.00035   1.02000
    D7        1.05199   0.00000   0.00000   0.00004   0.00004   1.05202
    D8       -1.02034   0.00002   0.00000   0.00034   0.00034  -1.02000
    D9        3.12431  -0.00001   0.00000  -0.00026  -0.00026   3.12405
         Item               Value     Threshold  Converged?
 Maximum Force            0.000073     0.000450     YES
 RMS     Force            0.000029     0.000300     YES
 Maximum Displacement     0.000838     0.001800     YES
 RMS     Displacement     0.000306     0.001200     YES
 Predicted change in Energy=-9.158645D-08
 Optimization completed.
    -- Stationary point found.
                           ----------------------------
                           !   Optimized Parameters   !
                           ! (Angstroms and Degrees)  !
 --------------------------                            --------------------------
 ! Name  Definition              Value          Derivative Info.                !
 --------------------------------------------------------------------------------
 ! R1    R(1,2)                  1.5161         -DE/DX =   -0.0001              !
 ! R2    R(1,4)                  1.0954         -DE/DX =    0.0                 !
 ! R3    R(1,5)                  1.0931         -DE/DX =    0.0                 !
 ! R4    R(1,6)                  1.0931         -DE/DX =    0.0                 !
 ! R5    R(2,3)                  1.8003         -DE/DX =    0.0                 !
 ! R6    R(2,7)                  1.0908         -DE/DX =    0.0                 !
 ! R7    R(2,8)                  1.0908         -DE/DX =    0.0                 !
 ! A1    A(2,1,4)              109.4856         -DE/DX =    0.0001              !
 ! A2    A(2,1,5)              110.871          -DE/DX =    0.0                 !
 ! A3    A(2,1,6)              110.8711         -DE/DX =    0.0                 !
 ! A4    A(4,1,5)              108.5383         -DE/DX =    0.0                 !
 ! A5    A(4,1,6)              108.5385         -DE/DX =    0.0                 !
 ! A6    A(5,1,6)              108.471          -DE/DX =    0.0                 !
 ! A7    A(1,2,3)              111.0436         -DE/DX =   -0.0001              !
 ! A8    A(1,2,7)              111.8515         -DE/DX =    0.0                 !
 ! A9    A(1,2,8)              111.8515         -DE/DX =    0.0                 !
 ! A10   A(3,2,7)              106.4284         -DE/DX =    0.0                 !
 ! A11   A(3,2,8)              106.4284         -DE/DX =    0.0                 !
 ! A12   A(7,2,8)              108.9471         -DE/DX =    0.0                 !
 ! D1    D(4,1,2,3)            180.0004         -DE/DX =    0.0                 !
 ! D2    D(4,1,2,7)             61.2649         -DE/DX =    0.0                 !
 ! D3    D(4,1,2,8)            -61.2639         -DE/DX =    0.0                 !
 ! D4    D(5,1,2,3)            -60.2738         -DE/DX =    0.0                 !
 ! D5    D(5,1,2,7)           -179.0093         -DE/DX =    0.0                 !
 ! D6    D(5,1,2,8)             58.4619         -DE/DX =    0.0                 !
 ! D7    D(6,1,2,3)             60.2744         -DE/DX =    0.0                 !
 ! D8    D(6,1,2,7)            -58.4612         -DE/DX =    0.0                 !
 ! D9    D(6,1,2,8)            179.01           -DE/DX =    0.0                 !
 --------------------------------------------------------------------------------
 GradGradGradGradGradGradGradGradGradGradGradGradGradGradGradGradGradGrad

 1\1\GINC-KATANA1\Freq\RM062X\6-31+G(d)\C2H5Cl1\Z5358697\19-Mar-2025\0\
 \#N Geom=AllCheck Guess=TCheck SCRF=Check GenChk RM062X/6-31+G(d) Freq
 \\chloroethane\\0,1\C,0.1426687785,-0.7272249591,0.8026383644\C,1.3537
 574406,-0.3695945694,1.6415791229\Cl,2.8507345808,-0.3526886039,0.6415
 818176\H,-0.7518761799,-0.730079884,1.4348891113\H,-0.0023274842,-0.00
 10186475,-0.0013545333\H,0.2565788039,-1.7188955896,0.3571978568\H,1.5
 236011513,-1.0942332917,2.4389617755\H,1.2644629089,0.6251355452,2.080
 1064848\\Version=ES64L-G09RevD.01\State=1-A\HF=-539.3444078\RMSD=1.228
 e-09\RMSF=5.250e-05\ZeroPoint=0.0675946\Thermal=0.071613\Dipole=-0.786
 7127,-0.0264123,0.4415518\DipoleDeriv=-0.0843233,-0.0267131,-0.0204328
 ,-0.0108462,0.0600176,-0.014235,0.0555856,-0.0027772,0.0111736,0.77466
 41,0.0377617,-0.265043,0.0277967,0.1596743,-0.0076388,-0.3127897,-0.01
 48353,0.3118716,-0.5957027,-0.0331852,0.1300032,-0.0181099,-0.1983502,
 -0.0006355,0.2022347,0.0102509,-0.2924105,-0.1079034,-0.0150379,0.0729
 142,-0.0159478,0.0889655,-0.0070887,0.0685542,-0.0077459,0.0062373,0.0
 622083,-0.0122158,-0.0082793,0.0155704,-0.0135005,0.0919049,-0.0590542
 ,0.0661762,-0.0190606,0.0579497,0.0435763,0.0060307,-0.0033354,-0.0707
 778,-0.0683555,-0.0348271,-0.0564371,0.0424757,-0.0533017,-0.0061789,0
 .0312901,0.0060116,0.0171852,0.0830392,0.0295495,0.0617527,-0.0604878,
 -0.0535909,0.0119929,0.053517,-0.0011392,-0.0432141,-0.0769907,0.05074
 7,-0.0563842,0.0002007\Polar=42.5619654,0.9672869,30.4415983,-4.231284
 9,0.0543342,33.6002846\PG=C01 [X(C2H5Cl1)]\NImag=0\\0.52138966,-0.0185
 5935,0.59063108,-0.03539792,-0.00997671,0.57326571,-0.15729899,-0.0261
 5239,-0.07348429,0.37484358,-0.02588498,-0.09367486,-0.02027833,-0.020
 96512,0.60743435,-0.07220314,-0.02008533,-0.12963491,0.07156236,-0.011
 74609,0.50509126,-0.03451679,-0.00048068,0.02384497,-0.09669630,0.0013
 6113,0.05074745,0.15760667,-0.00589827,0.00169716,0.00427417,0.0011030
 7,-0.03523877,0.00022458,0.00199670,0.02232543,-0.00211160,0.00036206,
 0.00495358,0.04951112,0.00003825,-0.07102167,-0.08833780,-0.00001458,0
 .08574840,-0.22595024,-0.00032301,0.12696882,-0.01967247,0.00067883,0.
 01624877,-0.00480951,-0.00128622,-0.00181655,0.24575726,-0.00031662,-0
 .04809868,-0.00039348,-0.00555131,-0.00146823,0.00499505,-0.00199075,0
 .00084079,-0.00032648,0.00110112,0.04627040,0.12699918,-0.00038883,-0.
 14153448,-0.01360078,0.00049632,0.01052469,-0.00519182,-0.00083520,0.0
 0095644,-0.13898991,0.00066657,0.14952011,-0.05232035,0.02267318,-0.02
 348174,-0.00599988,0.02013919,-0.02208296,0.00199070,0.00037476,-0.000
 02840,0.00495009,-0.01926200,0.01952933,0.05616892,0.02417880,-0.17523
 402,0.13631412,-0.00163359,0.00716720,-0.00775169,0.00073365,-0.000026
 23,-0.00047185,-0.00051067,0.00033458,-0.00206505,-0.02427933,0.184714
 19,-0.02611001,0.13491394,-0.19628545,-0.00139143,0.01290498,-0.014956
 41,0.00036106,-0.00056652,0.00142362,-0.00315206,0.01166285,-0.0127974
 2,0.03083453,-0.14744954,0.21151410,-0.05168643,0.03036680,0.01382667,
 0.00126983,-0.02851212,-0.01221167,0.00212605,0.00015871,-0.00019736,-
 0.00191706,0.02540690,0.00959267,-0.00141715,0.00302025,0.00212681,0.0
 5527512,0.02787267,-0.27870799,-0.10028951,0.00080092,-0.00622130,-0.0
 0307855,-0.00002404,0.00047554,0.00084385,0.00011822,0.00210758,0.0016
 3446,0.00250383,-0.01830441,-0.00956814,-0.02988823,0.29849309,0.01171
 879,-0.09960313,-0.09344661,0.00322317,-0.01829050,-0.00883748,0.00025
 738,0.00106574,0.00078645,0.00095266,-0.01681393,-0.00770310,-0.002631
 99,0.02272239,0.01160086,-0.01054058,0.11109966,0.09862988,-0.00324268
 ,0.01890885,-0.02056687,-0.05086545,0.03096800,-0.03664862,-0.01046460
 ,-0.01476016,0.02546693,0.00075504,0.00020062,0.00080090,-0.00428198,-
 0.00223110,-0.00318957,0.00097456,-0.00039333,0.00074026,0.06571007,-0
 .00148893,0.00771807,-0.00809432,0.03109356,-0.18417685,0.13801911,0.0
 0007487,0.00385542,-0.00347022,0.00063514,0.00013132,0.00056380,-0.002
 05346,0.00058479,-0.00184002,0.00058990,0.00075493,0.00003194,-0.03384
 268,0.18927992,-0.00364531,0.01181079,-0.01124908,-0.03863167,0.137704
 65,-0.19776268,0.00756367,0.00753591,-0.01270163,-0.00020973,0.0000417
 1,0.00045823,-0.00324976,-0.00125504,-0.00073553,0.00094090,0.00013695
 ,0.00018031,0.03604746,-0.14712598,0.20995208,0.00362583,-0.02643340,-
 0.01170965,-0.04558032,0.02221507,0.00458781,-0.01523621,0.01831140,0.
 01751366,0.00088689,0.00041204,0.00086043,0.00090965,0.00072199,0.0005
 2067,-0.00462492,-0.00099003,-0.00371969,0.00141503,0.00499159,0.00118
 444,0.05860405,0.00009667,-0.00433077,-0.00155593,0.02130486,-0.293821
 53,-0.10057707,-0.00167088,0.00607065,0.00303898,-0.00041341,-0.000117
 76,-0.00007208,-0.00009617,0.00076390,-0.00005756,-0.00114222,0.001402
 54,-0.00021217,0.00114981,-0.01814761,-0.00884899,-0.01922866,0.308180
 58,0.00075001,-0.01703279,-0.00606878,0.00281153,-0.10082927,-0.093402
 80,0.01075510,-0.01168409,-0.01014518,-0.00000201,0.00016771,0.0005755
 4,0.00111098,-0.00004334,0.00023622,-0.00353744,-0.00077871,-0.0012103
 2,-0.00265049,0.02191569,0.01185830,-0.00923767,0.10828482,0.09815702\
 \-0.00016551,-0.00004385,-0.00008819,0.00005617,-0.00000096,-0.0000454
 6,0.00001551,0.00002045,0.00008689,0.00004392,0.00000456,-0.00001090,0
 .00006264,-0.00001058,-0.00000571,0.00005736,0.00002490,-0.00001314,-0
 .00003514,0.00000348,0.00003801,-0.00003495,0.00000200,0.00003851\\\@


 I do not feel obliged to believe that the same God who
 has endowed us with sense, reason, and intellect has
 intended us to forgo their use.
                   --Galileo Galilei
 Job cpu time:       0 days  0 hours  0 minutes 26.2 seconds.
 File lengths (MBytes):  RWF=    132 Int=      0 D2E=      0 Chk=      2 Scr=      2
 Normal termination of Gaussian 09 at Wed Mar 19 11:58:54 2025.
