 Entering Gaussian System, Link 0=g09
 Initial command:
 /apps/z_install_tree/linux-rocky8-ivybridge/gcc-12.2.0/gaussian-09-D.01-wczn3gur5lpur3omlkzwa2l5ecyxp5ef/g09/l1.exe "/srv/scratch/z5358697/gauss/Gau-2384612.inp" -scrdir="/srv/scratch/z5358697/gauss/"
 Entering Link 1 = /apps/z_install_tree/linux-rocky8-ivybridge/gcc-12.2.0/gaussian-09-D.01-wczn3gur5lpur3omlkzwa2l5ecyxp5ef/g09/l1.exe PID=   2384614.
  
 Copyright (c) 1988,1990,1992,1993,1995,1998,2003,2009,2013,
            Gaussian, Inc.  All Rights Reserved.
  
 This is part of the Gaussian(R) 09 program.  It is based on
 the Gaussian(R) 03 system (copyright 2003, Gaussian, Inc.),
 the Gaussian(R) 98 system (copyright 1998, Gaussian, Inc.),
 the Gaussian(R) 94 system (copyright 1995, Gaussian, Inc.),
 the Gaussian 92(TM) system (copyright 1992, Gaussian, Inc.),
 the Gaussian 90(TM) system (copyright 1990, Gaussian, Inc.),
 the Gaussian 88(TM) system (copyright 1988, Gaussian, Inc.),
 the Gaussian 86(TM) system (copyright 1986, Carnegie Mellon
 University), and the Gaussian 82(TM) system (copyright 1983,
 Carnegie Mellon University). Gaussian is a federally registered
 trademark of Gaussian, Inc.
  
 This software contains proprietary and confidential information,
 including trade secrets, belonging to Gaussian, Inc.
  
 This software is provided under written license and may be
 used, copied, transmitted, or stored only in accord with that
 written license.
  
 The following legend is applicable only to US Government
 contracts under FAR:
  
                    RESTRICTED RIGHTS LEGEND
  
 Use, reproduction and disclosure by the US Government is
 subject to restrictions as set forth in subparagraphs (a)
 and (c) of the Commercial Computer Software - Restricted
 Rights clause in FAR 52.227-19.
  
 Gaussian, Inc.
 340 Quinnipiac St., Bldg. 40, Wallingford CT 06492
  
  
 ---------------------------------------------------------------
 Warning -- This program may not be used in any manner that
 competes with the business of Gaussian, Inc. or will provide
 assistance to any competitor of Gaussian, Inc.  The licensee
 of this program is prohibited from giving any competitor of
 Gaussian, Inc. access to this program.  By using this program,
 the user acknowledges that Gaussian, Inc. is engaged in the
 business of creating and licensing software in the field of
 computational chemistry and represents and warrants to the
 licensee that it is not a competitor of Gaussian, Inc. and that
 it will not use this program in any manner prohibited above.
 ---------------------------------------------------------------
  

 Cite this work as:
 Gaussian 09, Revision D.01,
 M. J. Frisch, G. W. Trucks, H. B. Schlegel, G. E. Scuseria, 
 M. A. Robb, J. R. Cheeseman, G. Scalmani, V. Barone, B. Mennucci, 
 G. A. Petersson, H. Nakatsuji, M. Caricato, X. Li, H. P. Hratchian, 
 A. F. Izmaylov, J. Bloino, G. Zheng, J. L. Sonnenberg, M. Hada, 
 M. Ehara, K. Toyota, R. Fukuda, J. Hasegawa, M. Ishida, T. Nakajima, 
 Y. Honda, O. Kitao, H. Nakai, T. Vreven, J. A. Montgomery, Jr., 
 J. E. Peralta, F. Ogliaro, M. Bearpark, J. J. Heyd, E. Brothers, 
 K. N. Kudin, V. N. Staroverov, T. Keith, R. Kobayashi, J. Normand, 
 K. Raghavachari, A. Rendell, J. C. Burant, S. S. Iyengar, J. Tomasi, 
 M. Cossi, N. Rega, J. M. Millam, M. Klene, J. E. Knox, J. B. Cross, 
 V. Bakken, C. Adamo, J. Jaramillo, R. Gomperts, R. E. Stratmann, 
 O. Yazyev, A. J. Austin, R. Cammi, C. Pomelli, J. W. Ochterski, 
 R. L. Martin, K. Morokuma, V. G. Zakrzewski, G. A. Voth, 
 P. Salvador, J. J. Dannenberg, S. Dapprich, A. D. Daniels, 
 O. Farkas, J. B. Foresman, J. V. Ortiz, J. Cioslowski, 
 and D. J. Fox, Gaussian, Inc., Wallingford CT, 2013.
 
 ******************************************
 Gaussian 09:  ES64L-G09RevD.01 24-Apr-2013
                16-Mar-2025 
 ******************************************
 ---------------------------------
 #m062X/6-31+G(d) OPT Freq=noraman
 ---------------------------------
 1/14=-1,18=20,19=15,26=3,38=1/1,3;
 2/9=110,12=2,17=6,18=5,40=1/2;
 3/5=1,6=6,7=11,11=2,16=1,25=1,30=1,71=1,74=-55/1,2,3;
 4//1;
 5/5=2,38=5/2;
 6/7=2,8=2,9=2,10=2,28=1/1;
 7//1,2,3,16;
 1/14=-1,18=20,19=15,26=3/3(2);
 2/9=110/2;
 99//99;
 2/9=110/2;
 3/5=1,6=6,7=11,11=2,16=1,25=1,30=1,71=1,74=-55/1,2,3;
 4/5=5,16=3,69=1/1;
 5/5=2,38=5/2;
 7//1,2,3,16;
 1/14=-1,18=20,19=15,26=3/3(-5);
 2/9=110/2;
 6/7=2,8=2,9=2,10=2,19=2,28=1/1;
 99/9=1/99;
 -------------------
 1,2-dichlorobenzene
 -------------------
 Symbolic Z-matrix:
 Charge =  0 Multiplicity = 1
 C                     1.8851   -1.0363   -0.1124 
 C                     2.921    -1.6309    0.6081 
 C                     2.8783   -1.652     2.0022 
 C                     1.7997   -1.0786    2.6757 
 C                     0.7638   -0.4841    1.9551 
 C                     0.8066   -0.463     0.561 
 Cl                   -0.599     0.2428    2.7315 
 Cl                    1.8044   -1.1366    4.4034 
 H                     1.9186   -1.02     -1.1979 
 H                     3.7607   -2.0773    0.0835 
 H                     3.6942   -2.1196    2.5476 
 H                     0.008    -0.0041   -0.0166 
 

 GradGradGradGradGradGradGradGradGradGradGradGradGradGradGradGradGradGrad
 Berny optimization.
 Initialization pass.
                           ----------------------------
                           !    Initial Parameters    !
                           ! (Angstroms and Degrees)  !
 --------------------------                            --------------------------
 ! Name  Definition              Value          Derivative Info.                !
 --------------------------------------------------------------------------------
 ! R1    R(1,2)                  1.3949         estimate D2E/DX2                !
 ! R2    R(1,6)                  1.3947         estimate D2E/DX2                !
 ! R3    R(1,9)                  1.0861         estimate D2E/DX2                !
 ! R4    R(2,3)                  1.3949         estimate D2E/DX2                !
 ! R5    R(2,10)                 1.0861         estimate D2E/DX2                !
 ! R6    R(3,4)                  1.3949         estimate D2E/DX2                !
 ! R7    R(3,11)                 1.0871         estimate D2E/DX2                !
 ! R8    R(4,5)                  1.3949         estimate D2E/DX2                !
 ! R9    R(4,8)                  1.7287         estimate D2E/DX2                !
 ! R10   R(5,6)                  1.3949         estimate D2E/DX2                !
 ! R11   R(5,7)                  1.7287         estimate D2E/DX2                !
 ! R12   R(6,12)                 1.0872         estimate D2E/DX2                !
 ! A1    A(2,1,6)              120.0052         estimate D2E/DX2                !
 ! A2    A(2,1,9)              119.9809         estimate D2E/DX2                !
 ! A3    A(6,1,9)              120.0139         estimate D2E/DX2                !
 ! A4    A(1,2,3)              119.9958         estimate D2E/DX2                !
 ! A5    A(1,2,10)             119.9917         estimate D2E/DX2                !
 ! A6    A(3,2,10)             120.0125         estimate D2E/DX2                !
 ! A7    A(2,3,4)              119.9999         estimate D2E/DX2                !
 ! A8    A(2,3,11)             119.0084         estimate D2E/DX2                !
 ! A9    A(4,3,11)             120.9918         estimate D2E/DX2                !
 ! A10   A(3,4,5)              119.9999         estimate D2E/DX2                !
 ! A11   A(3,4,8)              117.8177         estimate D2E/DX2                !
 ! A12   A(5,4,8)              122.1824         estimate D2E/DX2                !
 ! A13   A(4,5,6)              119.9967         estimate D2E/DX2                !
 ! A14   A(4,5,7)              122.1838         estimate D2E/DX2                !
 ! A15   A(6,5,7)              117.8196         estimate D2E/DX2                !
 ! A16   A(1,6,5)              120.0026         estimate D2E/DX2                !
 ! A17   A(1,6,12)             119.0123         estimate D2E/DX2                !
 ! A18   A(5,6,12)             120.9851         estimate D2E/DX2                !
 ! D1    D(6,1,2,3)             -0.0063         estimate D2E/DX2                !
 ! D2    D(6,1,2,10)           179.9974         estimate D2E/DX2                !
 ! D3    D(9,1,2,3)            179.9995         estimate D2E/DX2                !
 ! D4    D(9,1,2,10)             0.0031         estimate D2E/DX2                !
 ! D5    D(2,1,6,5)              0.004          estimate D2E/DX2                !
 ! D6    D(2,1,6,12)          -179.9893         estimate D2E/DX2                !
 ! D7    D(9,1,6,5)            179.9982         estimate D2E/DX2                !
 ! D8    D(9,1,6,12)             0.005          estimate D2E/DX2                !
 ! D9    D(1,2,3,4)              0.0043         estimate D2E/DX2                !
 ! D10   D(1,2,3,11)          -179.9993         estimate D2E/DX2                !
 ! D11   D(10,2,3,4)          -179.9994         estimate D2E/DX2                !
 ! D12   D(10,2,3,11)           -0.0029         estimate D2E/DX2                !
 ! D13   D(2,3,4,5)              0.0            estimate D2E/DX2                !
 ! D14   D(2,3,4,8)            179.9978         estimate D2E/DX2                !
 ! D15   D(11,3,4,5)          -179.9964         estimate D2E/DX2                !
 ! D16   D(11,3,4,8)             0.0014         estimate D2E/DX2                !
 ! D17   D(3,4,5,6)             -0.0023         estimate D2E/DX2                !
 ! D18   D(3,4,5,7)           -179.9991         estimate D2E/DX2                !
 ! D19   D(8,4,5,6)           -180.0            estimate D2E/DX2                !
 ! D20   D(8,4,5,7)              0.0032         estimate D2E/DX2                !
 ! D21   D(4,5,6,1)              0.0003         estimate D2E/DX2                !
 ! D22   D(4,5,6,12)           179.9934         estimate D2E/DX2                !
 ! D23   D(7,5,6,1)            179.9972         estimate D2E/DX2                !
 ! D24   D(7,5,6,12)            -0.0096         estimate D2E/DX2                !
 --------------------------------------------------------------------------------
 Trust Radius=3.00D-01 FncErr=1.00D-07 GrdErr=1.00D-06
 Number of steps in this run=     64 maximum allowed number of steps=    100.
 GradGradGradGradGradGradGradGradGradGradGradGradGradGradGradGradGradGrad

                          Input orientation:                          
 ---------------------------------------------------------------------
 Center     Atomic      Atomic             Coordinates (Angstroms)
 Number     Number       Type             X           Y           Z
 ---------------------------------------------------------------------
      1          6           0        1.885100   -1.036300   -0.112400
      2          6           0        2.921000   -1.630900    0.608100
      3          6           0        2.878300   -1.652000    2.002200
      4          6           0        1.799700   -1.078600    2.675700
      5          6           0        0.763800   -0.484100    1.955100
      6          6           0        0.806600   -0.463000    0.561000
      7         17           0       -0.599000    0.242800    2.731500
      8         17           0        1.804400   -1.136600    4.403400
      9          1           0        1.918600   -1.020000   -1.197900
     10          1           0        3.760700   -2.077300    0.083500
     11          1           0        3.694200   -2.119600    2.547600
     12          1           0        0.008000   -0.004100   -0.016600
 ---------------------------------------------------------------------
                    Distance matrix (angstroms):
                    1          2          3          4          5
     1  C    0.000000
     2  C    1.394904   0.000000
     3  C    2.416002   1.394913   0.000000
     4  C    2.789728   2.416054   1.394908   0.000000
     5  C    2.415946   2.789816   2.416054   1.394913   0.000000
     6  C    1.394741   2.415967   2.789753   2.416023   1.394916
     7  Cl   3.986805   4.517741   4.026631   2.739156   1.728700
     8  Cl   4.517635   3.986907   2.680422   1.728680   2.739120
     9  H    1.086139   2.153982   3.400160   3.875867   3.400318
    10  H    2.154050   1.086082   2.154279   3.400356   3.875898
    11  H    3.394404   2.144371   1.087108   2.165461   3.407809
    12  H    2.144322   3.394451   3.876822   3.407817   2.165464
                    6          7          8          9         10
     6  C    0.000000
     7  Cl   2.680473   0.000000
     8  Cl   4.026584   3.236406   0.000000
     9  H    2.154187   4.834579   5.603677   0.000000
    10  H    3.400100   5.603727   4.834621   2.480565   0.000000
    11  H    3.876743   4.903705   2.825177   4.288432   2.465360
    12  H    1.087186   2.825148   4.903673   2.465343   4.288465
                   11         12
    11  H    0.000000
    12  H    4.963722   0.000000
 Stoichiometry    C6H4Cl2
 Framework group  C1[X(C6H4Cl2)]
 Deg. of freedom    30
 Full point group                 C1      NOp   1
 Largest Abelian subgroup         C1      NOp   1
 Largest concise Abelian subgroup C1      NOp   1
                         Standard orientation:                         
 ---------------------------------------------------------------------
 Center     Atomic      Atomic             Coordinates (Angstroms)
 Number     Number       Type             X           Y           Z
 ---------------------------------------------------------------------
      1          6           0        2.376586   -0.697524   -0.000037
      2          6           0        2.376736    0.697381    0.000021
      3          6           0        1.168730    1.394879   -0.000012
      4          6           0       -0.039318    0.697464   -0.000014
      5          6           0       -0.039360   -0.697449    0.000018
      6          6           0        1.168692   -1.394873    0.000003
      7         17           0       -1.502463   -1.618174   -0.000006
      8         17           0       -1.502370    1.618233    0.000003
      9          1           0        3.317332   -1.240381   -0.000020
     10          1           0        3.317448    1.240184    0.000033
     11          1           0        1.187581    2.481824    0.000022
     12          1           0        1.187414   -2.481898    0.000135
 ---------------------------------------------------------------------
 Rotational constants (GHZ):      1.8808336      1.4426510      0.8164282
 Standard basis: 6-31+G(d) (6D, 7F)
 There are   168 symmetry adapted cartesian basis functions of A   symmetry.
 There are   168 symmetry adapted basis functions of A   symmetry.
   168 basis functions,   320 primitive gaussians,   168 cartesian basis functions
    37 alpha electrons       37 beta electrons
       nuclear repulsion energy       469.0973740117 Hartrees.
 NAtoms=   12 NActive=   12 NUniq=   12 SFac= 1.00D+00 NAtFMM=   60 NAOKFM=F Big=F
 Integral buffers will be    131072 words long.
 Raffenetti 2 integral format.
 Two-electron integral symmetry is turned on.
 One-electron integrals computed using PRISM.
 NBasis=   168 RedAO= T EigKep=  2.06D-06  NBF=   168
 NBsUse=   168 1.00D-06 EigRej= -1.00D+00 NBFU=   168
 ExpMin= 4.38D-02 ExpMax= 2.52D+04 ExpMxC= 3.78D+03 IAcc=2 IRadAn=         4 AccDes= 0.00D+00
 Harris functional with IExCor= 1009 and IRadAn=       4 diagonalized for initial guess.
 HarFok:  IExCor= 1009 AccDes= 0.00D+00 IRadAn=         4 IDoV= 1 UseB2=F ITyADJ=14
 ICtDFT=  3500011 ScaDFX=  1.000000  1.000000  1.000000  1.000000
 FoFCou: FMM=F IPFlag=           0 FMFlag=      100000 FMFlg1=           0
         NFxFlg=           0 DoJE=T BraDBF=F KetDBF=T FulRan=T
         wScrn=  0.000000 ICntrl=     500 IOpCl=  0 I1Cent=   200000004 NGrid=           0
         NMat0=    1 NMatS0=      1 NMatT0=    0 NMatD0=    1 NMtDS0=    0 NMtDT0=    0
 Petite list used in FoFCou.
 Requested convergence on RMS density matrix=1.00D-08 within 128 cycles.
 Requested convergence on MAX density matrix=1.00D-06.
 Requested convergence on             energy=1.00D-06.
 No special actions if energy rises.
 SCF Done:  E(RM062X) =  -1151.27991398     A.U. after   14 cycles
            NFock= 14  Conv=0.38D-08     -V/T= 2.0039

 **********************************************************************

            Population analysis using the SCF density.

 **********************************************************************

 Orbital symmetries:
       Occupied  (A) (A) (A) (A) (A) (A) (A) (A) (A) (A) (A) (A)
                 (A) (A) (A) (A) (A) (A) (A) (A) (A) (A) (A) (A)
                 (A) (A) (A) (A) (A) (A) (A) (A) (A) (A) (A) (A)
                 (A)
       Virtual   (A) (A) (A) (A) (A) (A) (A) (A) (A) (A) (A) (A)
                 (A) (A) (A) (A) (A) (A) (A) (A) (A) (A) (A) (A)
                 (A) (A) (A) (A) (A) (A) (A) (A) (A) (A) (A) (A)
                 (A) (A) (A) (A) (A) (A) (A) (A) (A) (A) (A) (A)
                 (A) (A) (A) (A) (A) (A) (A) (A) (A) (A) (A) (A)
                 (A) (A) (A) (A) (A) (A) (A) (A) (A) (A) (A) (A)
                 (A) (A) (A) (A) (A) (A) (A) (A) (A) (A) (A) (A)
                 (A) (A) (A) (A) (A) (A) (A) (A) (A) (A) (A) (A)
                 (A) (A) (A) (A) (A) (A) (A) (A) (A) (A) (A) (A)
                 (A) (A) (A) (A) (A) (A) (A) (A) (A) (A) (A) (A)
                 (A) (A) (A) (A) (A) (A) (A) (A) (A) (A) (A)
 The electronic state is 1-A.
 Alpha  occ. eigenvalues -- -102.68228-102.68228 -10.63713 -10.63638 -10.58375
 Alpha  occ. eigenvalues --  -10.58373 -10.57896 -10.57820  -9.82885  -9.82884
 Alpha  occ. eigenvalues --   -7.55306  -7.55304  -7.54622  -7.54621  -7.54595
 Alpha  occ. eigenvalues --   -7.54593  -1.03131  -0.96826  -0.94903  -0.85657
 Alpha  occ. eigenvalues --   -0.83535  -0.71865  -0.69367  -0.60802  -0.56571
 Alpha  occ. eigenvalues --   -0.55213  -0.51399  -0.51292  -0.49958  -0.44595
 Alpha  occ. eigenvalues --   -0.44261  -0.42114  -0.40880  -0.39609  -0.37778
 Alpha  occ. eigenvalues --   -0.32144  -0.30768
 Alpha virt. eigenvalues --   -0.00541  -0.00088   0.01479   0.02038   0.02623
 Alpha virt. eigenvalues --    0.04120   0.04431   0.06058   0.06548   0.07178
 Alpha virt. eigenvalues --    0.08154   0.08520   0.09406   0.09715   0.10046
 Alpha virt. eigenvalues --    0.11911   0.12128   0.13287   0.13769   0.14227
 Alpha virt. eigenvalues --    0.14355   0.15723   0.15882   0.16988   0.17751
 Alpha virt. eigenvalues --    0.19304   0.20154   0.20746   0.21450   0.21510
 Alpha virt. eigenvalues --    0.22095   0.22832   0.23247   0.23590   0.24748
 Alpha virt. eigenvalues --    0.25239   0.25812   0.29013   0.29464   0.29467
 Alpha virt. eigenvalues --    0.33346   0.35198   0.35767   0.36661   0.37797
 Alpha virt. eigenvalues --    0.53642   0.56290   0.57503   0.60375   0.62857
 Alpha virt. eigenvalues --    0.64572   0.66971   0.68303   0.68980   0.69171
 Alpha virt. eigenvalues --    0.72399   0.73328   0.74276   0.74856   0.76017
 Alpha virt. eigenvalues --    0.76352   0.76618   0.77149   0.82036   0.83544
 Alpha virt. eigenvalues --    0.85133   0.85424   0.89367   0.91033   0.92880
 Alpha virt. eigenvalues --    0.93580   0.95197   0.96744   0.96757   0.98845
 Alpha virt. eigenvalues --    0.99343   1.03755   1.04594   1.06475   1.08815
 Alpha virt. eigenvalues --    1.11306   1.12204   1.15592   1.16757   1.19956
 Alpha virt. eigenvalues --    1.20502   1.25165   1.27108   1.34711   1.35129
 Alpha virt. eigenvalues --    1.45067   1.45808   1.49808   1.50751   1.52301
 Alpha virt. eigenvalues --    1.53963   1.57877   1.59687   1.79088   1.84780
 Alpha virt. eigenvalues --    1.88338   1.95450   2.01022   2.03816   2.11816
 Alpha virt. eigenvalues --    2.13463   2.15938   2.15959   2.17444   2.21894
 Alpha virt. eigenvalues --    2.29482   2.30313   2.33284   2.57380   2.58717
 Alpha virt. eigenvalues --    2.63489   2.67860   2.70734   2.73684   2.73880
 Alpha virt. eigenvalues --    2.85297   3.02141   3.34272   4.19685   4.24823
 Alpha virt. eigenvalues --    4.28890   4.37059   4.37323   4.44702   4.47877
 Alpha virt. eigenvalues --    4.68463
          Condensed to atoms (all electrons):
               1          2          3          4          5          6
     1  C    5.187828   0.629943  -0.079617  -0.237387   0.165444   0.162042
     2  C    0.629943   5.187404   0.162578   0.165232  -0.237263  -0.079541
     3  C   -0.079617   0.162578   6.730596  -0.530143   0.494035  -0.582081
     4  C   -0.237387   0.165232  -0.530143   8.016611  -1.749350   0.494143
     5  C    0.165444  -0.237263   0.494035  -1.749350   8.016997  -0.530849
     6  C    0.162042  -0.079541  -0.582081   0.494143  -0.530849   6.731776
     7  Cl   0.057266  -0.019368   0.051718  -0.250582   0.171833  -0.149714
     8  Cl  -0.019386   0.057221  -0.149669   0.171817  -0.250589   0.051740
     9  H    0.300319   0.001410   0.022330  -0.011093   0.025487  -0.029717
    10  H    0.001384   0.300388  -0.029765   0.025501  -0.011106   0.022343
    11  H   -0.007437  -0.005808   0.231900   0.028610   0.057062   0.003051
    12  H   -0.005772  -0.007461   0.003069   0.057058   0.028659   0.231817
               7          8          9         10         11         12
     1  C    0.057266  -0.019386   0.300319   0.001384  -0.007437  -0.005772
     2  C   -0.019368   0.057221   0.001410   0.300388  -0.005808  -0.007461
     3  C    0.051718  -0.149669   0.022330  -0.029765   0.231900   0.003069
     4  C   -0.250582   0.171817  -0.011093   0.025501   0.028610   0.057058
     5  C    0.171833  -0.250589   0.025487  -0.011106   0.057062   0.028659
     6  C   -0.149714   0.051740  -0.029717   0.022343   0.003051   0.231817
     7  Cl  16.905235   0.025973   0.000636   0.000111   0.000692   0.000248
     8  Cl   0.025973  16.905276   0.000111   0.000636   0.000247   0.000692
     9  H    0.000636   0.000111   0.479947  -0.003635  -0.000134  -0.004006
    10  H    0.000111   0.000636  -0.003635   0.479925  -0.004004  -0.000134
    11  H    0.000692   0.000247  -0.000134  -0.004004   0.460054   0.000010
    12  H    0.000248   0.000692  -0.004006  -0.000134   0.000010   0.460058
 Mulliken charges:
               1
     1  C   -0.154625
     2  C   -0.154735
     3  C   -0.324951
     4  C   -0.180418
     5  C   -0.180360
     6  C   -0.325012
     7  Cl   0.205952
     8  Cl   0.205932
     9  H    0.218345
    10  H    0.218355
    11  H    0.235756
    12  H    0.235762
 Sum of Mulliken charges =   0.00000
 Mulliken charges with hydrogens summed into heavy atoms:
               1
     1  C    0.063720
     2  C    0.063620
     3  C   -0.089195
     4  C   -0.180418
     5  C   -0.180360
     6  C   -0.089250
     7  Cl   0.205952
     8  Cl   0.205932
 Electronic spatial extent (au):  <R**2>=           1291.4080
 Charge=              0.0000 electrons
 Dipole moment (field-independent basis, Debye):
    X=              2.7212    Y=              0.0000    Z=              0.0001  Tot=              2.7212
 Quadrupole moment (field-independent basis, Debye-Ang):
   XX=            -55.1508   YY=            -56.2759   ZZ=            -63.4681
   XY=              0.0006   XZ=              0.0002   YZ=             -0.0002
 Traceless Quadrupole moment (field-independent basis, Debye-Ang):
   XX=              3.1474   YY=              2.0223   ZZ=             -5.1698
   XY=              0.0006   XZ=              0.0002   YZ=             -0.0002
 Octapole moment (field-independent basis, Debye-Ang**2):
  XXX=              3.4678  YYY=             -0.0001  ZZZ=              0.0002  XYY=              4.4726
  XXY=              0.0016  XXZ=              0.0004  XZZ=             -9.4692  YZZ=              0.0000
  YYZ=              0.0011  XYZ=             -0.0003
 Hexadecapole moment (field-independent basis, Debye-Ang**3):
 XXXX=           -858.6744 YYYY=           -677.8812 ZZZZ=            -74.3498 XXXY=              0.0078
 XXXZ=              0.0014 YYYX=              0.0024 YYYZ=             -0.0016 ZZZX=              0.0004
 ZZZY=              0.0000 XXYY=           -247.2487 XXZZ=           -185.7429 YYZZ=           -138.2500
 XXYZ=              0.0005 YYXZ=              0.0017 ZZXY=              0.0000
 N-N= 4.690973740117D+02 E-N=-3.659780505834D+03  KE= 1.146780453966D+03
 Calling FoFJK, ICntrl=      2127 FMM=F ISym2X=0 I1Cent= 0 IOpClX= 0 NMat=1 NMatS=1 NMatT=0.
 ***** Axes restored to original set *****
 -------------------------------------------------------------------
 Center     Atomic                   Forces (Hartrees/Bohr)
 Number     Number              X              Y              Z
 -------------------------------------------------------------------
      1        6          -0.000072937   -0.000062163    0.002856227
      2        6          -0.002268071    0.001213395    0.001561138
      3        6           0.002073206   -0.000853800   -0.009263075
      4        6           0.005092411   -0.002811356    0.000020574
      5        6          -0.002312142    0.001446307   -0.005136930
      6        6           0.006193558   -0.003223489   -0.006227898
      7       17          -0.001011284    0.000423534    0.004113334
      8       17          -0.002782604    0.001443147    0.002896826
      9        1          -0.000954663    0.000510886    0.000513557
     10        1           0.000049871   -0.000065557    0.001171893
     11        1          -0.003138551    0.001637861    0.002962980
     12        1          -0.000868795    0.000341235    0.004531374
 -------------------------------------------------------------------
 Cartesian Forces:  Max     0.009263075 RMS     0.003096256

 GradGradGradGradGradGradGradGradGradGradGradGradGradGradGradGradGradGrad
 Berny optimization.
 FormGI is forming the generalized inverse of G from B-inverse, IUseBI=4.
 Internal  Forces:  Max     0.005467220 RMS     0.002103097
 Search for a local minimum.
 Step number   1 out of a maximum of   64
 All quantities printed in internal units (Hartrees-Bohrs-Radians)
 Mixed Optimization -- RFO/linear search
 Second derivative matrix not updated -- first step.
 ITU=  0
     Eigenvalues ---    0.02156   0.02156   0.02156   0.02156   0.02156
     Eigenvalues ---    0.02156   0.02157   0.02157   0.02158   0.16000
     Eigenvalues ---    0.16000   0.16000   0.16000   0.22000   0.22493
     Eigenvalues ---    0.24487   0.25000   0.25000   0.32646   0.32649
     Eigenvalues ---    0.35140   0.35149   0.35263   0.35269   0.42236
     Eigenvalues ---    0.42404   0.46474   0.46474   0.46475   0.46494
 RFO step:  Lambda=-1.07553805D-03 EMin= 2.15602178D-02
 Linear search not attempted -- first point.
 Iteration  1 RMS(Cart)=  0.01443790 RMS(Int)=  0.00019130
 Iteration  2 RMS(Cart)=  0.00019636 RMS(Int)=  0.00000064
 Iteration  3 RMS(Cart)=  0.00000001 RMS(Int)=  0.00000064
 Variable       Old X    -DE/DX   Delta X   Delta X   Delta X     New X
                                 (Linear)    (Quad)   (Total)
    R1        2.63599  -0.00078   0.00000  -0.00181  -0.00181   2.63418
    R2        2.63568  -0.00302   0.00000  -0.00653  -0.00653   2.62915
    R3        2.05251  -0.00054   0.00000  -0.00151  -0.00151   2.05099
    R4        2.63600  -0.00315   0.00000  -0.00684  -0.00684   2.62917
    R5        2.05240  -0.00050   0.00000  -0.00141  -0.00141   2.05098
    R6        2.63599  -0.00120   0.00000  -0.00252  -0.00252   2.63348
    R7        2.05434  -0.00157   0.00000  -0.00446  -0.00446   2.04987
    R8        2.63600  -0.00052   0.00000  -0.00098  -0.00098   2.63502
    R9        3.26673   0.00284   0.00000   0.00867   0.00867   3.27540
   R10        2.63601  -0.00121   0.00000  -0.00252  -0.00252   2.63349
   R11        3.26677   0.00282   0.00000   0.00862   0.00862   3.27539
   R12        2.05448  -0.00163   0.00000  -0.00461  -0.00461   2.04987
    A1        2.09449  -0.00007   0.00000  -0.00078  -0.00078   2.09371
    A2        2.09406   0.00114   0.00000   0.00722   0.00722   2.10128
    A3        2.09464  -0.00107   0.00000  -0.00644  -0.00644   2.08820
    A4        2.09432  -0.00003   0.00000  -0.00065  -0.00065   2.09368
    A5        2.09425   0.00111   0.00000   0.00709   0.00709   2.10134
    A6        2.09461  -0.00107   0.00000  -0.00645  -0.00645   2.08816
    A7        2.09439   0.00059   0.00000   0.00254   0.00254   2.09693
    A8        2.07709   0.00416   0.00000   0.02641   0.02641   2.10349
    A9        2.11170  -0.00475   0.00000  -0.02895  -0.02895   2.08276
   A10        2.09439  -0.00052   0.00000  -0.00182  -0.00182   2.09257
   A11        2.05631   0.00547   0.00000   0.02164   0.02164   2.07795
   A12        2.13249  -0.00494   0.00000  -0.01982  -0.01982   2.11266
   A13        2.09434  -0.00052   0.00000  -0.00179  -0.00179   2.09255
   A14        2.13251  -0.00494   0.00000  -0.01984  -0.01984   2.11267
   A15        2.05634   0.00547   0.00000   0.02162   0.02162   2.07796
   A16        2.09444   0.00056   0.00000   0.00249   0.00249   2.09693
   A17        2.07716   0.00417   0.00000   0.02638   0.02638   2.10353
   A18        2.11159  -0.00473   0.00000  -0.02887  -0.02887   2.08272
    D1       -0.00011   0.00000   0.00000   0.00015   0.00015   0.00004
    D2        3.14155   0.00000   0.00000   0.00006   0.00006  -3.14157
    D3        3.14158   0.00000   0.00000   0.00002   0.00002  -3.14159
    D4        0.00005   0.00000   0.00000  -0.00007  -0.00007  -0.00002
    D5        0.00007   0.00000   0.00000  -0.00008  -0.00008  -0.00001
    D6       -3.14141   0.00000   0.00000  -0.00019  -0.00019   3.14159
    D7        3.14156   0.00000   0.00000   0.00005   0.00005  -3.14157
    D8        0.00009   0.00000   0.00000  -0.00006  -0.00006   0.00003
    D9        0.00007   0.00000   0.00000  -0.00011  -0.00011  -0.00003
   D10       -3.14158   0.00000   0.00000  -0.00004  -0.00004   3.14157
   D11       -3.14158   0.00000   0.00000  -0.00002  -0.00002   3.14158
   D12       -0.00005   0.00000   0.00000   0.00005   0.00005   0.00000
   D13        0.00000   0.00000   0.00000   0.00000   0.00000   0.00000
   D14        3.14155   0.00000   0.00000   0.00006   0.00006  -3.14157
   D15       -3.14153   0.00000   0.00000  -0.00007  -0.00007   3.14158
   D16        0.00002   0.00000   0.00000  -0.00001  -0.00001   0.00001
   D17       -0.00004   0.00000   0.00000   0.00006   0.00006   0.00002
   D18       -3.14158   0.00000   0.00000  -0.00001  -0.00001  -3.14158
   D19       -3.14159   0.00000   0.00000   0.00000   0.00000  -3.14159
   D20        0.00006   0.00000   0.00000  -0.00007  -0.00007  -0.00001
   D21        0.00001   0.00000   0.00000  -0.00002  -0.00002  -0.00002
   D22        3.14148   0.00000   0.00000   0.00009   0.00009   3.14157
   D23        3.14154   0.00000   0.00000   0.00004   0.00004   3.14159
   D24       -0.00017   0.00000   0.00000   0.00016   0.00016  -0.00001
         Item               Value     Threshold  Converged?
 Maximum Force            0.005467     0.000450     NO 
 RMS     Force            0.002103     0.000300     NO 
 Maximum Displacement     0.048310     0.001800     NO 
 RMS     Displacement     0.014502     0.001200     NO 
 Predicted change in Energy=-5.406157D-04
 GradGradGradGradGradGradGradGradGradGradGradGradGradGradGradGradGradGrad

                          Input orientation:                          
 ---------------------------------------------------------------------
 Center     Atomic      Atomic             Coordinates (Angstroms)
 Number     Number       Type             X           Y           Z
 ---------------------------------------------------------------------
      1          6           0        1.888993   -1.038319   -0.118730
      2          6           0        2.924184   -1.632412    0.601358
      3          6           0        2.880704   -1.653020    1.991821
      4          6           0        1.804180   -1.080823    2.666907
      5          6           0        0.768679   -0.486509    1.946585
      6          6           0        0.813593   -0.466656    0.553868
      7         17           0       -0.584341    0.233932    2.755593
      8         17           0        1.778835   -1.122365    4.399490
      9          1           0        1.915683   -1.018258   -1.203555
     10          1           0        3.766493   -2.080450    0.083936
     11          1           0        3.681279   -2.112894    2.561268
     12          1           0        0.003119   -0.001926    0.002658
 ---------------------------------------------------------------------
                    Distance matrix (angstroms):
                    1          2          3          4          5
     1  C    0.000000
     2  C    1.393949   0.000000
     3  C    2.411591   1.391295   0.000000
     4  C    2.787252   2.413535   1.393576   0.000000
     5  C    2.413530   2.787280   2.413181   1.394394   0.000000
     6  C    1.391285   2.411604   2.783543   2.413171   1.393582
     7  Cl   3.999718   4.520366   4.018765   2.727907   1.733261
     8  Cl   4.520344   3.999722   2.700477   1.733266   2.727906
     9  H    1.085339   2.156843   3.397737   3.872573   3.394372
    10  H    2.156876   1.085333   2.146473   3.394358   3.872596
    11  H    3.398439   2.155296   1.084746   2.144722   3.392079
    12  H    2.155311   3.398462   3.868251   3.392058   2.144704
                    6          7          8          9         10
     6  C    0.000000
     7  Cl   2.700488   0.000000
     8  Cl   4.018762   3.182223   0.000000
     9  H    2.146487   4.846953   5.605683   0.000000
    10  H    3.397762   5.605700   4.846928   2.492264   0.000000
    11  H    3.868252   4.872460   2.824801   4.299936   2.479009
    12  H    1.084746   2.824781   4.872440   2.479069   4.299982
                   11         12
    11  H    0.000000
    12  H    4.952931   0.000000
 Stoichiometry    C6H4Cl2
 Framework group  C1[X(C6H4Cl2)]
 Deg. of freedom    30
 Full point group                 C1      NOp   1
 Largest Abelian subgroup         C1      NOp   1
 Largest concise Abelian subgroup C1      NOp   1
                         Standard orientation:                         
 ---------------------------------------------------------------------
 Center     Atomic      Atomic             Coordinates (Angstroms)
 Number     Number       Type             X           Y           Z
 ---------------------------------------------------------------------
      1          6           0        2.385602   -0.696998    0.000009
      2          6           0        2.385631    0.696951   -0.000017
      3          6           0        1.180249    1.391757    0.000005
      4          6           0       -0.027903    0.697192    0.000011
      5          6           0       -0.027928   -0.697201   -0.000001
      6          6           0        1.180221   -1.391786    0.000009
      7         17           0       -1.512902   -1.591095   -0.000006
      8         17           0       -1.512858    1.591128    0.000001
      9          1           0        3.321761   -1.246148   -0.000003
     10          1           0        3.321775    1.246116   -0.000035
     11          1           0        1.169622    2.476451    0.000006
     12          1           0        1.169537   -2.476479    0.000026
 ---------------------------------------------------------------------
 Rotational constants (GHZ):      1.9262679      1.4270250      0.8197412
 Standard basis: 6-31+G(d) (6D, 7F)
 There are   168 symmetry adapted cartesian basis functions of A   symmetry.
 There are   168 symmetry adapted basis functions of A   symmetry.
   168 basis functions,   320 primitive gaussians,   168 cartesian basis functions
    37 alpha electrons       37 beta electrons
       nuclear repulsion energy       469.8160173081 Hartrees.
 NAtoms=   12 NActive=   12 NUniq=   12 SFac= 1.00D+00 NAtFMM=   60 NAOKFM=F Big=F
 Integral buffers will be    131072 words long.
 Raffenetti 2 integral format.
 Two-electron integral symmetry is turned on.
 One-electron integrals computed using PRISM.
 NBasis=   168 RedAO= T EigKep=  2.08D-06  NBF=   168
 NBsUse=   168 1.00D-06 EigRej= -1.00D+00 NBFU=   168
 Initial guess from the checkpoint file:  "/srv/scratch/z5358697/gauss/Gau-2384614.chk"
 B after Tr=     0.000000    0.000000    0.000000
         Rot=    1.000000    0.000000    0.000000   -0.000007 Ang=   0.00 deg.
 ExpMin= 4.38D-02 ExpMax= 2.52D+04 ExpMxC= 3.78D+03 IAcc=2 IRadAn=         4 AccDes= 0.00D+00
 Harris functional with IExCor= 1009 and IRadAn=       4 diagonalized for initial guess.
 HarFok:  IExCor= 1009 AccDes= 0.00D+00 IRadAn=         4 IDoV= 1 UseB2=F ITyADJ=14
 ICtDFT=  3500011 ScaDFX=  1.000000  1.000000  1.000000  1.000000
 FoFCou: FMM=F IPFlag=           0 FMFlag=      100000 FMFlg1=           0
         NFxFlg=           0 DoJE=T BraDBF=F KetDBF=T FulRan=T
         wScrn=  0.000000 ICntrl=     500 IOpCl=  0 I1Cent=   200000004 NGrid=           0
         NMat0=    1 NMatS0=      1 NMatT0=    0 NMatD0=    1 NMtDS0=    0 NMtDT0=    0
 Petite list used in FoFCou.
 Requested convergence on RMS density matrix=1.00D-08 within 128 cycles.
 Requested convergence on MAX density matrix=1.00D-06.
 Requested convergence on             energy=1.00D-06.
 No special actions if energy rises.
 SCF Done:  E(RM062X) =  -1151.28048611     A.U. after   11 cycles
            NFock= 11  Conv=0.94D-08     -V/T= 2.0039
 Calling FoFJK, ICntrl=      2127 FMM=F ISym2X=0 I1Cent= 0 IOpClX= 0 NMat=1 NMatS=1 NMatT=0.
 ***** Axes restored to original set *****
 -------------------------------------------------------------------
 Center     Atomic                   Forces (Hartrees/Bohr)
 Number     Number              X              Y              Z
 -------------------------------------------------------------------
      1        6           0.000092705   -0.000069624    0.000696300
      2        6          -0.000599643    0.000319612    0.000244418
      3        6           0.000697413   -0.000324467   -0.001835753
      4        6           0.001466590   -0.000840278    0.001033872
      5        6          -0.001470799    0.000841930   -0.001020208
      6        6           0.001121711   -0.000571145   -0.001521051
      7       17          -0.000739418    0.000413729   -0.000177121
      8       17           0.000473161   -0.000282970    0.000666234
      9        1          -0.000172821    0.000094549   -0.000001392
     10        1           0.000078820   -0.000049003    0.000167218
     11        1          -0.000275780    0.000119867    0.001014440
     12        1          -0.000671941    0.000347800    0.000733044
 -------------------------------------------------------------------
 Cartesian Forces:  Max     0.001835753 RMS     0.000754984

 GradGradGradGradGradGradGradGradGradGradGradGradGradGradGradGradGradGrad
 Berny optimization.
 Using GEDIIS/GDIIS optimizer.
 FormGI is forming the generalized inverse of G from B-inverse, IUseBI=4.
 Internal  Forces:  Max     0.002526798 RMS     0.000551718
 Search for a local minimum.
 Step number   2 out of a maximum of   64
 All quantities printed in internal units (Hartrees-Bohrs-Radians)
 Mixed Optimization -- En-DIIS/RFO-DIIS
 Update second derivatives using D2CorX and points    1    2
 DE= -5.72D-04 DEPred=-5.41D-04 R= 1.06D+00
 TightC=F SS=  1.41D+00  RLast= 7.28D-02 DXNew= 5.0454D-01 2.1828D-01
 Trust test= 1.06D+00 RLast= 7.28D-02 DXMaxT set to 3.00D-01
 ITU=  1  0
 Use linear search instead of GDIIS.
     Eigenvalues ---    0.02156   0.02156   0.02156   0.02156   0.02156
     Eigenvalues ---    0.02156   0.02157   0.02157   0.02158   0.12858
     Eigenvalues ---    0.16000   0.16000   0.16002   0.22000   0.22453
     Eigenvalues ---    0.24486   0.25000   0.28886   0.32139   0.32647
     Eigenvalues ---    0.35144   0.35257   0.35267   0.35416   0.42218
     Eigenvalues ---    0.42477   0.46067   0.46475   0.46484   0.48306
 RFO step:  Lambda=-6.52560646D-05 EMin= 2.15602143D-02
 Quartic linear search produced a step of  0.05820.
 Iteration  1 RMS(Cart)=  0.00376736 RMS(Int)=  0.00001200
 Iteration  2 RMS(Cart)=  0.00001241 RMS(Int)=  0.00000007
 Iteration  3 RMS(Cart)=  0.00000000 RMS(Int)=  0.00000007
 Variable       Old X    -DE/DX   Delta X   Delta X   Delta X     New X
                                 (Linear)    (Quad)   (Total)
    R1        2.63418  -0.00004  -0.00011  -0.00032  -0.00043   2.63375
    R2        2.62915  -0.00043  -0.00038  -0.00111  -0.00149   2.62766
    R3        2.05099   0.00000  -0.00009  -0.00001  -0.00009   2.05090
    R4        2.62917  -0.00044  -0.00040  -0.00112  -0.00152   2.62765
    R5        2.05098   0.00000  -0.00008   0.00000  -0.00008   2.05090
    R6        2.63348   0.00012  -0.00015   0.00038   0.00024   2.63371
    R7        2.04987   0.00028  -0.00026   0.00083   0.00057   2.05044
    R8        2.63502   0.00253  -0.00006   0.00597   0.00592   2.64094
    R9        3.27540   0.00067   0.00050   0.00217   0.00267   3.27807
   R10        2.63349   0.00012  -0.00015   0.00038   0.00023   2.63372
   R11        3.27539   0.00067   0.00050   0.00217   0.00267   3.27806
   R12        2.04987   0.00028  -0.00027   0.00083   0.00056   2.05044
    A1        2.09371   0.00026  -0.00005   0.00049   0.00045   2.09416
    A2        2.10128   0.00007   0.00042   0.00109   0.00151   2.10279
    A3        2.08820  -0.00033  -0.00037  -0.00158  -0.00196   2.08624
    A4        2.09368   0.00027  -0.00004   0.00053   0.00049   2.09416
    A5        2.10134   0.00006   0.00041   0.00104   0.00145   2.10279
    A6        2.08816  -0.00033  -0.00038  -0.00156  -0.00194   2.08623
    A7        2.09693   0.00015   0.00015   0.00069   0.00083   2.09777
    A8        2.10349   0.00097   0.00154   0.00658   0.00812   2.11161
    A9        2.08276  -0.00112  -0.00168  -0.00727  -0.00895   2.07381
   A10        2.09257  -0.00042  -0.00011  -0.00121  -0.00131   2.09126
   A11        2.07795  -0.00069   0.00126  -0.00320  -0.00194   2.07601
   A12        2.11266   0.00111  -0.00115   0.00441   0.00325   2.11592
   A13        2.09255  -0.00042  -0.00010  -0.00119  -0.00129   2.09126
   A14        2.11267   0.00111  -0.00115   0.00440   0.00325   2.11592
   A15        2.07796  -0.00070   0.00126  -0.00321  -0.00195   2.07601
   A16        2.09693   0.00015   0.00014   0.00069   0.00083   2.09777
   A17        2.10353   0.00096   0.00154   0.00655   0.00808   2.11162
   A18        2.08272  -0.00112  -0.00168  -0.00723  -0.00892   2.07380
    D1        0.00004   0.00000   0.00001  -0.00006  -0.00005  -0.00001
    D2       -3.14157   0.00000   0.00000  -0.00002  -0.00002   3.14159
    D3       -3.14159   0.00000   0.00000  -0.00001  -0.00001   3.14159
    D4       -0.00002   0.00000   0.00000   0.00002   0.00002   0.00000
    D5       -0.00001   0.00000   0.00000   0.00002   0.00002   0.00000
    D6        3.14159   0.00000  -0.00001   0.00002   0.00001  -3.14159
    D7       -3.14157   0.00000   0.00000  -0.00002  -0.00002   3.14159
    D8        0.00003   0.00000   0.00000  -0.00003  -0.00003   0.00000
    D9       -0.00003   0.00000  -0.00001   0.00005   0.00004   0.00001
   D10        3.14157   0.00000   0.00000   0.00003   0.00003  -3.14159
   D11        3.14158   0.00000   0.00000   0.00001   0.00001   3.14159
   D12        0.00000   0.00000   0.00000  -0.00001   0.00000   0.00000
   D13        0.00000   0.00000   0.00000   0.00000   0.00000   0.00000
   D14       -3.14157   0.00000   0.00000  -0.00003  -0.00003   3.14159
   D15        3.14158   0.00000   0.00000   0.00002   0.00001  -3.14159
   D16        0.00001   0.00000   0.00000  -0.00002  -0.00002   0.00000
   D17        0.00002   0.00000   0.00000  -0.00004  -0.00003  -0.00001
   D18       -3.14158   0.00000   0.00000  -0.00001  -0.00001  -3.14159
   D19       -3.14159   0.00000   0.00000   0.00000   0.00000  -3.14159
   D20       -0.00001   0.00000   0.00000   0.00003   0.00002   0.00001
   D21       -0.00002   0.00000   0.00000   0.00002   0.00002   0.00000
   D22        3.14157   0.00000   0.00001   0.00003   0.00003  -3.14159
   D23        3.14159   0.00000   0.00000   0.00000   0.00000   3.14159
   D24       -0.00001   0.00000   0.00001   0.00000   0.00001   0.00000
         Item               Value     Threshold  Converged?
 Maximum Force            0.002527     0.000450     NO 
 RMS     Force            0.000552     0.000300     NO 
 Maximum Displacement     0.012274     0.001800     NO 
 RMS     Displacement     0.003769     0.001200     NO 
 Predicted change in Energy=-3.459681D-05
 GradGradGradGradGradGradGradGradGradGradGradGradGradGradGradGradGradGrad

                          Input orientation:                          
 ---------------------------------------------------------------------
 Center     Atomic      Atomic             Coordinates (Angstroms)
 Number     Number       Type             X           Y           Z
 ---------------------------------------------------------------------
      1          6           0        1.889504   -1.038565   -0.119449
      2          6           0        2.924505   -1.632579    0.600539
      3          6           0        2.881638   -1.653471    1.990211
      4          6           0        1.805771   -1.081687    2.666949
      5          6           0        0.767938   -0.486061    1.945003
      6          6           0        0.814444   -0.467069    0.552205
      7         17           0       -0.588423    0.236350    2.749680
      8         17           0        1.785330   -1.125997    4.400944
      9          1           0        1.914767   -1.017728   -1.204244
     10          1           0        3.767418   -2.081010    0.084531
     11          1           0        3.678506   -2.111525    2.566855
     12          1           0        0.000002   -0.000358    0.007975
 ---------------------------------------------------------------------
                    Distance matrix (angstroms):
                    1          2          3          4          5
     1  C    0.000000
     2  C    1.393722   0.000000
     3  C    2.411038   1.390490   0.000000
     4  C    2.787990   2.413524   1.393701   0.000000
     5  C    2.413531   2.787986   2.415081   1.397524   0.000000
     6  C    1.390496   2.411038   2.783649   2.415084   1.393704
     7  Cl   3.999678   4.522428   4.023622   2.734269   1.734675
     8  Cl   4.522439   3.999678   2.700325   1.734681   2.734273
     9  H    1.085289   2.157511   3.397580   3.873256   3.393470
    10  H    2.157513   1.085291   2.144530   3.393463   3.873254
    11  H    3.401177   2.159701   1.085049   2.139561   3.391200
    12  H    2.159705   3.401175   3.868574   3.391197   2.139558
                    6          7          8          9         10
     6  C    0.000000
     7  Cl   2.700321   0.000000
     8  Cl   4.023630   3.196461   0.000000
     9  H    2.144539   4.844810   5.607728   0.000000
    10  H    3.397584   5.607720   4.844806   2.494760   0.000000
    11  H    3.868579   4.873666   2.814118   4.304458   2.484103
    12  H    1.085044   2.814111   4.873668   2.484118   4.304462
                   11         12
    11  H    0.000000
    12  H    4.953411   0.000000
 Stoichiometry    C6H4Cl2
 Framework group  C1[X(C6H4Cl2)]
 Deg. of freedom    30
 Full point group                 C1      NOp   1
 Largest Abelian subgroup         C1      NOp   1
 Largest concise Abelian subgroup C1      NOp   1
                         Standard orientation:                         
 ---------------------------------------------------------------------
 Center     Atomic      Atomic             Coordinates (Angstroms)
 Number     Number       Type             X           Y           Z
 ---------------------------------------------------------------------
      1          6           0        2.384891   -0.696852   -0.000002
      2          6           0        2.384880    0.696871    0.000003
      3          6           0        1.180513    1.391827   -0.000002
      4          6           0       -0.028644    0.698761   -0.000003
      5          6           0       -0.028639   -0.698763    0.000003
      6          6           0        1.180526   -1.391822    0.000001
      7         17           0       -1.511894   -1.598236    0.000000
      8         17           0       -1.511912    1.598225    0.000001
      9          1           0        3.320194   -1.247362   -0.000003
     10          1           0        3.320175    1.247398    0.000004
     11          1           0        1.161574    2.476711   -0.000001
     12          1           0        1.161591   -2.476701   -0.000001
 ---------------------------------------------------------------------
 Rotational constants (GHZ):      1.9142379      1.4283509      0.8179898
 Standard basis: 6-31+G(d) (6D, 7F)
 There are   168 symmetry adapted cartesian basis functions of A   symmetry.
 There are   168 symmetry adapted basis functions of A   symmetry.
   168 basis functions,   320 primitive gaussians,   168 cartesian basis functions
    37 alpha electrons       37 beta electrons
       nuclear repulsion energy       469.4136409940 Hartrees.
 NAtoms=   12 NActive=   12 NUniq=   12 SFac= 1.00D+00 NAtFMM=   60 NAOKFM=F Big=F
 Integral buffers will be    131072 words long.
 Raffenetti 2 integral format.
 Two-electron integral symmetry is turned on.
 One-electron integrals computed using PRISM.
 NBasis=   168 RedAO= T EigKep=  2.08D-06  NBF=   168
 NBsUse=   168 1.00D-06 EigRej= -1.00D+00 NBFU=   168
 Initial guess from the checkpoint file:  "/srv/scratch/z5358697/gauss/Gau-2384614.chk"
 B after Tr=     0.000000    0.000000    0.000000
         Rot=    1.000000    0.000000    0.000000   -0.000008 Ang=   0.00 deg.
 Requested convergence on RMS density matrix=1.00D-08 within 128 cycles.
 Requested convergence on MAX density matrix=1.00D-06.
 Requested convergence on             energy=1.00D-06.
 No special actions if energy rises.
 SCF Done:  E(RM062X) =  -1151.28051666     A.U. after   11 cycles
            NFock= 11  Conv=0.44D-08     -V/T= 2.0039
 Calling FoFJK, ICntrl=      2127 FMM=F ISym2X=0 I1Cent= 0 IOpClX= 0 NMat=1 NMatS=1 NMatT=0.
 ***** Axes restored to original set *****
 -------------------------------------------------------------------
 Center     Atomic                   Forces (Hartrees/Bohr)
 Number     Number              X              Y              Z
 -------------------------------------------------------------------
      1        6           0.000127237   -0.000069801   -0.000037571
      2        6          -0.000025196    0.000019786   -0.000152317
      3        6           0.000048393   -0.000027159    0.000001393
      4        6          -0.000609580    0.000334952    0.000012595
      5        6           0.000267665   -0.000166564    0.000617637
      6        6          -0.000016689    0.000011003   -0.000047428
      7       17           0.000251995   -0.000137754   -0.000045270
      8       17          -0.000078117    0.000052239   -0.000277875
      9        1           0.000048396   -0.000025300   -0.000042896
     10        1           0.000010582   -0.000003732   -0.000068176
     11        1           0.000057064   -0.000033603    0.000068428
     12        1          -0.000081751    0.000045934   -0.000028518
 -------------------------------------------------------------------
 Cartesian Forces:  Max     0.000617637 RMS     0.000183793

 GradGradGradGradGradGradGradGradGradGradGradGradGradGradGradGradGradGrad
 Berny optimization.
 Using GEDIIS/GDIIS optimizer.
 FormGI is forming the generalized inverse of G from B-inverse, IUseBI=4.
 Internal  Forces:  Max     0.000727509 RMS     0.000135360
 Search for a local minimum.
 Step number   3 out of a maximum of   64
 All quantities printed in internal units (Hartrees-Bohrs-Radians)
 Mixed Optimization -- En-DIIS/RFO-DIIS
 Swapping is turned off.
 Update second derivatives using D2CorX and points    1    2    3
 DE= -3.06D-05 DEPred=-3.46D-05 R= 8.83D-01
 TightC=F SS=  1.41D+00  RLast= 1.98D-02 DXNew= 5.0454D-01 5.9356D-02
 Trust test= 8.83D-01 RLast= 1.98D-02 DXMaxT set to 3.00D-01
 ITU=  1  1  0
     Eigenvalues ---    0.02156   0.02156   0.02156   0.02156   0.02156
     Eigenvalues ---    0.02156   0.02157   0.02157   0.02158   0.12044
     Eigenvalues ---    0.16000   0.16000   0.16046   0.22000   0.22459
     Eigenvalues ---    0.24484   0.25000   0.29018   0.32647   0.33182
     Eigenvalues ---    0.35144   0.35258   0.35267   0.35416   0.42221
     Eigenvalues ---    0.43135   0.46442   0.46482   0.46912   0.52436
 En-DIIS/RFO-DIIS IScMMF=        0 using points:     3    2
 RFO step:  Lambda=-1.43458304D-06.
 DidBck=F Rises=F RFO-DIIS coefs:    0.89958    0.10042
 Iteration  1 RMS(Cart)=  0.00052497 RMS(Int)=  0.00000008
 Iteration  2 RMS(Cart)=  0.00000010 RMS(Int)=  0.00000001
 Variable       Old X    -DE/DX   Delta X   Delta X   Delta X     New X
                                 (Linear)    (Quad)   (Total)
    R1        2.63375  -0.00008   0.00004  -0.00015  -0.00011   2.63364
    R2        2.62766   0.00018   0.00015   0.00022   0.00037   2.62802
    R3        2.05090   0.00004   0.00001   0.00011   0.00012   2.05102
    R4        2.62765   0.00018   0.00015   0.00023   0.00038   2.62802
    R5        2.05090   0.00004   0.00001   0.00011   0.00011   2.05102
    R6        2.63371   0.00020  -0.00002   0.00041   0.00039   2.63410
    R7        2.05044   0.00009  -0.00006   0.00034   0.00028   2.05072
    R8        2.64094  -0.00073  -0.00059  -0.00072  -0.00132   2.63962
    R9        3.27807  -0.00028  -0.00027  -0.00049  -0.00076   3.27731
   R10        2.63372   0.00020  -0.00002   0.00041   0.00039   2.63410
   R11        3.27806  -0.00028  -0.00027  -0.00048  -0.00075   3.27731
   R12        2.05044   0.00010  -0.00006   0.00034   0.00029   2.05072
    A1        2.09416  -0.00006  -0.00005  -0.00006  -0.00011   2.09405
    A2        2.10279  -0.00002  -0.00015  -0.00011  -0.00026   2.10253
    A3        2.08624   0.00009   0.00020   0.00017   0.00037   2.08660
    A4        2.09416  -0.00006  -0.00005  -0.00006  -0.00011   2.09405
    A5        2.10279  -0.00002  -0.00015  -0.00012  -0.00026   2.10253
    A6        2.08623   0.00009   0.00019   0.00018   0.00037   2.08660
    A7        2.09777  -0.00001  -0.00008   0.00004  -0.00004   2.09773
    A8        2.11161   0.00003  -0.00082   0.00101   0.00020   2.11181
    A9        2.07381  -0.00002   0.00090  -0.00105  -0.00015   2.07365
   A10        2.09126   0.00008   0.00013   0.00002   0.00015   2.09141
   A11        2.07601   0.00011   0.00019   0.00011   0.00030   2.07631
   A12        2.11592  -0.00019  -0.00033  -0.00012  -0.00045   2.11547
   A13        2.09126   0.00008   0.00013   0.00002   0.00015   2.09141
   A14        2.11592  -0.00019  -0.00033  -0.00013  -0.00045   2.11547
   A15        2.07601   0.00011   0.00020   0.00010   0.00030   2.07631
   A16        2.09777  -0.00001  -0.00008   0.00004  -0.00004   2.09773
   A17        2.11162   0.00003  -0.00081   0.00100   0.00019   2.11181
   A18        2.07380  -0.00002   0.00090  -0.00105  -0.00015   2.07365
    D1       -0.00001   0.00000   0.00000   0.00001   0.00001   0.00000
    D2        3.14159   0.00000   0.00000   0.00000   0.00000  -3.14159
    D3        3.14159   0.00000   0.00000   0.00000   0.00001  -3.14159
    D4        0.00000   0.00000   0.00000   0.00000   0.00000   0.00000
    D5        0.00000   0.00000   0.00000   0.00000  -0.00001   0.00000
    D6       -3.14159   0.00000   0.00000   0.00000   0.00000   3.14159
    D7        3.14159   0.00000   0.00000   0.00000   0.00000   3.14159
    D8        0.00000   0.00000   0.00000   0.00000   0.00000   0.00000
    D9        0.00001   0.00000   0.00000   0.00000  -0.00001   0.00000
   D10       -3.14159   0.00000   0.00000   0.00000   0.00000   3.14159
   D11        3.14159   0.00000   0.00000   0.00000   0.00000  -3.14159
   D12        0.00000   0.00000   0.00000   0.00000   0.00000   0.00000
   D13        0.00000   0.00000   0.00000   0.00000   0.00000   0.00000
   D14        3.14159   0.00000   0.00000   0.00000   0.00001  -3.14159
   D15       -3.14159   0.00000   0.00000  -0.00001  -0.00001   3.14159
   D16        0.00000   0.00000   0.00000   0.00000   0.00000   0.00000
   D17       -0.00001   0.00000   0.00000   0.00001   0.00001   0.00000
   D18       -3.14159   0.00000   0.00000   0.00000   0.00000   3.14159
   D19       -3.14159   0.00000   0.00000   0.00000   0.00000   3.14159
   D20        0.00001   0.00000   0.00000  -0.00001  -0.00001   0.00000
   D21        0.00000   0.00000   0.00000   0.00000   0.00000   0.00000
   D22       -3.14159   0.00000   0.00000   0.00000  -0.00001   3.14159
   D23        3.14159   0.00000   0.00000   0.00001   0.00001  -3.14159
   D24        0.00000   0.00000   0.00000   0.00000   0.00000   0.00000
         Item               Value     Threshold  Converged?
 Maximum Force            0.000728     0.000450     NO 
 RMS     Force            0.000135     0.000300     YES
 Maximum Displacement     0.001863     0.001800     NO 
 RMS     Displacement     0.000525     0.001200     YES
 Predicted change in Energy=-1.054133D-06
 GradGradGradGradGradGradGradGradGradGradGradGradGradGradGradGradGradGrad

                          Input orientation:                          
 ---------------------------------------------------------------------
 Center     Atomic      Atomic             Coordinates (Angstroms)
 Number     Number       Type             X           Y           Z
 ---------------------------------------------------------------------
      1          6           0        1.889627   -1.038630   -0.119622
      2          6           0        2.924590   -1.632615    0.600332
      3          6           0        2.881580   -1.653441    1.990201
      4          6           0        1.805465   -1.081520    2.666854
      5          6           0        0.768154   -0.486185    1.945266
      6          6           0        0.814483   -0.467091    0.552260
      7         17           0       -0.587588    0.235865    2.750451
      8         17           0        1.784344   -1.125436    4.400447
      9          1           0        1.915135   -1.017928   -1.204477
     10          1           0        3.767434   -2.081000    0.084044
     11          1           0        3.678397   -2.111478    2.567205
     12          1           0       -0.000222   -0.000243    0.008239
 ---------------------------------------------------------------------
                    Distance matrix (angstroms):
                    1          2          3          4          5
     1  C    0.000000
     2  C    1.393664   0.000000
     3  C    2.411082   1.390690   0.000000
     4  C    2.788076   2.413847   1.393907   0.000000
     5  C    2.413848   2.788075   2.414762   1.396827   0.000000
     6  C    1.390690   2.411080   2.783521   2.414762   1.393907
     7  Cl   3.999782   4.522126   4.022758   2.732983   1.734277
     8  Cl   4.522129   3.999783   2.700371   1.734279   2.732983
     9  H    1.085352   2.157354   3.397626   3.873406   3.393994
    10  H    2.157353   1.085352   2.144989   3.393993   3.873405
    11  H    3.401432   2.160122   1.085196   2.139771   3.390855
    12  H    2.160122   3.401431   3.868594   3.390855   2.139770
                    6          7          8          9         10
     6  C    0.000000
     7  Cl   2.700369   0.000000
     8  Cl   4.022760   3.194009   0.000000
     9  H    2.144989   4.845314   5.607481   0.000000
    10  H    3.397624   5.607478   4.845316   2.494278   0.000000
    11  H    3.868594   4.872600   2.814336   4.304711   2.484944
    12  H    1.085196   2.814333   4.872600   2.484945   4.304710
                   11         12
    11  H    0.000000
    12  H    4.953570   0.000000
 Stoichiometry    C6H4Cl2
 Framework group  C1[X(C6H4Cl2)]
 Deg. of freedom    30
 Full point group                 C1      NOp   1
 Largest Abelian subgroup         C1      NOp   1
 Largest concise Abelian subgroup C1      NOp   1
                         Standard orientation:                         
 ---------------------------------------------------------------------
 Center     Atomic      Atomic             Coordinates (Angstroms)
 Number     Number       Type             X           Y           Z
 ---------------------------------------------------------------------
      1          6           0        2.385166   -0.696829    0.000000
      2          6           0        2.385163    0.696835    0.000000
      3          6           0        1.180549    1.391763    0.000000
      4          6           0       -0.028684    0.698414    0.000000
      5          6           0       -0.028682   -0.698413   -0.000001
      6          6           0        1.180553   -1.391759    0.000000
      7         17           0       -1.512004   -1.597007    0.000000
      8         17           0       -1.512011    1.597002    0.000000
      9          1           0        3.320662   -1.247134    0.000001
     10          1           0        3.320657    1.247144    0.000000
     11          1           0        1.161276    2.476787    0.000000
     12          1           0        1.161283   -2.476783    0.000000
 ---------------------------------------------------------------------
 Rotational constants (GHZ):      1.9163523      1.4281055      0.8182951
 Standard basis: 6-31+G(d) (6D, 7F)
 There are   168 symmetry adapted cartesian basis functions of A   symmetry.
 There are   168 symmetry adapted basis functions of A   symmetry.
   168 basis functions,   320 primitive gaussians,   168 cartesian basis functions
    37 alpha electrons       37 beta electrons
       nuclear repulsion energy       469.4856144119 Hartrees.
 NAtoms=   12 NActive=   12 NUniq=   12 SFac= 1.00D+00 NAtFMM=   60 NAOKFM=F Big=F
 Integral buffers will be    131072 words long.
 Raffenetti 2 integral format.
 Two-electron integral symmetry is turned on.
 One-electron integrals computed using PRISM.
 NBasis=   168 RedAO= T EigKep=  2.08D-06  NBF=   168
 NBsUse=   168 1.00D-06 EigRej= -1.00D+00 NBFU=   168
 Initial guess from the checkpoint file:  "/srv/scratch/z5358697/gauss/Gau-2384614.chk"
 B after Tr=     0.000000    0.000000    0.000000
         Rot=    1.000000    0.000000    0.000000    0.000001 Ang=   0.00 deg.
 Requested convergence on RMS density matrix=1.00D-08 within 128 cycles.
 Requested convergence on MAX density matrix=1.00D-06.
 Requested convergence on             energy=1.00D-06.
 No special actions if energy rises.
 SCF Done:  E(RM062X) =  -1151.28051776     A.U. after    9 cycles
            NFock=  9  Conv=0.57D-08     -V/T= 2.0039
 Calling FoFJK, ICntrl=      2127 FMM=F ISym2X=0 I1Cent= 0 IOpClX= 0 NMat=1 NMatS=1 NMatT=0.
 ***** Axes restored to original set *****
 -------------------------------------------------------------------
 Center     Atomic                   Forces (Hartrees/Bohr)
 Number     Number              X              Y              Z
 -------------------------------------------------------------------
      1        6          -0.000077493    0.000042436    0.000012202
      2        6           0.000025962   -0.000017107    0.000083558
      3        6           0.000064578   -0.000033424   -0.000069123
      4        6          -0.000102186    0.000055411    0.000035427
      5        6           0.000018880   -0.000014363    0.000118419
      6        6           0.000024857   -0.000010653   -0.000096214
      7       17           0.000029691   -0.000015167   -0.000036615
      8       17           0.000015514   -0.000007074   -0.000047349
      9        1           0.000008250   -0.000004603    0.000002210
     10        1          -0.000005532    0.000003301   -0.000007244
     11        1          -0.000009596    0.000005404   -0.000003401
     12        1           0.000007075   -0.000004163    0.000008129
 -------------------------------------------------------------------
 Cartesian Forces:  Max     0.000118419 RMS     0.000044331

 GradGradGradGradGradGradGradGradGradGradGradGradGradGradGradGradGradGrad
 Berny optimization.
 Using GEDIIS/GDIIS optimizer.
 FormGI is forming the generalized inverse of G from B-inverse, IUseBI=4.
 Internal  Forces:  Max     0.000058101 RMS     0.000021614
 Search for a local minimum.
 Step number   4 out of a maximum of   64
 All quantities printed in internal units (Hartrees-Bohrs-Radians)
 Mixed Optimization -- En-DIIS/RFO-DIIS
 Swapping is turned off.
 Update second derivatives using D2CorX and points    1    2    3    4
 DE= -1.10D-06 DEPred=-1.05D-06 R= 1.05D+00
 TightC=F SS=  1.41D+00  RLast= 2.20D-03 DXNew= 5.0454D-01 6.6087D-03
 Trust test= 1.05D+00 RLast= 2.20D-03 DXMaxT set to 3.00D-01
 ITU=  1  1  1  0
     Eigenvalues ---    0.02156   0.02156   0.02156   0.02156   0.02156
     Eigenvalues ---    0.02156   0.02157   0.02157   0.02158   0.12231
     Eigenvalues ---    0.15820   0.16000   0.16000   0.22000   0.22430
     Eigenvalues ---    0.24485   0.25000   0.28512   0.31833   0.32647
     Eigenvalues ---    0.35144   0.35256   0.35267   0.35468   0.42220
     Eigenvalues ---    0.43220   0.44261   0.46482   0.47338   0.54488
 En-DIIS/RFO-DIIS IScMMF=        0 using points:     4    3    2
 RFO step:  Lambda=-4.23009620D-08.
 DidBck=F Rises=F RFO-DIIS coefs:    1.05977   -0.05705   -0.00273
 Iteration  1 RMS(Cart)=  0.00006125 RMS(Int)=  0.00000000
 Iteration  2 RMS(Cart)=  0.00000000 RMS(Int)=  0.00000000
 Variable       Old X    -DE/DX   Delta X   Delta X   Delta X     New X
                                 (Linear)    (Quad)   (Total)
    R1        2.63364   0.00004  -0.00001   0.00008   0.00008   2.63372
    R2        2.62802  -0.00006   0.00002  -0.00014  -0.00012   2.62790
    R3        2.05102   0.00000   0.00001  -0.00001   0.00000   2.05102
    R4        2.62802  -0.00006   0.00002  -0.00014  -0.00012   2.62790
    R5        2.05102   0.00000   0.00001  -0.00001   0.00000   2.05102
    R6        2.63410   0.00006   0.00002   0.00012   0.00014   2.63424
    R7        2.05072  -0.00001   0.00002  -0.00004  -0.00003   2.05070
    R8        2.63962  -0.00005  -0.00006  -0.00010  -0.00016   2.63946
    R9        3.27731  -0.00005  -0.00004  -0.00014  -0.00018   3.27714
   R10        2.63410   0.00006   0.00002   0.00012   0.00014   2.63424
   R11        3.27731  -0.00005  -0.00004  -0.00014  -0.00017   3.27713
   R12        2.05072  -0.00001   0.00002  -0.00004  -0.00003   2.05070
    A1        2.09405   0.00001  -0.00001   0.00003   0.00002   2.09407
    A2        2.10253  -0.00001  -0.00001  -0.00007  -0.00008   2.10245
    A3        2.08660   0.00001   0.00002   0.00004   0.00006   2.08667
    A4        2.09405   0.00001  -0.00001   0.00003   0.00002   2.09407
    A5        2.10253  -0.00001  -0.00001  -0.00007  -0.00008   2.10245
    A6        2.08660   0.00001   0.00002   0.00005   0.00006   2.08667
    A7        2.09773  -0.00001   0.00000  -0.00003  -0.00004   2.09769
    A8        2.11181   0.00001   0.00003   0.00002   0.00005   2.11186
    A9        2.07365   0.00000  -0.00003   0.00002  -0.00002   2.07363
   A10        2.09141   0.00000   0.00001   0.00001   0.00001   2.09143
   A11        2.07631  -0.00003   0.00001  -0.00012  -0.00011   2.07620
   A12        2.11547   0.00003  -0.00002   0.00011   0.00009   2.11556
   A13        2.09141   0.00000   0.00001   0.00001   0.00001   2.09142
   A14        2.11547   0.00003  -0.00002   0.00011   0.00009   2.11556
   A15        2.07631  -0.00003   0.00001  -0.00012  -0.00011   2.07620
   A16        2.09773  -0.00001   0.00000  -0.00004  -0.00004   2.09769
   A17        2.11181   0.00001   0.00003   0.00002   0.00005   2.11186
   A18        2.07365   0.00000  -0.00003   0.00002  -0.00002   2.07363
    D1        0.00000   0.00000   0.00000   0.00000   0.00000   0.00000
    D2       -3.14159   0.00000   0.00000   0.00000   0.00000   3.14159
    D3       -3.14159   0.00000   0.00000   0.00000   0.00000   3.14159
    D4        0.00000   0.00000   0.00000   0.00000   0.00000   0.00000
    D5        0.00000   0.00000   0.00000   0.00000   0.00000   0.00000
    D6        3.14159   0.00000   0.00000   0.00000   0.00000   3.14159
    D7        3.14159   0.00000   0.00000   0.00000   0.00000  -3.14159
    D8        0.00000   0.00000   0.00000   0.00000   0.00000   0.00000
    D9        0.00000   0.00000   0.00000   0.00000   0.00000   0.00000
   D10        3.14159   0.00000   0.00000   0.00000   0.00000  -3.14159
   D11       -3.14159   0.00000   0.00000   0.00000   0.00000   3.14159
   D12        0.00000   0.00000   0.00000   0.00000   0.00000   0.00000
   D13        0.00000   0.00000   0.00000   0.00000   0.00000   0.00000
   D14       -3.14159   0.00000   0.00000   0.00000   0.00000  -3.14159
   D15        3.14159   0.00000   0.00000   0.00000   0.00000  -3.14159
   D16        0.00000   0.00000   0.00000   0.00000   0.00000   0.00000
   D17        0.00000   0.00000   0.00000   0.00000   0.00000   0.00000
   D18        3.14159   0.00000   0.00000   0.00000   0.00000   3.14159
   D19        3.14159   0.00000   0.00000   0.00000   0.00000   3.14159
   D20        0.00000   0.00000   0.00000   0.00000   0.00000   0.00000
   D21        0.00000   0.00000   0.00000   0.00000   0.00000   0.00000
   D22        3.14159   0.00000   0.00000   0.00000   0.00000  -3.14159
   D23       -3.14159   0.00000   0.00000   0.00000   0.00000   3.14159
   D24        0.00000   0.00000   0.00000   0.00000   0.00000   0.00000
         Item               Value     Threshold  Converged?
 Maximum Force            0.000058     0.000450     YES
 RMS     Force            0.000022     0.000300     YES
 Maximum Displacement     0.000239     0.001800     YES
 RMS     Displacement     0.000061     0.001200     YES
 Predicted change in Energy=-3.627030D-08
 Optimization completed.
    -- Stationary point found.
                           ----------------------------
                           !   Optimized Parameters   !
                           ! (Angstroms and Degrees)  !
 --------------------------                            --------------------------
 ! Name  Definition              Value          Derivative Info.                !
 --------------------------------------------------------------------------------
 ! R1    R(1,2)                  1.3937         -DE/DX =    0.0                 !
 ! R2    R(1,6)                  1.3907         -DE/DX =   -0.0001              !
 ! R3    R(1,9)                  1.0854         -DE/DX =    0.0                 !
 ! R4    R(2,3)                  1.3907         -DE/DX =   -0.0001              !
 ! R5    R(2,10)                 1.0854         -DE/DX =    0.0                 !
 ! R6    R(3,4)                  1.3939         -DE/DX =    0.0001              !
 ! R7    R(3,11)                 1.0852         -DE/DX =    0.0                 !
 ! R8    R(4,5)                  1.3968         -DE/DX =   -0.0001              !
 ! R9    R(4,8)                  1.7343         -DE/DX =    0.0                 !
 ! R10   R(5,6)                  1.3939         -DE/DX =    0.0001              !
 ! R11   R(5,7)                  1.7343         -DE/DX =    0.0                 !
 ! R12   R(6,12)                 1.0852         -DE/DX =    0.0                 !
 ! A1    A(2,1,6)              119.9801         -DE/DX =    0.0                 !
 ! A2    A(2,1,9)              120.4663         -DE/DX =    0.0                 !
 ! A3    A(6,1,9)              119.5536         -DE/DX =    0.0                 !
 ! A4    A(1,2,3)              119.9803         -DE/DX =    0.0                 !
 ! A5    A(1,2,10)             120.4662         -DE/DX =    0.0                 !
 ! A6    A(3,2,10)             119.5535         -DE/DX =    0.0                 !
 ! A7    A(2,3,4)              120.1908         -DE/DX =    0.0                 !
 ! A8    A(2,3,11)             120.9977         -DE/DX =    0.0                 !
 ! A9    A(4,3,11)             118.8115         -DE/DX =    0.0                 !
 ! A10   A(3,4,5)              119.829          -DE/DX =    0.0                 !
 ! A11   A(3,4,8)              118.9638         -DE/DX =    0.0                 !
 ! A12   A(5,4,8)              121.2072         -DE/DX =    0.0                 !
 ! A13   A(4,5,6)              119.829          -DE/DX =    0.0                 !
 ! A14   A(4,5,7)              121.2073         -DE/DX =    0.0                 !
 ! A15   A(6,5,7)              118.9637         -DE/DX =    0.0                 !
 ! A16   A(1,6,5)              120.1909         -DE/DX =    0.0                 !
 ! A17   A(1,6,12)             120.9977         -DE/DX =    0.0                 !
 ! A18   A(5,6,12)             118.8114         -DE/DX =    0.0                 !
 ! D1    D(6,1,2,3)              0.0001         -DE/DX =    0.0                 !
 ! D2    D(6,1,2,10)           180.0            -DE/DX =    0.0                 !
 ! D3    D(9,1,2,3)            180.0001         -DE/DX =    0.0                 !
 ! D4    D(9,1,2,10)             0.0            -DE/DX =    0.0                 !
 ! D5    D(2,1,6,5)              0.0            -DE/DX =    0.0                 !
 ! D6    D(2,1,6,12)           180.0            -DE/DX =    0.0                 !
 ! D7    D(9,1,6,5)           -180.0            -DE/DX =    0.0                 !
 ! D8    D(9,1,6,12)             0.0            -DE/DX =    0.0                 !
 ! D9    D(1,2,3,4)              0.0            -DE/DX =    0.0                 !
 ! D10   D(1,2,3,11)          -180.0            -DE/DX =    0.0                 !
 ! D11   D(10,2,3,4)           180.0            -DE/DX =    0.0                 !
 ! D12   D(10,2,3,11)            0.0            -DE/DX =    0.0                 !
 ! D13   D(2,3,4,5)             -0.0001         -DE/DX =    0.0                 !
 ! D14   D(2,3,4,8)           -180.0            -DE/DX =    0.0                 !
 ! D15   D(11,3,4,5)          -180.0            -DE/DX =    0.0                 !
 ! D16   D(11,3,4,8)             0.0            -DE/DX =    0.0                 !
 ! D17   D(3,4,5,6)              0.0001         -DE/DX =    0.0                 !
 ! D18   D(3,4,5,7)            180.0            -DE/DX =    0.0                 !
 ! D19   D(8,4,5,6)            180.0            -DE/DX =    0.0                 !
 ! D20   D(8,4,5,7)             -0.0001         -DE/DX =    0.0                 !
 ! D21   D(4,5,6,1)              0.0            -DE/DX =    0.0                 !
 ! D22   D(4,5,6,12)          -180.0001         -DE/DX =    0.0                 !
 ! D23   D(7,5,6,1)            180.0001         -DE/DX =    0.0                 !
 ! D24   D(7,5,6,12)             0.0            -DE/DX =    0.0                 !
 --------------------------------------------------------------------------------
 GradGradGradGradGradGradGradGradGradGradGradGradGradGradGradGradGradGrad

                          Input orientation:                          
 ---------------------------------------------------------------------
 Center     Atomic      Atomic             Coordinates (Angstroms)
 Number     Number       Type             X           Y           Z
 ---------------------------------------------------------------------
      1          6           0        1.889627   -1.038630   -0.119622
      2          6           0        2.924590   -1.632615    0.600332
      3          6           0        2.881580   -1.653441    1.990201
      4          6           0        1.805465   -1.081520    2.666854
      5          6           0        0.768154   -0.486185    1.945266
      6          6           0        0.814483   -0.467091    0.552260
      7         17           0       -0.587588    0.235865    2.750451
      8         17           0        1.784344   -1.125436    4.400447
      9          1           0        1.915135   -1.017928   -1.204477
     10          1           0        3.767434   -2.081000    0.084044
     11          1           0        3.678397   -2.111478    2.567205
     12          1           0       -0.000222   -0.000243    0.008239
 ---------------------------------------------------------------------
                    Distance matrix (angstroms):
                    1          2          3          4          5
     1  C    0.000000
     2  C    1.393664   0.000000
     3  C    2.411082   1.390690   0.000000
     4  C    2.788076   2.413847   1.393907   0.000000
     5  C    2.413848   2.788075   2.414762   1.396827   0.000000
     6  C    1.390690   2.411080   2.783521   2.414762   1.393907
     7  Cl   3.999782   4.522126   4.022758   2.732983   1.734277
     8  Cl   4.522129   3.999783   2.700371   1.734279   2.732983
     9  H    1.085352   2.157354   3.397626   3.873406   3.393994
    10  H    2.157353   1.085352   2.144989   3.393993   3.873405
    11  H    3.401432   2.160122   1.085196   2.139771   3.390855
    12  H    2.160122   3.401431   3.868594   3.390855   2.139770
                    6          7          8          9         10
     6  C    0.000000
     7  Cl   2.700369   0.000000
     8  Cl   4.022760   3.194009   0.000000
     9  H    2.144989   4.845314   5.607481   0.000000
    10  H    3.397624   5.607478   4.845316   2.494278   0.000000
    11  H    3.868594   4.872600   2.814336   4.304711   2.484944
    12  H    1.085196   2.814333   4.872600   2.484945   4.304710
                   11         12
    11  H    0.000000
    12  H    4.953570   0.000000
 Stoichiometry    C6H4Cl2
 Framework group  C1[X(C6H4Cl2)]
 Deg. of freedom    30
 Full point group                 C1      NOp   1
 Largest Abelian subgroup         C1      NOp   1
 Largest concise Abelian subgroup C1      NOp   1
                         Standard orientation:                         
 ---------------------------------------------------------------------
 Center     Atomic      Atomic             Coordinates (Angstroms)
 Number     Number       Type             X           Y           Z
 ---------------------------------------------------------------------
      1          6           0        2.385166   -0.696829    0.000000
      2          6           0        2.385163    0.696835    0.000000
      3          6           0        1.180549    1.391763    0.000000
      4          6           0       -0.028684    0.698414    0.000000
      5          6           0       -0.028682   -0.698413   -0.000001
      6          6           0        1.180553   -1.391759    0.000000
      7         17           0       -1.512004   -1.597007    0.000000
      8         17           0       -1.512011    1.597002    0.000000
      9          1           0        3.320662   -1.247134    0.000001
     10          1           0        3.320657    1.247144    0.000000
     11          1           0        1.161276    2.476787    0.000000
     12          1           0        1.161283   -2.476783    0.000000
 ---------------------------------------------------------------------
 Rotational constants (GHZ):      1.9163523      1.4281055      0.8182951

 **********************************************************************

            Population analysis using the SCF density.

 **********************************************************************

 Orbital symmetries:
       Occupied  (A) (A) (A) (A) (A) (A) (A) (A) (A) (A) (A) (A)
                 (A) (A) (A) (A) (A) (A) (A) (A) (A) (A) (A) (A)
                 (A) (A) (A) (A) (A) (A) (A) (A) (A) (A) (A) (A)
                 (A)
       Virtual   (A) (A) (A) (A) (A) (A) (A) (A) (A) (A) (A) (A)
                 (A) (A) (A) (A) (A) (A) (A) (A) (A) (A) (A) (A)
                 (A) (A) (A) (A) (A) (A) (A) (A) (A) (A) (A) (A)
                 (A) (A) (A) (A) (A) (A) (A) (A) (A) (A) (A) (A)
                 (A) (A) (A) (A) (A) (A) (A) (A) (A) (A) (A) (A)
                 (A) (A) (A) (A) (A) (A) (A) (A) (A) (A) (A) (A)
                 (A) (A) (A) (A) (A) (A) (A) (A) (A) (A) (A) (A)
[...]
    R1        2.63364   0.00004   0.00000   0.00018   0.00018   2.63382
    R2        2.62802  -0.00006   0.00000  -0.00022  -0.00022   2.62780
    R3        2.05102   0.00000   0.00000   0.00000   0.00000   2.05101
    R4        2.62802  -0.00006   0.00000  -0.00022  -0.00022   2.62780
    R5        2.05102   0.00000   0.00000   0.00000   0.00000   2.05101
    R6        2.63410   0.00006   0.00000   0.00024   0.00024   2.63434
    R7        2.05072  -0.00001   0.00000  -0.00003  -0.00003   2.05069
    R8        2.63962  -0.00005   0.00000  -0.00022  -0.00022   2.63940
    R9        3.27731  -0.00005   0.00000  -0.00019  -0.00019   3.27712
   R10        2.63410   0.00006   0.00000   0.00024   0.00024   2.63434
   R11        3.27731  -0.00005   0.00000  -0.00019  -0.00019   3.27712
   R12        2.05072  -0.00001   0.00000  -0.00003  -0.00003   2.05069
    A1        2.09405   0.00001   0.00000   0.00002   0.00002   2.09407
    A2        2.10253  -0.00001   0.00000  -0.00014  -0.00014   2.10239
    A3        2.08660   0.00001   0.00000   0.00012   0.00012   2.08672
    A4        2.09405   0.00001   0.00000   0.00002   0.00002   2.09407
    A5        2.10253  -0.00001   0.00000  -0.00014  -0.00014   2.10239
    A6        2.08660   0.00001   0.00000   0.00012   0.00012   2.08672
    A7        2.09773  -0.00001   0.00000  -0.00003  -0.00003   2.09769
    A8        2.11181   0.00001   0.00000   0.00009   0.00009   2.11190
    A9        2.07365   0.00000   0.00000  -0.00006  -0.00006   2.07359
   A10        2.09141   0.00000   0.00000   0.00001   0.00001   2.09142
   A11        2.07631  -0.00003   0.00000  -0.00015  -0.00015   2.07616
   A12        2.11547   0.00003   0.00000   0.00014   0.00014   2.11561
   A13        2.09141   0.00000   0.00000   0.00001   0.00001   2.09142
   A14        2.11547   0.00003   0.00000   0.00014   0.00014   2.11561
   A15        2.07631  -0.00003   0.00000  -0.00015  -0.00015   2.07616
   A16        2.09773  -0.00001   0.00000  -0.00003  -0.00003   2.09769
   A17        2.11181   0.00001   0.00000   0.00009   0.00009   2.11190
   A18        2.07365   0.00000   0.00000  -0.00006  -0.00006   2.07359
    D1        0.00000   0.00000   0.00000   0.00000   0.00000   0.00000
    D2       -3.14159   0.00000   0.00000   0.00000   0.00000  -3.14159
    D3       -3.14159   0.00000   0.00000   0.00000   0.00000   3.14159
    D4        0.00000   0.00000   0.00000   0.00000   0.00000   0.00000
    D5        0.00000   0.00000   0.00000   0.00000   0.00000   0.00000
    D6        3.14159   0.00000   0.00000   0.00000   0.00000   3.14159
    D7        3.14159   0.00000   0.00000   0.00000   0.00000  -3.14159
    D8        0.00000   0.00000   0.00000   0.00000   0.00000   0.00000
    D9        0.00000   0.00000   0.00000   0.00000   0.00000   0.00000
   D10        3.14159   0.00000   0.00000   0.00000   0.00000   3.14159
   D11       -3.14159   0.00000   0.00000   0.00000   0.00000   3.14159
   D12        0.00000   0.00000   0.00000   0.00000   0.00000   0.00000
   D13        0.00000   0.00000   0.00000   0.00000   0.00000   0.00000
   D14       -3.14159   0.00000   0.00000   0.00000   0.00000   3.14159
   D15        3.14159   0.00000   0.00000   0.00000   0.00000   3.14159
   D16        0.00000   0.00000   0.00000   0.00000   0.00000   0.00000
   D17        0.00000   0.00000   0.00000   0.00000   0.00000   0.00000
   D18        3.14159   0.00000   0.00000   0.00000   0.00000  -3.14159
   D19        3.14159   0.00000   0.00000   0.00000   0.00000  -3.14159
   D20        0.00000   0.00000   0.00000   0.00000   0.00000   0.00000
   D21        0.00000   0.00000   0.00000   0.00000   0.00000   0.00000
   D22        3.14159   0.00000   0.00000   0.00000   0.00000   3.14159
   D23       -3.14159   0.00000   0.00000   0.00000   0.00000   3.14159
   D24        0.00000   0.00000   0.00000   0.00000   0.00000   0.00000
         Item               Value     Threshold  Converged?
 Maximum Force            0.000058     0.000450     YES
 RMS     Force            0.000022     0.000300     YES
 Maximum Displacement     0.000333     0.001800     YES
 RMS     Displacement     0.000087     0.001200     YES
 Predicted change in Energy=-5.550862D-08
 Optimization completed.
    -- Stationary point found.
                           ----------------------------
                           !   Optimized Parameters   !
                           ! (Angstroms and Degrees)  !
 --------------------------                            --------------------------
 ! Name  Definition              Value          Derivative Info.                !
 --------------------------------------------------------------------------------
 ! R1    R(1,2)                  1.3937         -DE/DX =    0.0                 !
 ! R2    R(1,6)                  1.3907         -DE/DX =   -0.0001              !
 ! R3    R(1,9)                  1.0854         -DE/DX =    0.0                 !
 ! R4    R(2,3)                  1.3907         -DE/DX =   -0.0001              !
 ! R5    R(2,10)                 1.0854         -DE/DX =    0.0                 !
 ! R6    R(3,4)                  1.3939         -DE/DX =    0.0001              !
 ! R7    R(3,11)                 1.0852         -DE/DX =    0.0                 !
 ! R8    R(4,5)                  1.3968         -DE/DX =   -0.0001              !
 ! R9    R(4,8)                  1.7343         -DE/DX =    0.0                 !
 ! R10   R(5,6)                  1.3939         -DE/DX =    0.0001              !
 ! R11   R(5,7)                  1.7343         -DE/DX =    0.0                 !
 ! R12   R(6,12)                 1.0852         -DE/DX =    0.0                 !
 ! A1    A(2,1,6)              119.9801         -DE/DX =    0.0                 !
 ! A2    A(2,1,9)              120.4663         -DE/DX =    0.0                 !
 ! A3    A(6,1,9)              119.5536         -DE/DX =    0.0                 !
 ! A4    A(1,2,3)              119.9803         -DE/DX =    0.0                 !
 ! A5    A(1,2,10)             120.4662         -DE/DX =    0.0                 !
 ! A6    A(3,2,10)             119.5535         -DE/DX =    0.0                 !
 ! A7    A(2,3,4)              120.1908         -DE/DX =    0.0                 !
 ! A8    A(2,3,11)             120.9977         -DE/DX =    0.0                 !
 ! A9    A(4,3,11)             118.8115         -DE/DX =    0.0                 !
 ! A10   A(3,4,5)              119.829          -DE/DX =    0.0                 !
 ! A11   A(3,4,8)              118.9638         -DE/DX =    0.0                 !
 ! A12   A(5,4,8)              121.2072         -DE/DX =    0.0                 !
 ! A13   A(4,5,6)              119.829          -DE/DX =    0.0                 !
 ! A14   A(4,5,7)              121.2073         -DE/DX =    0.0                 !
 ! A15   A(6,5,7)              118.9637         -DE/DX =    0.0                 !
 ! A16   A(1,6,5)              120.1909         -DE/DX =    0.0                 !
 ! A17   A(1,6,12)             120.9977         -DE/DX =    0.0                 !
 ! A18   A(5,6,12)             118.8114         -DE/DX =    0.0                 !
 ! D1    D(6,1,2,3)              0.0001         -DE/DX =    0.0                 !
 ! D2    D(6,1,2,10)          -180.0            -DE/DX =    0.0                 !
 ! D3    D(9,1,2,3)            180.0001         -DE/DX =    0.0                 !
 ! D4    D(9,1,2,10)             0.0            -DE/DX =    0.0                 !
 ! D5    D(2,1,6,5)              0.0            -DE/DX =    0.0                 !
 ! D6    D(2,1,6,12)           180.0            -DE/DX =    0.0                 !
 ! D7    D(9,1,6,5)           -180.0            -DE/DX =    0.0                 !
 ! D8    D(9,1,6,12)             0.0            -DE/DX =    0.0                 !
 ! D9    D(1,2,3,4)              0.0            -DE/DX =    0.0                 !
 ! D10   D(1,2,3,11)           180.0            -DE/DX =    0.0                 !
 ! D11   D(10,2,3,4)           180.0            -DE/DX =    0.0                 !
 ! D12   D(10,2,3,11)            0.0            -DE/DX =    0.0                 !
 ! D13   D(2,3,4,5)             -0.0001         -DE/DX =    0.0                 !
 ! D14   D(2,3,4,8)            180.0            -DE/DX =    0.0                 !
 ! D15   D(11,3,4,5)           180.0            -DE/DX =    0.0                 !
 ! D16   D(11,3,4,8)             0.0            -DE/DX =    0.0                 !
 ! D17   D(3,4,5,6)              0.0001         -DE/DX =    0.0                 !
 ! D18   D(3,4,5,7)           -180.0            -DE/DX =    0.0                 !
 ! D19   D(8,4,5,6)           -180.0            -DE/DX =    0.0                 !
 ! D20   D(8,4,5,7)             -0.0001         -DE/DX =    0.0                 !
 ! D21   D(4,5,6,1)              0.0            -DE/DX =    0.0                 !
 ! D22   D(4,5,6,12)           179.9999         -DE/DX =    0.0                 !
 ! D23   D(7,5,6,1)            180.0001         -DE/DX =    0.0                 !
 ! D24   D(7,5,6,12)             0.0            -DE/DX =    0.0                 !
 --------------------------------------------------------------------------------
 GradGradGradGradGradGradGradGradGradGradGradGradGradGradGradGradGradGrad

 1\1\GINC-KATANA3\Freq\RM062X\6-31+G(d)\C6H4Cl2\Z5358697\16-Mar-2025\0\
 \#N Geom=AllCheck Guess=TCheck SCRF=Check GenChk RM062X/6-31+G(d) Freq
 \\1,2-dichlorobenzene\\0,1\C,1.8896274156,-1.0386298034,-0.1196222465\
 C,2.9245896139,-1.6326152909,0.6003322011\C,2.8815802624,-1.6534405033
 ,1.9902008782\C,1.8054648993,-1.0815197525,2.6668535613\C,0.7681543764
 ,-0.4861846708,1.9452662887\C,0.814483151,-0.4670905077,0.5522597852\C
 l,-0.5875882324,0.2358648804,2.7504506275\Cl,1.7843443432,-1.125436226
 9,4.4004473204\H,1.9151345625,-1.01792773,-1.2044768799\H,3.7674344178
 ,-2.0809996382,0.0840441445\H,3.6783968331,-2.1114780277,2.5672054508\
 H,-0.0002216427,-0.0002427285,0.0082388687\\Version=ES64L-G09RevD.01\S
 tate=1-A\HF=-1151.2805178\RMSD=4.145e-09\RMSF=4.434e-05\ZeroPoint=0.08
 23342\Thermal=0.0889469\Dipole=0.4970112,-0.2447884,-0.9164354\DipoleD
 eriv=-0.0414098,-0.0454852,-0.0106485,-0.046346,-0.0989275,0.0002338,0
 .0162083,-0.0145808,0.0514793,0.0036181,-0.0703561,-0.009643,-0.069495
 5,-0.0861997,0.0015304,-0.0365011,0.0163457,-0.0062766,-0.0140046,-0.0
 534012,0.0661641,-0.0514651,-0.0774997,-0.0336468,0.0057594,-0.0003261
 ,-0.195911,-0.1417539,0.0703748,0.0269951,0.0675814,-0.0483165,-0.0489
 934,0.1141432,-0.0970674,1.0513452,0.6711485,-0.3658747,-0.3525652,-0.
 3630804,0.1814644,0.193801,-0.439715,0.2418753,0.008657,-0.1175153,0.0
 037288,0.0651867,0.0017924,-0.1067589,-0.0373634,0.1255942,-0.0706854,
 -0.0631393,-0.4868003,0.2373888,0.2390521,0.2375592,-0.1695095,-0.1278
 322,0.2337208,-0.1248917,-0.1684211,-0.0430953,0.0009665,-0.021022,0.0
 007957,-0.0440892,0.0338723,-0.0156909,0.0309322,-0.737549,0.0806841,0
 .0345849,0.0073215,0.0344928,0.1246957,0.0026023,0.0101947,0.0010173,-
 0.0633805,0.0086334,0.0729117,0.0515608,0.073004,0.1043291,-0.0247635,
 0.0486878,-0.0231785,0.0290352,0.0431972,0.0559481,-0.0310254,0.056067
 9,0.1112398,0.0203044,-0.0347627,0.0223659,0.0432974,0.0372978,0.05921
 36,-0.0313762,0.0590937,0.1095721,0.0202552,-0.0276387,0.0181936,0.050
 8635\Polar=91.4826544,-22.810282,62.2340969,-7.1718563,1.9749618,111.5
 242409\PG=C01 [X(C6H4Cl2)]\NImag=0\\0.56585980,-0.23689103,0.26702341,
 -0.00941700,-0.01496439,0.76480386,-0.24041379,0.10137417,-0.11823635,
 0.60715880,0.09927928,-0.12049717,0.06934604,-0.25891235,0.27869738,-0
 .05287973,0.03329379,-0.19217692,-0.03312757,-0.00018744,0.71183046,0.
 03664233,-0.01558213,-0.02333501,-0.11605204,0.03081203,-0.02591099,0.
 59041858,-0.01399784,0.01431087,0.01401700,0.02862798,-0.07826166,0.02
 399613,-0.25391292,0.27262528,-0.07276140,0.04128178,-0.02867961,0.042
 22681,-0.01359029,-0.36441367,0.02414564,-0.03247343,0.72908709,-0.065
 99853,0.03425867,-0.00235534,0.02993484,-0.01629815,0.08153081,-0.2443
 2076,0.10012947,0.04516947,0.53523886,0.03424511,-0.02295834,0.0011775
 2,-0.01443143,0.01449940,-0.04405502,0.09789290,-0.11348196,-0.0217162
 8,-0.23043755,0.24474890,-0.00193180,0.00094388,-0.00023200,0.02329286
 ,-0.01192959,-0.02355321,0.11494597,-0.06020665,-0.16001690,-0.0040485
 6,-0.01169423,0.55176530,0.02973731,-0.01432611,0.02340623,-0.01587006
 ,0.00751556,-0.03071191,-0.04179192,0.02527452,0.02721383,-0.21657435,
 0.08955074,-0.12102974,0.46932703,-0.01619283,0.01444353,-0.01200027,0
 .00752915,-0.00878863,0.01888065,0.02714652,-0.00881653,-0.01716909,0.
 08736410,-0.11170123,0.06994907,-0.19529209,0.22611777,0.08164411,-0.0
 4412564,-0.02329978,-0.03113542,0.01911424,-0.06453024,-0.03118981,0.0
 1504773,0.07291054,-0.05281076,0.03231790,-0.16066824,0.03379351,-0.03
 527866,0.63630901,-0.25475604,0.10258798,0.12186075,-0.04328235,0.0286
 1968,-0.02687459,-0.01925019,0.00793779,0.02950333,0.03624503,-0.01633
 644,-0.01758923,-0.10273242,0.02463166,-0.03612032,0.61316811,0.104772
 00,-0.11746888,-0.06322101,0.02703538,-0.00828124,0.01268357,0.0079053
 3,-0.00704168,-0.01450811,-0.01446440,0.01324201,0.01075377,0.02239509
 ,-0.07345972,0.02894611,-0.26604357,0.27905612,0.05372301,-0.02563465,
 -0.18650292,0.02255178,-0.01458119,0.07383708,0.03051674,-0.01506709,-
 0.05826149,-0.07599291,0.04297058,-0.02718489,0.03365625,-0.00954427,-
 0.34162632,0.01108421,-0.02433280,0.69990597,0.00432339,0.00036085,0.0
 0067100,-0.00158729,0.00048368,0.00063815,0.00046879,0.00221181,-0.005
 42366,-0.02817575,0.01689966,0.01927661,-0.12484781,0.05526887,0.04865
 977,-0.01372132,0.00956931,0.01196912,0.16832465,0.00052168,0.00473190
 ,-0.00009768,0.00044957,-0.00090853,-0.00040043,0.00206206,0.00292409,
 0.00317304,0.01760890,-0.00579499,-0.01054140,0.05515496,-0.05143903,-
 0.02535622,0.00885337,-0.00037369,-0.00587457,-0.08496206,0.05553576,-
 0.00434674,0.00267023,-0.00348379,0.00170213,-0.00098734,0.00083691,-0
 .00075156,0.00059579,-0.00149015,-0.00284989,0.00166409,0.00070947,0.0
 5221301,-0.02731628,-0.06817434,0.03430507,-0.01819559,-0.01838650,-0.
 07540394,0.03907060,0.08866210,0.00090987,-0.00088196,0.00026844,-0.00
 170629,0.00373683,-0.00088494,0.00302647,-0.00007690,0.02468964,-0.035
 71516,0.00762755,0.00103973,0.00115692,0.00196810,-0.01969047,-0.00229
 744,0.00353707,0.00083660,-0.00343910,0.00140117,-0.00698830,0.0374419
 9,-0.00084786,-0.00020267,-0.00009383,0.00357599,0.00302750,0.00051271
 ,0.00063903,0.00436034,-0.01220294,0.00774144,-0.02624433,0.00457650,0
 .00125888,0.00249641,0.01215975,0.00368684,0.00214217,-0.00039401,0.00
 121553,-0.00209714,0.00379202,-0.01517266,0.01853972,-0.00079553,0.000
 49309,-0.00236611,0.00413280,-0.00225519,0.00425028,0.00235373,0.00011
 806,-0.03986818,-0.00251353,0.00653658,-0.18249994,0.00243598,-0.00004
 573,-0.03691461,-0.00383551,0.00218323,0.00205804,-0.00119661,0.000597
 19,0.00065689,-0.00026083,-0.00776100,0.25653892,-0.05471576,0.0091405
 1,0.00639389,0.00573201,-0.00038288,-0.02410985,-0.00184468,0.00482528
 ,-0.00224618,-0.00146050,0.00048442,0.00009166,-0.00109963,0.00458507,
 0.00176799,0.00345344,-0.00080190,0.02544785,-0.00055987,0.00028210,0.
 00118748,0.00002081,-0.00039538,-0.00007490,0.05088645,0.00913021,-0.0
 4301611,0.00641639,-0.00123916,0.00387955,0.01375758,0.00483884,0.0040
 5673,0.00144401,0.00048757,-0.00084298,-0.00009274,0.00458140,0.004812
 56,-0.00077085,0.00006564,0.00387803,-0.01359747,0.00031098,-0.0001306
 0,-0.00063641,-0.00039830,-0.00048121,0.00001968,-0.01345484,0.0337166
 3,0.00671522,0.00623913,-0.34799488,0.00260481,-0.00097885,-0.01065269
 ,-0.00266924,0.00167738,0.00037752,-0.00000664,-0.00003851,0.00073886,
 0.00188268,-0.00083412,0.00093777,-0.00161831,0.00133286,-0.01025405,0
 .00028670,-0.00013952,-0.00056076,0.00001634,-0.00003065,-0.00002524,-
 0.00726259,-0.00691223,0.36671405,-0.01245553,0.00845882,0.01304675,-0
 .22897946,0.10205118,0.10676468,0.00344148,0.00007203,-0.00161144,0.00
 293930,0.00242775,-0.00043617,0.00008879,-0.00033854,-0.00089614,-0.00
 070603,0.00423169,-0.00332298,-0.00015503,-0.00030454,0.00011729,0.000
 06628,-0.00002290,-0.00007279,-0.00026860,-0.00206770,-0.00015624,0.23
 725126,0.00931511,-0.00126147,-0.00748660,0.10206149,-0.09227501,-0.05
 611499,-0.00079554,0.00387467,0.00132861,0.00243144,0.00595423,0.00061
 107,-0.00034170,-0.00040505,0.00051584,0.00421812,0.00437859,0.0020848
 2,-0.00030161,-0.00053092,-0.00009357,-0.00005177,0.00004639,0.0000845
 3,-0.00208593,-0.00287338,-0.00006357,-0.11282839,0.08639610,-0.013667
 93,0.00724983,0.01267582,0.10644336,-0.05593771,-0.12447211,0.02545471
 ,-0.01360173,-0.01023878,-0.00055086,0.00067433,-0.00424283,-0.0007978
 3,0.00046162,-0.00124837,-0.00289992,0.00185144,-0.00108300,0.00002605
 ,-0.00004324,0.00020031,0.00082799,-0.00041236,-0.00136391,0.00041257,
 -0.00037735,0.00064635,-0.11425961,0.05977179,0.12766970,0.00270882,0.
 00227917,0.00103369,0.00587786,-0.00105135,0.00219311,-0.21068975,0.09
 941895,-0.11174737,-0.01418927,0.01000562,-0.01417660,-0.00039847,0.00
 336340,0.00285523,-0.00014854,-0.00045564,0.00086545,-0.00090584,0.000
 55119,-0.00013397,0.00024267,-0.00155250,-0.00054761,0.00019384,-0.000
 06463,0.00022083,-0.00057837,-0.00204867,-0.00027792,0.21801806,0.0022
 6899,0.00565452,-0.00017201,-0.00022746,0.00424919,-0.00075945,0.09950
 296,-0.09392161,0.06489729,0.00913471,-0.00215776,0.00762168,0.0033912
 6,0.00403751,-0.00135631,-0.00045672,-0.00065687,-0.00048200,0.0005128
 2,-0.00019954,0.00006981,-0.00160108,-0.00172650,0.00019111,-0.0000193
 5,0.00010341,-0.00010067,-0.00206157,-0.00317070,-0.00001531,-0.110214
 28,0.08821638,0.00135130,-0.00034721,-0.00552230,-0.02351044,0.0134192
 3,-0.00994993,-0.11436810,0.06634294,-0.13849720,0.01299381,-0.0073661
 5,0.00931705,0.00198611,-0.00087687,-0.00095836,0.00089888,-0.00050045
 ,-0.00078062,0.00106308,-0.00059052,0.00021334,0.00096804,-0.00064495,
 0.00085823,-0.00119170,0.00067852,-0.00057025,0.00012474,-0.00023743,0
 .00095229,0.11978720,-0.06991324,0.14484865,-0.01184187,0.00922106,-0.
 01333705,-0.00081223,0.00414649,0.00337283,-0.00004830,-0.00051017,0.0
 0084133,0.00207630,0.00207167,0.00056527,0.00300462,-0.00003342,0.0031
 2232,-0.21597225,0.10231965,-0.11133512,0.00027518,-0.00161841,0.00094
 940,0.00029298,-0.00012642,0.00037480,-0.00033750,-0.00219001,-0.00001
 354,-0.00064409,0.00042745,-0.00071063,-0.00013102,-0.00023027,-0.0001
 0291,0.22413818,0.00839718,-0.00075959,0.00707884,0.00415668,0.0046592
 3,-0.00160710,-0.00050909,-0.00062854,-0.00046459,0.00204380,0.0047370
 5,0.00000864,0.00083748,0.00270240,-0.00121389,0.10223564,-0.09541484,
 0.06445264,-0.00156983,-0.00171731,-0.00063334,-0.00008805,0.00013933,
 -0.00016156,-0.00217710,-0.00310261,-0.00015124,0.00038217,-0.00013345
 ,0.00037870,-0.00023126,-0.00042803,0.00003614,-0.11347763,0.08994636,
 0.01236650,-0.00709984,0.01277862,0.00305522,-0.00143190,-0.00100597,0
 .00080791,-0.00044614,-0.00090918,0.00143440,-0.00047080,-0.00413266,-
 0.02404811,0.01377395,-0.01273705,-0.10871436,0.06300698,-0.13172130,-
 0.00056627,0.00020274,0.00081653,-0.00082225,0.00049876,-0.00132436,-0
 .00041622,0.00007088,0.00064333,0.00070191,-0.00040049,0.00050453,-0.0
 0007202,0.00001910,0.00008910,0.11627329,-0.06772323,0.13699841\\0.000
 07750,-0.00004244,-0.00001220,-0.00002597,0.00001711,-0.00008357,-0.00
 006458,0.00003342,0.00006913,0.00010220,-0.00005542,-0.00003543,-0.000
 01889,0.00001437,-0.00011844,-0.00002486,0.00001065,0.00009622,-0.0000
 2969,0.00001517,0.00003662,-0.00001552,0.00000708,0.00004735,-0.000008
 25,0.00000460,-0.00000221,0.00000553,-0.00000330,0.00000725,0.00000960
 ,-0.00000540,0.00000340,-0.00000707,0.00000416,-0.00000813\\\@


 I WANT IT ALL - RICH, THIN, AND CHOCOLATE.
 Job cpu time:       0 days  0 hours  4 minutes 18.3 seconds.
 File lengths (MBytes):  RWF=    134 Int=      0 D2E=      0 Chk=      4 Scr=      2
 Normal termination of Gaussian 09 at Sun Mar 16 19:46:18 2025.
