 Entering Gaussian System, Link 0=g09
 Initial command:
 /apps/z_install_tree/linux-rocky8-ivybridge/gcc-12.2.0/gaussian-09-D.01-wczn3gur5lpur3omlkzwa2l5ecyxp5ef/g09/l1.exe "/srv/scratch/z5358697/gauss/Gau-807620.inp" -scrdir="/srv/scratch/z5358697/gauss/"
 Entering Link 1 = /apps/z_install_tree/linux-rocky8-ivybridge/gcc-12.2.0/gaussian-09-D.01-wczn3gur5lpur3omlkzwa2l5ecyxp5ef/g09/l1.exe PID=    807621.
  
 Copyright (c) 1988,1990,1992,1993,1995,1998,2003,2009,2013,
            Gaussian, Inc.  All Rights Reserved.
  
 This is part of the Gaussian(R) 09 program.  It is based on
 the Gaussian(R) 03 system (copyright 2003, Gaussian, Inc.),
 the Gaussian(R) 98 system (copyright 1998, Gaussian, Inc.),
 the Gaussian(R) 94 system (copyright 1995, Gaussian, Inc.),
 the Gaussian 92(TM) system (copyright 1992, Gaussian, Inc.),
 the Gaussian 90(TM) system (copyright 1990, Gaussian, Inc.),
 the Gaussian 88(TM) system (copyright 1988, Gaussian, Inc.),
 the Gaussian 86(TM) system (copyright 1986, Carnegie Mellon
 University), and the Gaussian 82(TM) system (copyright 1983,
 Carnegie Mellon University). Gaussian is a federally registered
 trademark of Gaussian, Inc.
  
 This software contains proprietary and confidential information,
 including trade secrets, belonging to Gaussian, Inc.
  
 This software is provided under written license and may be
 used, copied, transmitted, or stored only in accord with that
 written license.
  
 The following legend is applicable only to US Government
 contracts under FAR:
  
                    RESTRICTED RIGHTS LEGEND
  
 Use, reproduction and disclosure by the US Government is
 subject to restrictions as set forth in subparagraphs (a)
 and (c) of the Commercial Computer Software - Restricted
 Rights clause in FAR 52.227-19.
  
 Gaussian, Inc.
 340 Quinnipiac St., Bldg. 40, Wallingford CT 06492
  
  
 ---------------------------------------------------------------
 Warning -- This program may not be used in any manner that
 competes with the business of Gaussian, Inc. or will provide
 assistance to any competitor of Gaussian, Inc.  The licensee
 of this program is prohibited from giving any competitor of
 Gaussian, Inc. access to this program.  By using this program,
 the user acknowledges that Gaussian, Inc. is engaged in the
 business of creating and licensing software in the field of
 computational chemistry and represents and warrants to the
 licensee that it is not a competitor of Gaussian, Inc. and that
 it will not use this program in any manner prohibited above.
 ---------------------------------------------------------------
  

 Cite this work as:
 Gaussian 09, Revision D.01,
 M. J. Frisch, G. W. Trucks, H. B. Schlegel, G. E. Scuseria, 
 M. A. Robb, J. R. Cheeseman, G. Scalmani, V. Barone, B. Mennucci, 
 G. A. Petersson, H. Nakatsuji, M. Caricato, X. Li, H. P. Hratchian, 
 A. F. Izmaylov, J. Bloino, G. Zheng, J. L. Sonnenberg, M. Hada, 
 M. Ehara, K. Toyota, R. Fukuda, J. Hasegawa, M. Ishida, T. Nakajima, 
 Y. Honda, O. Kitao, H. Nakai, T. Vreven, J. A. Montgomery, Jr., 
 J. E. Peralta, F. Ogliaro, M. Bearpark, J. J. Heyd, E. Brothers, 
 K. N. Kudin, V. N. Staroverov, T. Keith, R. Kobayashi, J. Normand, 
 K. Raghavachari, A. Rendell, J. C. Burant, S. S. Iyengar, J. Tomasi, 
 M. Cossi, N. Rega, J. M. Millam, M. Klene, J. E. Knox, J. B. Cross, 
 V. Bakken, C. Adamo, J. Jaramillo, R. Gomperts, R. E. Stratmann, 
 O. Yazyev, A. J. Austin, R. Cammi, C. Pomelli, J. W. Ochterski, 
 R. L. Martin, K. Morokuma, V. G. Zakrzewski, G. A. Voth, 
 P. Salvador, J. J. Dannenberg, S. Dapprich, A. D. Daniels, 
 O. Farkas, J. B. Foresman, J. V. Ortiz, J. Cioslowski, 
 and D. J. Fox, Gaussian, Inc., Wallingford CT, 2013.
 
 ******************************************
 Gaussian 09:  ES64L-G09RevD.01 24-Apr-2013
                14-Mar-2025 
 ******************************************
 ---------------------------------
 #m062X/6-31+G(d) OPT Freq=noraman
 ---------------------------------
 1/14=-1,18=20,19=15,26=3,38=1/1,3;
 2/9=110,12=2,17=6,18=5,40=1/2;
 3/5=1,6=6,7=11,11=2,16=1,25=1,30=1,71=1,74=-55/1,2,3;
 4//1;
 5/5=2,38=5/2;
 6/7=2,8=2,9=2,10=2,28=1/1;
 7//1,2,3,16;
 1/14=-1,18=20,19=15,26=3/3(2);
 2/9=110/2;
 99//99;
 2/9=110/2;
 3/5=1,6=6,7=11,11=2,16=1,25=1,30=1,71=1,74=-55/1,2,3;
 4/5=5,16=3,69=1/1;
 5/5=2,38=5/2;
 7//1,2,3,16;
 1/14=-1,18=20,19=15,26=3/3(-5);
 2/9=110/2;
 6/7=2,8=2,9=2,10=2,19=2,28=1/1;
 99/9=1/99;
 ---------------------------
 1,1,1,2,2-pentachloroethane
 ---------------------------
 Symbolic Z-matrix:
 Charge =  0 Multiplicity = 1
 C                    -0.4928    0.4027   -0.476 
 C                     0.449    -0.4711    0.3773 
 Cl                    1.8648   -1.0081   -0.597 
 Cl                   -0.399    -1.9622    0.9252 
 Cl                    1.0593    0.3923    1.8265 
 Cl                   -1.9284    0.9734    0.4356 
 Cl                    0.3273    1.8413   -1.1653 
 H                    -0.8776   -0.1672   -1.328 
 

 GradGradGradGradGradGradGradGradGradGradGradGradGradGradGradGradGradGrad
 Berny optimization.
 Initialization pass.
                           ----------------------------
                           !    Initial Parameters    !
                           ! (Angstroms and Degrees)  !
 --------------------------                            --------------------------
 ! Name  Definition              Value          Derivative Info.                !
 --------------------------------------------------------------------------------
 ! R1    R(1,2)                  1.5423         estimate D2E/DX2                !
 ! R2    R(1,6)                  1.7938         estimate D2E/DX2                !
 ! R3    R(1,7)                  1.7937         estimate D2E/DX2                !
 ! R4    R(1,8)                  1.0949         estimate D2E/DX2                !
 ! R5    R(2,3)                  1.8006         estimate D2E/DX2                !
 ! R6    R(2,4)                  1.8007         estimate D2E/DX2                !
 ! R7    R(2,5)                  1.7939         estimate D2E/DX2                !
 ! A1    A(2,1,6)              112.8177         estimate D2E/DX2                !
 ! A2    A(2,1,7)              112.8192         estimate D2E/DX2                !
 ! A3    A(2,1,8)              110.5026         estimate D2E/DX2                !
 ! A4    A(6,1,7)              107.8211         estimate D2E/DX2                !
 ! A5    A(6,1,8)              106.2478         estimate D2E/DX2                !
 ! A6    A(7,1,8)              106.2076         estimate D2E/DX2                !
 ! A7    A(1,2,3)              110.472          estimate D2E/DX2                !
 ! A8    A(1,2,4)              110.482          estimate D2E/DX2                !
 ! A9    A(1,2,5)              112.459          estimate D2E/DX2                !
 ! A10   A(3,2,4)              106.7362         estimate D2E/DX2                !
 ! A11   A(3,2,5)              108.2498         estimate D2E/DX2                !
 ! A12   A(4,2,5)              108.2369         estimate D2E/DX2                !
 ! D1    D(6,1,2,3)            179.998          estimate D2E/DX2                !
 ! D2    D(6,1,2,4)             62.1214         estimate D2E/DX2                !
 ! D3    D(6,1,2,5)            -58.9356         estimate D2E/DX2                !
 ! D4    D(7,1,2,3)            -57.5057         estimate D2E/DX2                !
 ! D5    D(7,1,2,4)           -175.3823         estimate D2E/DX2                !
 ! D6    D(7,1,2,5)             63.5607         estimate D2E/DX2                !
 ! D7    D(8,1,2,3)             61.2211         estimate D2E/DX2                !
 ! D8    D(8,1,2,4)            -56.6555         estimate D2E/DX2                !
 ! D9    D(8,1,2,5)           -177.7125         estimate D2E/DX2                !
 --------------------------------------------------------------------------------
 Trust Radius=3.00D-01 FncErr=1.00D-07 GrdErr=1.00D-06
 Number of steps in this run=     38 maximum allowed number of steps=    100.
 GradGradGradGradGradGradGradGradGradGradGradGradGradGradGradGradGradGrad

                          Input orientation:                          
 ---------------------------------------------------------------------
 Center     Atomic      Atomic             Coordinates (Angstroms)
 Number     Number       Type             X           Y           Z
 ---------------------------------------------------------------------
      1          6           0       -0.492800    0.402700   -0.476000
      2          6           0        0.449000   -0.471100    0.377300
      3         17           0        1.864800   -1.008100   -0.597000
      4         17           0       -0.399000   -1.962200    0.925200
      5         17           0        1.059300    0.392300    1.826500
      6         17           0       -1.928400    0.973400    0.435600
      7         17           0        0.327300    1.841300   -1.165300
      8          1           0       -0.877600   -0.167200   -1.328000
 ---------------------------------------------------------------------
                    Distance matrix (angstroms):
                    1          2          3          4          5
     1  C    0.000000
     2  C    1.542282   0.000000
     3  Cl   2.750141   1.800589   0.000000
     4  Cl   2.750438   1.800744   2.890016   0.000000
     5  Cl   2.776802   1.793908   2.912611   2.912499   0.000000
     6  Cl   1.793784   2.782447   4.402382   3.346120   3.346436
     7  Cl   1.793675   2.782377   3.287241   4.400490   3.403864
     8  H    1.094879   2.181804   2.960107   2.920273   3.743727
                    6          7          8
     6  Cl   0.000000
     7  Cl   2.899019   0.000000
     8  H    2.348496   2.347835   0.000000
 Stoichiometry    C2HCl5
 Framework group  C1[X(C2HCl5)]
 Deg. of freedom    18
 Full point group                 C1      NOp   1
 Largest Abelian subgroup         C1      NOp   1
 Largest concise Abelian subgroup C1      NOp   1
                         Standard orientation:                         
 ---------------------------------------------------------------------
 Center     Atomic      Atomic             Coordinates (Angstroms)
 Number     Number       Type             X           Y           Z
 ---------------------------------------------------------------------
      1          6           0       -0.821880    0.000470   -0.605065
      2          6           0        0.606904   -0.000783   -0.024367
      3         17           0        1.496510    1.478229   -0.537442
      4         17           0        1.539363   -1.409347   -0.648183
      5         17           0        0.618051   -0.069573    1.768187
      6         17           0       -1.766420   -1.449168   -0.131721
      7         17           0       -1.765099    1.449849   -0.128717
      8          1           0       -0.791012    0.002058   -1.699508
 ---------------------------------------------------------------------
 Rotational constants (GHZ):      1.1602620      0.9216420      0.7232720
 Standard basis: 6-31+G(d) (6D, 7F)
 There are   155 symmetry adapted cartesian basis functions of A   symmetry.
 There are   155 symmetry adapted basis functions of A   symmetry.
   155 basis functions,   348 primitive gaussians,   155 cartesian basis functions
    49 alpha electrons       49 beta electrons
       nuclear repulsion energy       743.6369601220 Hartrees.
 NAtoms=    8 NActive=    8 NUniq=    8 SFac= 1.00D+00 NAtFMM=   60 NAOKFM=F Big=F
 Integral buffers will be    131072 words long.
 Raffenetti 2 integral format.
 Two-electron integral symmetry is turned on.
 One-electron integrals computed using PRISM.
 NBasis=   155 RedAO= T EigKep=  2.92D-05  NBF=   155
 NBsUse=   155 1.00D-06 EigRej= -1.00D+00 NBFU=   155
 ExpMin= 4.38D-02 ExpMax= 2.52D+04 ExpMxC= 3.78D+03 IAcc=2 IRadAn=         4 AccDes= 0.00D+00
 Harris functional with IExCor= 1009 and IRadAn=       4 diagonalized for initial guess.
 HarFok:  IExCor= 1009 AccDes= 0.00D+00 IRadAn=         4 IDoV= 1 UseB2=F ITyADJ=14
 ICtDFT=  3500011 ScaDFX=  1.000000  1.000000  1.000000  1.000000
 FoFCou: FMM=F IPFlag=           0 FMFlag=      100000 FMFlg1=           0
         NFxFlg=           0 DoJE=T BraDBF=F KetDBF=T FulRan=T
         wScrn=  0.000000 ICntrl=     500 IOpCl=  0 I1Cent=   200000004 NGrid=           0
         NMat0=    1 NMatS0=      1 NMatT0=    0 NMatD0=    1 NMtDS0=    0 NMtDT0=    0
 Petite list used in FoFCou.
 Requested convergence on RMS density matrix=1.00D-08 within 128 cycles.
 Requested convergence on MAX density matrix=1.00D-06.
 Requested convergence on             energy=1.00D-06.
 No special actions if energy rises.
 SCF Done:  E(RM062X) =  -2377.58297728     A.U. after   13 cycles
            NFock= 13  Conv=0.24D-08     -V/T= 2.0029

 **********************************************************************

            Population analysis using the SCF density.

 **********************************************************************

 Orbital symmetries:
       Occupied  (A) (A) (A) (A) (A) (A) (A) (A) (A) (A) (A) (A)
                 (A) (A) (A) (A) (A) (A) (A) (A) (A) (A) (A) (A)
                 (A) (A) (A) (A) (A) (A) (A) (A) (A) (A) (A) (A)
                 (A) (A) (A) (A) (A) (A) (A) (A) (A) (A) (A) (A)
                 (A)
       Virtual   (A) (A) (A) (A) (A) (A) (A) (A) (A) (A) (A) (A)
                 (A) (A) (A) (A) (A) (A) (A) (A) (A) (A) (A) (A)
                 (A) (A) (A) (A) (A) (A) (A) (A) (A) (A) (A) (A)
                 (A) (A) (A) (A) (A) (A) (A) (A) (A) (A) (A) (A)
                 (A) (A) (A) (A) (A) (A) (A) (A) (A) (A) (A) (A)
                 (A) (A) (A) (A) (A) (A) (A) (A) (A) (A) (A) (A)
                 (A) (A) (A) (A) (A) (A) (A) (A) (A) (A) (A) (A)
                 (A) (A) (A) (A) (A) (A) (A) (A) (A) (A) (A) (A)
                 (A) (A) (A) (A) (A) (A) (A) (A) (A) (A)
 The electronic state is 1-A.
 Alpha  occ. eigenvalues -- -102.70910-102.70877-102.70570-102.70026-102.70001
 Alpha  occ. eigenvalues --  -10.77340 -10.72243  -9.85578  -9.85544  -9.85226
 Alpha  occ. eigenvalues --   -9.84685  -9.84662  -7.58032  -7.57998  -7.57685
 Alpha  occ. eigenvalues --   -7.57258  -7.57242  -7.57224  -7.57207  -7.57133
 Alpha  occ. eigenvalues --   -7.57110  -7.56899  -7.56894  -7.56376  -7.56361
 Alpha  occ. eigenvalues --   -7.56352  -7.56339  -1.08781  -1.01692  -0.95913
 Alpha  occ. eigenvalues --   -0.95317  -0.93816  -0.82354  -0.69973  -0.60795
 Alpha  occ. eigenvalues --   -0.58056  -0.57770  -0.53075  -0.51224  -0.44016
 Alpha  occ. eigenvalues --   -0.43629  -0.42948  -0.41564  -0.41516  -0.40427
 Alpha  occ. eigenvalues --   -0.40213  -0.39234  -0.38688  -0.37770
 Alpha virt. eigenvalues --   -0.01907  -0.01385  -0.01013   0.01098   0.02812
 Alpha virt. eigenvalues --    0.03990   0.04366   0.04768   0.05160   0.07929
 Alpha virt. eigenvalues --    0.08229   0.08626   0.09908   0.09958   0.10099
 Alpha virt. eigenvalues --    0.11535   0.11604   0.12156   0.12455   0.12579
 Alpha virt. eigenvalues --    0.12784   0.13986   0.14866   0.15804   0.16262
 Alpha virt. eigenvalues --    0.17378   0.18285   0.18538   0.19037   0.19476
 Alpha virt. eigenvalues --    0.21050   0.23738   0.25494   0.26922   0.34053
 Alpha virt. eigenvalues --    0.53637   0.54495   0.55493   0.56981   0.57677
 Alpha virt. eigenvalues --    0.57911   0.58723   0.59369   0.60123   0.61587
 Alpha virt. eigenvalues --    0.62170   0.62920   0.63984   0.64044   0.65585
 Alpha virt. eigenvalues --    0.65737   0.67847   0.68204   0.70092   0.70270
 Alpha virt. eigenvalues --    0.71394   0.76535   0.77507   0.80710   0.81416
 Alpha virt. eigenvalues --    0.82914   0.83317   0.84504   0.90131   0.90285
 Alpha virt. eigenvalues --    0.90645   0.91225   0.91886   0.92143   0.92724
 Alpha virt. eigenvalues --    0.93692   0.94775   0.95305   0.95612   0.96537
 Alpha virt. eigenvalues --    1.03014   1.04574   1.06567   1.07646   1.12286
 Alpha virt. eigenvalues --    1.12702   1.14263   1.16104   1.21985   1.24695
 Alpha virt. eigenvalues --    1.31323   1.34698   1.44097   1.61860   1.64579
 Alpha virt. eigenvalues --    1.67054   1.83328   1.93246   1.94443   2.14624
 Alpha virt. eigenvalues --    2.14919   2.19561   2.25734   2.54073   3.99369
 Alpha virt. eigenvalues --    4.24636   4.39943   4.40351   4.41546   4.44874
 Alpha virt. eigenvalues --    4.45873
          Condensed to atoms (all electrons):
               1          2          3          4          5          6
     1  C    6.471165  -0.498131   0.048091   0.043571  -0.108405   0.118028
     2  C   -0.498131   6.583270   0.042285   0.071209   0.405083  -0.003309
     3  Cl   0.048091   0.042285  17.091427  -0.133656  -0.203217   0.016504
     4  Cl   0.043571   0.071209  -0.133656  17.065110  -0.198967  -0.013711
     5  Cl  -0.108405   0.405083  -0.203217  -0.198967  16.978720  -0.041127
     6  Cl   0.118028  -0.003309   0.016504  -0.013711  -0.041127  16.868162
     7  Cl   0.099781   0.005768  -0.002663   0.012770  -0.045183  -0.022772
     8  H    0.362541   0.011592  -0.020274  -0.015644   0.010532  -0.064701
               7          8
     1  C    0.099781   0.362541
     2  C    0.005768   0.011592
     3  Cl  -0.002663  -0.020274
     4  Cl   0.012770  -0.015644
     5  Cl  -0.045183   0.010532
     6  Cl  -0.022772  -0.064701
     7  Cl  16.882101  -0.065491
     8  H   -0.065491   0.439041
 Mulliken charges:
               1
     1  C   -0.536640
     2  C   -0.617765
     3  Cl   0.161503
     4  Cl   0.169318
     5  Cl   0.202564
     6  Cl   0.142926
     7  Cl   0.135689
     8  H    0.342406
 Sum of Mulliken charges =   0.00000
 Mulliken charges with hydrogens summed into heavy atoms:
               1
     1  C   -0.194234
     2  C   -0.617765
     3  Cl   0.161503
     4  Cl   0.169318
     5  Cl   0.202564
     6  Cl   0.142926
     7  Cl   0.135689
 Electronic spatial extent (au):  <R**2>=           1635.0738
 Charge=              0.0000 electrons
 Dipole moment (field-independent basis, Debye):
    X=              0.0626    Y=              0.0033    Z=             -1.1116  Tot=              1.1134
 Quadrupole moment (field-independent basis, Debye-Ang):
   XX=            -76.6919   YY=            -75.3947   ZZ=            -72.7945
   XY=              0.0019   XZ=              0.4951   YZ=             -0.0266
 Traceless Quadrupole moment (field-independent basis, Debye-Ang):
   XX=             -1.7315   YY=             -0.4343   ZZ=              2.1658
   XY=              0.0019   XZ=              0.4951   YZ=             -0.0266
 Octapole moment (field-independent basis, Debye-Ang**2):
  XXX=              2.4575  YYY=              0.5996  ZZZ=              3.7223  XYY=              1.6077
  XXY=             -0.1208  XXZ=              0.2494  XZZ=             -0.6322  YZZ=             -0.4539
  YYZ=              0.1817  XYZ=              0.1954
 Hexadecapole moment (field-independent basis, Debye-Ang**3):
 XXXX=           -969.4327 YYYY=           -685.4944 ZZZZ=           -367.5852 XXXY=             -0.4198
 XXXZ=             -9.6764 YYYX=              1.1567 YYYZ=              0.2098 ZZZX=              7.2374
 ZZZY=             -0.8746 XXYY=           -253.2195 XXZZ=           -228.6226 YYZZ=           -186.9894
 XXYZ=              0.6921 YYXZ=            -12.9564 ZZXY=             -0.7973
 N-N= 7.436369601220D+02 E-N=-7.132319990120D+03  KE= 2.370725233095D+03
 Calling FoFJK, ICntrl=      2127 FMM=F ISym2X=0 I1Cent= 0 IOpClX= 0 NMat=1 NMatS=1 NMatT=0.
 ***** Axes restored to original set *****
 -------------------------------------------------------------------
 Center     Atomic                   Forces (Hartrees/Bohr)
 Number     Number              X              Y              Z
 -------------------------------------------------------------------
      1        6          -0.009024523    0.012687599   -0.005866123
      2        6           0.012418900   -0.008965073    0.012220560
      3       17          -0.009098534    0.005713851   -0.000228746
      4       17          -0.001717560    0.009814691   -0.005307583
      5       17          -0.005287359   -0.000878895   -0.009047744
      6       17           0.006898562   -0.007431283   -0.000274040
      7       17           0.001519108   -0.008547502    0.003878659
      8        1           0.004291406   -0.002393388    0.004625017
 -------------------------------------------------------------------
 Cartesian Forces:  Max     0.012687599 RMS     0.007225911

 GradGradGradGradGradGradGradGradGradGradGradGradGradGradGradGradGradGrad
 Berny optimization.
 FormGI is forming the generalized inverse of G from B-inverse, IUseBI=4.
 Internal  Forces:  Max     0.012246754 RMS     0.007092386
 Search for a local minimum.
 Step number   1 out of a maximum of   38
 All quantities printed in internal units (Hartrees-Bohrs-Radians)
 Mixed Optimization -- RFO/linear search
 Second derivative matrix not updated -- first step.
 ITU=  0
     Eigenvalues ---    0.00230   0.05785   0.06537   0.08117   0.08593
     Eigenvalues ---    0.16000   0.23352   0.24226   0.25000   0.25000
     Eigenvalues ---    0.25000   0.26058   0.26070   0.26602   0.26613
     Eigenvalues ---    0.26621   0.28318   0.34255
 RFO step:  Lambda=-5.81351621D-03 EMin= 2.30000000D-03
 Linear search not attempted -- first point.
 Iteration  1 RMS(Cart)=  0.06789227 RMS(Int)=  0.00152011
 Iteration  2 RMS(Cart)=  0.00146517 RMS(Int)=  0.00047296
 Iteration  3 RMS(Cart)=  0.00000070 RMS(Int)=  0.00047296
 Variable       Old X    -DE/DX   Delta X   Delta X   Delta X     New X
                                 (Linear)    (Quad)   (Total)
    R1        2.91449  -0.00676   0.00000  -0.02340  -0.02340   2.89109
    R2        3.38976  -0.00805   0.00000  -0.02959  -0.02959   3.36017
    R3        3.38955  -0.00767   0.00000  -0.02818  -0.02818   3.36138
    R4        2.06902  -0.00383   0.00000  -0.01099  -0.01099   2.05803
    R5        3.40262  -0.00875   0.00000  -0.03283  -0.03283   3.36979
    R6        3.40291  -0.00895   0.00000  -0.03359  -0.03359   3.36932
    R7        3.39000  -0.00950   0.00000  -0.03494  -0.03494   3.35506
    A1        1.96904  -0.00897   0.00000  -0.03374  -0.03427   1.93477
    A2        1.96907  -0.00815   0.00000  -0.02883  -0.02921   1.93986
    A3        1.92863  -0.00488   0.00000  -0.03958  -0.04041   1.88822
    A4        1.88183   0.01154   0.00000   0.05435   0.05424   1.93607
    A5        1.85437   0.00612   0.00000   0.02492   0.02393   1.87831
    A6        1.85367   0.00630   0.00000   0.03117   0.03049   1.88417
    A7        1.92810  -0.01049   0.00000  -0.04055  -0.04126   1.88684
    A8        1.92828  -0.01225   0.00000  -0.04884  -0.04966   1.87861
    A9        1.96278  -0.00543   0.00000  -0.02070  -0.02117   1.94161
   A10        1.86290   0.01124   0.00000   0.04290   0.04176   1.90466
   A11        1.88932   0.00901   0.00000   0.03698   0.03661   1.92592
   A12        1.88909   0.00953   0.00000   0.03645   0.03587   1.92496
    D1        3.14156  -0.00180   0.00000  -0.06120  -0.06074   3.08082
    D2        1.08422  -0.00157   0.00000  -0.05875  -0.05867   1.02555
    D3       -1.02862  -0.00140   0.00000  -0.05670  -0.05652  -1.08514
    D4       -1.00366   0.00040   0.00000  -0.03698  -0.03691  -1.04058
    D5       -3.06100   0.00063   0.00000  -0.03452  -0.03484  -3.09584
    D6        1.10934   0.00080   0.00000  -0.03248  -0.03269   1.07665
    D7        1.06851  -0.00032   0.00000  -0.04349  -0.04336   1.02515
    D8       -0.98883  -0.00009   0.00000  -0.04104  -0.04129  -1.03011
    D9       -3.10167   0.00008   0.00000  -0.03900  -0.03914  -3.14081
         Item               Value     Threshold  Converged?
 Maximum Force            0.012247     0.000450     NO 
 RMS     Force            0.007092     0.000300     NO 
 Maximum Displacement     0.170594     0.001800     NO 
 RMS     Displacement     0.068522     0.001200     NO 
 Predicted change in Energy=-3.022916D-03
 GradGradGradGradGradGradGradGradGradGradGradGradGradGradGradGradGradGrad

                          Input orientation:                          
 ---------------------------------------------------------------------
 Center     Atomic      Atomic             Coordinates (Angstroms)
 Number     Number       Type             X           Y           Z
 ---------------------------------------------------------------------
      1          6           0       -0.481042    0.399173   -0.470185
      2          6           0        0.453110   -0.461838    0.382228
      3         17           0        1.812467   -0.988500   -0.644724
      4         17           0       -0.466796   -1.893803    0.913476
      5         17           0        1.054861    0.439865    1.788265
      6         17           0       -1.918501    0.883126    0.457845
      7         17           0        0.368359    1.823054   -1.114452
      8          1           0       -0.819859   -0.199977   -1.314153
 ---------------------------------------------------------------------
                    Distance matrix (angstroms):
                    1          2          3          4          5
     1  C    0.000000
     2  C    1.529898   0.000000
     3  Cl   2.686314   1.783214   0.000000
     4  Cl   2.678145   1.782968   2.905615   0.000000
     5  Cl   2.731529   1.775419   2.921237   2.920051   0.000000
     6  Cl   1.778128   2.727487   4.317263   3.166446   3.287459
     7  Cl   1.778763   2.732758   3.195454   4.315669   3.287896
     8  H    1.089064   2.136991   2.828258   2.820644   3.680893
                    6          7          8
     6  Cl   0.000000
     7  Cl   2.930071   0.000000
     8  H    2.349490   2.354654   0.000000
 Stoichiometry    C2HCl5
 Framework group  C1[X(C2HCl5)]
 Deg. of freedom    18
 Full point group                 C1      NOp   1
 Largest Abelian subgroup         C1      NOp   1
 Largest concise Abelian subgroup C1      NOp   1
                         Standard orientation:                         
 ---------------------------------------------------------------------
 Center     Atomic      Atomic             Coordinates (Angstroms)
 Number     Number       Type             X           Y           Z
 ---------------------------------------------------------------------
      1          6           0       -0.787990    0.003287   -0.610536
      2          6           0        0.613469    0.001451    0.003056
      3         17           0        1.478535    1.445011   -0.586561
      4         17           0        1.454463   -1.460482   -0.575266
      5         17           0        0.539164    0.007922    1.776907
      6         17           0       -1.683121   -1.462046   -0.148716
      7         17           0       -1.687186    1.468020   -0.152274
      8          1           0       -0.684416   -0.001646   -1.694653
 ---------------------------------------------------------------------
 Rotational constants (GHZ):      1.1468810      0.9821334      0.7550266
 Standard basis: 6-31+G(d) (6D, 7F)
 There are   155 symmetry adapted cartesian basis functions of A   symmetry.
 There are   155 symmetry adapted basis functions of A   symmetry.
   155 basis functions,   348 primitive gaussians,   155 cartesian basis functions
    49 alpha electrons       49 beta electrons
       nuclear repulsion energy       754.1128489371 Hartrees.
 NAtoms=    8 NActive=    8 NUniq=    8 SFac= 1.00D+00 NAtFMM=   60 NAOKFM=F Big=F
 Integral buffers will be    131072 words long.
 Raffenetti 2 integral format.
 Two-electron integral symmetry is turned on.
 One-electron integrals computed using PRISM.
 NBasis=   155 RedAO= T EigKep=  2.51D-05  NBF=   155
 NBsUse=   155 1.00D-06 EigRej= -1.00D+00 NBFU=   155
 Initial guess from the checkpoint file:  "/srv/scratch/z5358697/gauss/Gau-807621.chk"
 B after Tr=     0.000000    0.000000    0.000000
         Rot=    0.999850    0.014771    0.007735    0.004623 Ang=   1.98 deg.
 ExpMin= 4.38D-02 ExpMax= 2.52D+04 ExpMxC= 3.78D+03 IAcc=2 IRadAn=         4 AccDes= 0.00D+00
 Harris functional with IExCor= 1009 and IRadAn=       4 diagonalized for initial guess.
 HarFok:  IExCor= 1009 AccDes= 0.00D+00 IRadAn=         4 IDoV= 1 UseB2=F ITyADJ=14
 ICtDFT=  3500011 ScaDFX=  1.000000  1.000000  1.000000  1.000000
 FoFCou: FMM=F IPFlag=           0 FMFlag=      100000 FMFlg1=           0
         NFxFlg=           0 DoJE=T BraDBF=F KetDBF=T FulRan=T
         wScrn=  0.000000 ICntrl=     500 IOpCl=  0 I1Cent=   200000004 NGrid=           0
         NMat0=    1 NMatS0=      1 NMatT0=    0 NMatD0=    1 NMtDS0=    0 NMtDT0=    0
 Petite list used in FoFCou.
 Requested convergence on RMS density matrix=1.00D-08 within 128 cycles.
 Requested convergence on MAX density matrix=1.00D-06.
 Requested convergence on             energy=1.00D-06.
 No special actions if energy rises.
 SCF Done:  E(RM062X) =  -2377.58518156     A.U. after   12 cycles
            NFock= 12  Conv=0.48D-08     -V/T= 2.0028
 Calling FoFJK, ICntrl=      2127 FMM=F ISym2X=0 I1Cent= 0 IOpClX= 0 NMat=1 NMatS=1 NMatT=0.
 ***** Axes restored to original set *****
 -------------------------------------------------------------------
 Center     Atomic                   Forces (Hartrees/Bohr)
 Number     Number              X              Y              Z
 -------------------------------------------------------------------
      1        6          -0.005839848    0.009076571   -0.003236829
      2        6           0.005096332   -0.004334922    0.005480476
      3       17          -0.000751800   -0.001313930    0.002203127
      4       17           0.003362279   -0.001359006    0.000156103
      5       17           0.000374175   -0.002945785   -0.001480256
      6       17           0.000861530    0.002024936   -0.002784911
      7       17          -0.003198203   -0.001180748    0.000331337
      8        1           0.000095533    0.000032885   -0.000669046
 -------------------------------------------------------------------
 Cartesian Forces:  Max     0.009076571 RMS     0.003277981

 GradGradGradGradGradGradGradGradGradGradGradGradGradGradGradGradGradGrad
 Berny optimization.
 Using GEDIIS/GDIIS optimizer.
 FormGI is forming the generalized inverse of G from B-inverse, IUseBI=4.
 Internal  Forces:  Max     0.014093546 RMS     0.003911290
 Search for a local minimum.
 Step number   2 out of a maximum of   38
 All quantities printed in internal units (Hartrees-Bohrs-Radians)
 Mixed Optimization -- RFO/linear search
 Update second derivatives using D2CorX and points    1    2
 DE= -2.20D-03 DEPred=-3.02D-03 R= 7.29D-01
 TightC=F SS=  1.41D+00  RLast= 2.05D-01 DXNew= 5.0454D-01 6.1442D-01
 Trust test= 7.29D-01 RLast= 2.05D-01 DXMaxT set to 5.05D-01
 ITU=  1  0
 Use linear search instead of GDIIS.
     Eigenvalues ---    0.00240   0.06180   0.06835   0.08643   0.09268
     Eigenvalues ---    0.15393   0.21968   0.23651   0.24551   0.25000
     Eigenvalues ---    0.25036   0.26059   0.26182   0.26607   0.26610
     Eigenvalues ---    0.26822   0.34176   0.43146
 RFO step:  Lambda=-7.84438849D-04 EMin= 2.40051981D-03
 Quartic linear search produced a step of -0.20925.
 Iteration  1 RMS(Cart)=  0.03612252 RMS(Int)=  0.00044131
 Iteration  2 RMS(Cart)=  0.00042037 RMS(Int)=  0.00011245
 Iteration  3 RMS(Cart)=  0.00000005 RMS(Int)=  0.00011245
 Variable       Old X    -DE/DX   Delta X   Delta X   Delta X     New X
                                 (Linear)    (Quad)   (Total)
    R1        2.89109   0.01409   0.00490   0.03145   0.03635   2.92744
    R2        3.36017  -0.00162   0.00619  -0.01450  -0.00831   3.35186
    R3        3.36138  -0.00260   0.00590  -0.01694  -0.01105   3.35033
    R4        2.05803   0.00050   0.00230  -0.00240  -0.00011   2.05793
    R5        3.36979  -0.00147   0.00687  -0.01525  -0.00838   3.36141
    R6        3.36932  -0.00061   0.00703  -0.01288  -0.00585   3.36347
    R7        3.35506  -0.00251   0.00731  -0.01889  -0.01158   3.34348
    A1        1.93477   0.00621   0.00717   0.01084   0.01807   1.95285
    A2        1.93986   0.00366   0.00611   0.00206   0.00818   1.94804
    A3        1.88822  -0.00143   0.00846  -0.02013  -0.01145   1.87677
    A4        1.93607  -0.00536  -0.01135   0.00318  -0.00827   1.92780
    A5        1.87831  -0.00171  -0.00501   0.00423  -0.00051   1.87780
    A6        1.88417  -0.00168  -0.00638  -0.00112  -0.00734   1.87683
    A7        1.88684   0.00298   0.00863  -0.00695   0.00184   1.88868
    A8        1.87861   0.00652   0.01039   0.00426   0.01476   1.89337
    A9        1.94161   0.00329   0.00443   0.00531   0.00977   1.95138
   A10        1.90466  -0.00544  -0.00874  -0.00846  -0.01694   1.88772
   A11        1.92592  -0.00328  -0.00766   0.00105  -0.00654   1.91939
   A12        1.92496  -0.00388  -0.00750   0.00437  -0.00315   1.92180
    D1        3.08082  -0.00010   0.01271  -0.05909  -0.04653   3.03429
    D2        1.02555   0.00122   0.01228  -0.04771  -0.03545   0.99010
    D3       -1.08514  -0.00018   0.01183  -0.05904  -0.04734  -1.13249
    D4       -1.04058   0.00008   0.00772  -0.04568  -0.03794  -1.07852
    D5       -3.09584   0.00141   0.00729  -0.03430  -0.02686  -3.12270
    D6        1.07665   0.00000   0.00684  -0.04564  -0.03875   1.03790
    D7        1.02515  -0.00072   0.00907  -0.05827  -0.04922   0.97593
    D8       -1.03011   0.00061   0.00864  -0.04689  -0.03814  -1.06825
    D9       -3.14081  -0.00080   0.00819  -0.05823  -0.05003   3.09234
         Item               Value     Threshold  Converged?
 Maximum Force            0.014094     0.000450     NO 
 RMS     Force            0.003911     0.000300     NO 
 Maximum Displacement     0.077880     0.001800     NO 
 RMS     Displacement     0.036084     0.001200     NO 
 Predicted change in Energy=-5.057970D-04
 GradGradGradGradGradGradGradGradGradGradGradGradGradGradGradGradGradGrad

                          Input orientation:                          
 ---------------------------------------------------------------------
 Center     Atomic      Atomic             Coordinates (Angstroms)
 Number     Number       Type             X           Y           Z
 ---------------------------------------------------------------------
      1          6           0       -0.487171    0.412016   -0.470687
      2          6           0        0.455951   -0.464632    0.390605
      3         17           0        1.793569   -1.021714   -0.641141
      4         17           0       -0.450188   -1.893308    0.943537
      5         17           0        1.094596    0.425826    1.779708
      6         17           0       -1.950623    0.877939    0.416632
      7         17           0        0.344076    1.849100   -1.092823
      8          1           0       -0.797610   -0.184127   -1.327531
 ---------------------------------------------------------------------
                    Distance matrix (angstroms):
                    1          2          3          4          5
     1  C    0.000000
     2  C    1.549134   0.000000
     3  Cl   2.699336   1.778782   0.000000
     4  Cl   2.704795   1.779870   2.881896   0.000000
     5  Cl   2.750720   1.769291   2.905933   2.909283   0.000000
     6  Cl   1.773729   2.755862   4.329728   3.195113   3.366860
     7  Cl   1.772917   2.750715   3.247557   4.333963   3.292480
     8  H    1.089009   2.145248   2.808362   2.863520   3.688824
                    6          7          8
     6  Cl   0.000000
     7  Cl   2.913289   0.000000
     8  H    2.345107   2.343619   0.000000
 Stoichiometry    C2HCl5
 Framework group  C1[X(C2HCl5)]
 Deg. of freedom    18
 Full point group                 C1      NOp   1
 Largest Abelian subgroup         C1      NOp   1
 Largest concise Abelian subgroup C1      NOp   1
                         Standard orientation:                         
 ---------------------------------------------------------------------
 Center     Atomic      Atomic             Coordinates (Angstroms)
 Number     Number       Type             X           Y           Z
 ---------------------------------------------------------------------
      1          6           0       -0.812693   -0.002485   -0.592833
      2          6           0        0.617743   -0.000600    0.001863
      3         17           0        1.493594    1.398515   -0.661030
      4         17           0        1.451953   -1.480109   -0.530195
      5         17           0        0.594700    0.082763    1.769039
      6         17           0       -1.718247   -1.456562   -0.132672
      7         17           0       -1.711020    1.456714   -0.137880
      8          1           0       -0.716949   -0.003958   -1.677623
 ---------------------------------------------------------------------
 Rotational constants (GHZ):      1.1578383      0.9615426      0.7471884
 Standard basis: 6-31+G(d) (6D, 7F)
 There are   155 symmetry adapted cartesian basis functions of A   symmetry.
 There are   155 symmetry adapted basis functions of A   symmetry.
   155 basis functions,   348 primitive gaussians,   155 cartesian basis functions
    49 alpha electrons       49 beta electrons
       nuclear repulsion energy       752.1788244063 Hartrees.
 NAtoms=    8 NActive=    8 NUniq=    8 SFac= 1.00D+00 NAtFMM=   60 NAOKFM=F Big=F
 Integral buffers will be    131072 words long.
 Raffenetti 2 integral format.
 Two-electron integral symmetry is turned on.
 One-electron integrals computed using PRISM.
 NBasis=   155 RedAO= T EigKep=  2.64D-05  NBF=   155
 NBsUse=   155 1.00D-06 EigRej= -1.00D+00 NBFU=   155
 Initial guess from the checkpoint file:  "/srv/scratch/z5358697/gauss/Gau-807621.chk"
 B after Tr=     0.000000    0.000000    0.000000
         Rot=    0.999876    0.013849   -0.007164    0.002287 Ang=   1.81 deg.
 ExpMin= 4.38D-02 ExpMax= 2.52D+04 ExpMxC= 3.78D+03 IAcc=2 IRadAn=         4 AccDes= 0.00D+00
 Harris functional with IExCor= 1009 and IRadAn=       4 diagonalized for initial guess.
 HarFok:  IExCor= 1009 AccDes= 0.00D+00 IRadAn=         4 IDoV= 1 UseB2=F ITyADJ=14
 ICtDFT=  3500011 ScaDFX=  1.000000  1.000000  1.000000  1.000000
 FoFCou: FMM=F IPFlag=           0 FMFlag=      100000 FMFlg1=           0
         NFxFlg=           0 DoJE=T BraDBF=F KetDBF=T FulRan=T
         wScrn=  0.000000 ICntrl=     500 IOpCl=  0 I1Cent=   200000004 NGrid=           0
         NMat0=    1 NMatS0=      1 NMatT0=    0 NMatD0=    1 NMtDS0=    0 NMtDT0=    0
 Petite list used in FoFCou.
 Requested convergence on RMS density matrix=1.00D-08 within 128 cycles.
 Requested convergence on MAX density matrix=1.00D-06.
 Requested convergence on             energy=1.00D-06.
 No special actions if energy rises.
 SCF Done:  E(RM062X) =  -2377.58560173     A.U. after   12 cycles
            NFock= 12  Conv=0.32D-08     -V/T= 2.0028
 Calling FoFJK, ICntrl=      2127 FMM=F ISym2X=0 I1Cent= 0 IOpClX= 0 NMat=1 NMatS=1 NMatT=0.
 ***** Axes restored to original set *****
 -------------------------------------------------------------------
 Center     Atomic                   Forces (Hartrees/Bohr)
 Number     Number              X              Y              Z
 -------------------------------------------------------------------
      1        6          -0.001854198    0.002290289   -0.001009635
      2        6           0.000870768   -0.001282558    0.001669704
      3       17           0.001116418    0.000590863   -0.001029495
      4       17          -0.000328119   -0.000498079    0.000087305
      5       17          -0.000897846    0.000042573    0.000099540
      6       17           0.001155124    0.000405052    0.000178186
      7       17           0.000178614   -0.000801126    0.000231075
      8        1          -0.000240760   -0.000747015   -0.000226680
 -------------------------------------------------------------------
 Cartesian Forces:  Max     0.002290289 RMS     0.000949893

 GradGradGradGradGradGradGradGradGradGradGradGradGradGradGradGradGradGrad
 Berny optimization.
 Using GEDIIS/GDIIS optimizer.
 FormGI is forming the generalized inverse of G from B-inverse, IUseBI=4.
 Internal  Forces:  Max     0.001581622 RMS     0.000769174
 Search for a local minimum.
 Step number   3 out of a maximum of   38
 All quantities printed in internal units (Hartrees-Bohrs-Radians)
 Mixed Optimization -- En-DIIS/RFO-DIIS
 Update second derivatives using D2CorX and points    1    2    3
 DE= -4.20D-04 DEPred=-5.06D-04 R= 8.31D-01
 TightC=F SS=  1.41D+00  RLast= 1.37D-01 DXNew= 8.4853D-01 4.1092D-01
 Trust test= 8.31D-01 RLast= 1.37D-01 DXMaxT set to 5.05D-01
 ITU=  1  1  0
 Use linear search instead of GDIIS.
     Eigenvalues ---    0.00343   0.06068   0.06799   0.08400   0.09452
     Eigenvalues ---    0.13271   0.19020   0.23700   0.24589   0.25010
     Eigenvalues ---    0.25237   0.26059   0.26445   0.26606   0.26635
     Eigenvalues ---    0.27453   0.34344   0.43757
 RFO step:  Lambda=-7.03193618D-04 EMin= 3.42678862D-03
 Quartic linear search produced a step of -0.16303.
 Iteration  1 RMS(Cart)=  0.09148049 RMS(Int)=  0.00303203
 Iteration  2 RMS(Cart)=  0.00318077 RMS(Int)=  0.00002649
 Iteration  3 RMS(Cart)=  0.00000287 RMS(Int)=  0.00002645
 Iteration  4 RMS(Cart)=  0.00000000 RMS(Int)=  0.00002645
 Variable       Old X    -DE/DX   Delta X   Delta X   Delta X     New X
                                 (Linear)    (Quad)   (Total)
    R1        2.92744   0.00158  -0.00593   0.02800   0.02207   2.94951
    R2        3.35186  -0.00076   0.00136  -0.01407  -0.01271   3.33915
    R3        3.35033  -0.00067   0.00180  -0.01560  -0.01380   3.33652
    R4        2.05793   0.00068   0.00002  -0.00049  -0.00047   2.05746
    R5        3.36141   0.00125   0.00137  -0.00850  -0.00714   3.35427
    R6        3.36347   0.00058   0.00095  -0.00879  -0.00784   3.35563
    R7        3.34348  -0.00020   0.00189  -0.01583  -0.01395   3.32953
    A1        1.95285  -0.00042  -0.00295   0.00557   0.00264   1.95549
    A2        1.94804  -0.00099  -0.00133  -0.00403  -0.00539   1.94265
    A3        1.87677  -0.00020   0.00187  -0.01611  -0.01428   1.86249
    A4        1.92780   0.00044   0.00135   0.00251   0.00388   1.93168
    A5        1.87780   0.00075   0.00008   0.01049   0.01058   1.88838
    A6        1.87683   0.00050   0.00120   0.00145   0.00256   1.87939
    A7        1.88868  -0.00121  -0.00030  -0.00970  -0.01002   1.87866
    A8        1.89337   0.00045  -0.00241   0.00418   0.00179   1.89516
    A9        1.95138  -0.00120  -0.00159  -0.00157  -0.00316   1.94822
   A10        1.88772   0.00089   0.00276   0.00003   0.00279   1.89051
   A11        1.91939   0.00095   0.00107   0.00335   0.00439   1.92378
   A12        1.92180   0.00015   0.00051   0.00355   0.00409   1.92589
    D1        3.03429   0.00121   0.00759   0.12668   0.13426  -3.11464
    D2        0.99010   0.00056   0.00578   0.12966   0.13544   1.12554
    D3       -1.13249   0.00084   0.00772   0.12339   0.13113  -1.00135
    D4       -1.07852   0.00072   0.00619   0.13113   0.13727  -0.94124
    D5       -3.12270   0.00008   0.00438   0.13411   0.13845  -2.98425
    D6        1.03790   0.00036   0.00632   0.12784   0.13414   1.17204
    D7        0.97593   0.00065   0.00802   0.12074   0.12878   1.10471
    D8       -1.06825   0.00000   0.00622   0.12372   0.12996  -0.93830
    D9        3.09234   0.00028   0.00816   0.11745   0.12565  -3.06519
         Item               Value     Threshold  Converged?
 Maximum Force            0.001582     0.000450     NO 
 RMS     Force            0.000769     0.000300     NO 
 Maximum Displacement     0.191091     0.001800     NO 
 RMS     Displacement     0.091375     0.001200     NO 
 Predicted change in Energy=-3.979364D-04
 GradGradGradGradGradGradGradGradGradGradGradGradGradGradGradGradGradGrad

                          Input orientation:                          
 ---------------------------------------------------------------------
 Center     Atomic      Atomic             Coordinates (Angstroms)
 Number     Number       Type             X           Y           Z
 ---------------------------------------------------------------------
      1          6           0       -0.499150    0.414387   -0.465778
      2          6           0        0.455005   -0.468636    0.397934
      3         17           0        1.831064   -0.931373   -0.623328
      4         17           0       -0.411890   -1.945090    0.868851
      5         17           0        1.019900    0.392415    1.827554
      6         17           0       -1.896401    0.979060    0.456788
      7         17           0        0.363700    1.775868   -1.186366
      8          1           0       -0.859628   -0.215532   -1.277355
 ---------------------------------------------------------------------
                    Distance matrix (angstroms):
                    1          2          3          4          5
     1  C    0.000000
     2  C    1.560814   0.000000
     3  Cl   2.695512   1.775004   0.000000
     4  Cl   2.712191   1.775721   2.878378   0.000000
     5  Cl   2.750885   1.761911   2.901245   2.903974   0.000000
     6  Cl   1.767003   2.761956   4.325552   3.305181   3.275357
     7  Cl   1.765612   2.748844   3.130387   4.320993   3.380569
     8  H    1.088760   2.144508   2.860070   2.792497   3.680038
                    6          7          8
     6  Cl   0.000000
     7  Cl   2.905670   0.000000
     8  H    2.347169   2.338906   0.000000
 Stoichiometry    C2HCl5
 Framework group  C1[X(C2HCl5)]
 Deg. of freedom    18
 Full point group                 C1      NOp   1
 Largest Abelian subgroup         C1      NOp   1
 Largest concise Abelian subgroup C1      NOp   1
                         Standard orientation:                         
 ---------------------------------------------------------------------
 Center     Atomic      Atomic             Coordinates (Angstroms)
 Number     Number       Type             X           Y           Z
 ---------------------------------------------------------------------
      1          6           0       -0.818737   -0.005687   -0.590971
      2          6           0        0.623634   -0.006578    0.005440
      3         17           0        1.406580    1.511229   -0.478189
      4         17           0        1.530920   -1.355129   -0.709702
      5         17           0        0.600022   -0.147125    1.761577
      6         17           0       -1.723374   -1.455233   -0.140697
      7         17           0       -1.703545    1.450341   -0.127848
      8          1           0       -0.709629    0.004177   -1.674206
 ---------------------------------------------------------------------
 Rotational constants (GHZ):      1.1622676      0.9632311      0.7489965
 Standard basis: 6-31+G(d) (6D, 7F)
 There are   155 symmetry adapted cartesian basis functions of A   symmetry.
 There are   155 symmetry adapted basis functions of A   symmetry.
   155 basis functions,   348 primitive gaussians,   155 cartesian basis functions
    49 alpha electrons       49 beta electrons
       nuclear repulsion energy       753.3190307098 Hartrees.
 NAtoms=    8 NActive=    8 NUniq=    8 SFac= 1.00D+00 NAtFMM=   60 NAOKFM=F Big=F
 Integral buffers will be    131072 words long.
 Raffenetti 2 integral format.
 Two-electron integral symmetry is turned on.
 One-electron integrals computed using PRISM.
 NBasis=   155 RedAO= T EigKep=  2.61D-05  NBF=   155
 NBsUse=   155 1.00D-06 EigRej= -1.00D+00 NBFU=   155
 Initial guess from the checkpoint file:  "/srv/scratch/z5358697/gauss/Gau-807621.chk"
 B after Tr=     0.000000    0.000000    0.000000
         Rot=    0.998978   -0.043729   -0.000680   -0.011427 Ang=  -5.18 deg.
 ExpMin= 4.38D-02 ExpMax= 2.52D+04 ExpMxC= 3.78D+03 IAcc=2 IRadAn=         4 AccDes= 0.00D+00
 Harris functional with IExCor= 1009 and IRadAn=       4 diagonalized for initial guess.
 HarFok:  IExCor= 1009 AccDes= 0.00D+00 IRadAn=         4 IDoV= 1 UseB2=F ITyADJ=14
 ICtDFT=  3500011 ScaDFX=  1.000000  1.000000  1.000000  1.000000
 FoFCou: FMM=F IPFlag=           0 FMFlag=      100000 FMFlg1=           0
         NFxFlg=           0 DoJE=T BraDBF=F KetDBF=T FulRan=T
         wScrn=  0.000000 ICntrl=     500 IOpCl=  0 I1Cent=   200000004 NGrid=           0
         NMat0=    1 NMatS0=      1 NMatT0=    0 NMatD0=    1 NMtDS0=    0 NMtDT0=    0
 Petite list used in FoFCou.
 Requested convergence on RMS density matrix=1.00D-08 within 128 cycles.
 Requested convergence on MAX density matrix=1.00D-06.
 Requested convergence on             energy=1.00D-06.
 No special actions if energy rises.
 SCF Done:  E(RM062X) =  -2377.58504673     A.U. after   12 cycles
            NFock= 12  Conv=0.36D-08     -V/T= 2.0028
 Calling FoFJK, ICntrl=      2127 FMM=F ISym2X=0 I1Cent= 0 IOpClX= 0 NMat=1 NMatS=1 NMatT=0.
 ***** Axes restored to original set *****
 -------------------------------------------------------------------
 Center     Atomic                   Forces (Hartrees/Bohr)
 Number     Number              X              Y              Z
 -------------------------------------------------------------------
      1        6           0.001915394   -0.003364884    0.001049268
      2        6          -0.001711039    0.002550945   -0.003333440
      3       17           0.003268641   -0.003278694   -0.000885905
      4       17          -0.002664732   -0.000065533    0.001165689
      5       17           0.001101619    0.001515745    0.002175841
      6       17          -0.000790115   -0.001596990    0.000958585
      7       17          -0.000091771    0.004411034   -0.000383111
      8        1          -0.001027997   -0.000171624   -0.000746927
 -------------------------------------------------------------------
 Cartesian Forces:  Max     0.004411034 RMS     0.002050579

 GradGradGradGradGradGradGradGradGradGradGradGradGradGradGradGradGradGrad
 Berny optimization.
 Using GEDIIS/GDIIS optimizer.
 FormGI is forming the generalized inverse of G from B-inverse, IUseBI=4.
 Internal  Forces:  Max     0.006784212 RMS     0.002638822
 Search for a local minimum.
 Step number   4 out of a maximum of   38
 All quantities printed in internal units (Hartrees-Bohrs-Radians)
 Mixed Optimization -- RFO/linear search
 Update second derivatives using D2CorX and points    1    2    4    3
 DE=  5.55D-04 DEPred=-3.98D-04 R=-1.39D+00
 Trust test=-1.39D+00 RLast= 4.01D-01 DXMaxT set to 2.52D-01
 ITU= -1  1  1  0
 Use linear search instead of GDIIS.
 Energy rises -- skip Quadratic/GDIIS search.
 Quartic linear search produced a step of -0.72826.
 Iteration  1 RMS(Cart)=  0.06645909 RMS(Int)=  0.00160162
 Iteration  2 RMS(Cart)=  0.00168609 RMS(Int)=  0.00000481
 Iteration  3 RMS(Cart)=  0.00000083 RMS(Int)=  0.00000479
 Variable       Old X    -DE/DX   Delta X   Delta X   Delta X     New X
                                 (Linear)    (Quad)   (Total)
    R1        2.94951  -0.00089  -0.01607   0.00000  -0.01607   2.93344
    R2        3.33915   0.00060   0.00926   0.00000   0.00926   3.34841
    R3        3.33652   0.00351   0.01005   0.00000   0.01005   3.34658
    R4        2.05746   0.00101   0.00034   0.00000   0.00034   2.05780
    R5        3.35427   0.00389   0.00520   0.00000   0.00520   3.35947
    R6        3.35563   0.00166   0.00571   0.00000   0.00571   3.36134
    R7        3.32953   0.00288   0.01016   0.00000   0.01016   3.33969
    A1        1.95549  -0.00452  -0.00192   0.00000  -0.00192   1.95356
    A2        1.94265   0.00477   0.00392   0.00000   0.00393   1.94658
    A3        1.86249   0.00104   0.01040   0.00000   0.01041   1.87290
    A4        1.93168  -0.00060  -0.00283   0.00000  -0.00283   1.92885
    A5        1.88838  -0.00012  -0.00770   0.00000  -0.00771   1.88067
    A6        1.87939  -0.00050  -0.00186   0.00000  -0.00185   1.87754
    A7        1.87866   0.00678   0.00730   0.00000   0.00730   1.88596
    A8        1.89516  -0.00492  -0.00130   0.00000  -0.00130   1.89386
    A9        1.94822  -0.00063   0.00230   0.00000   0.00230   1.95052
   A10        1.89051  -0.00041  -0.00203   0.00000  -0.00203   1.88848
   A11        1.92378  -0.00158  -0.00320   0.00000  -0.00319   1.92059
   A12        1.92589   0.00084  -0.00298   0.00000  -0.00298   1.92291
    D1       -3.11464  -0.00217  -0.09778   0.00000  -0.09778   3.07077
    D2        1.12554  -0.00275  -0.09864   0.00000  -0.09863   1.02691
    D3       -1.00135  -0.00007  -0.09550   0.00000  -0.09550  -1.09685
    D4       -0.94124  -0.00273  -0.09997   0.00000  -0.09996  -1.04121
    D5       -2.98425  -0.00331  -0.10083   0.00000  -0.10082  -3.08507
    D6        1.17204  -0.00063  -0.09769   0.00000  -0.09769   1.07435
    D7        1.10471  -0.00014  -0.09378   0.00000  -0.09379   1.01092
    D8       -0.93830  -0.00072  -0.09464   0.00000  -0.09465  -1.03295
    D9       -3.06519   0.00196  -0.09150   0.00000  -0.09151   3.12648
         Item               Value     Threshold  Converged?
 Maximum Force            0.006784     0.000450     NO 
 RMS     Force            0.002639     0.000300     NO 
 Maximum Displacement     0.139042     0.001800     NO 
 RMS     Displacement     0.066534     0.001200     NO 
 Predicted change in Energy=-6.754860D-05
 GradGradGradGradGradGradGradGradGradGradGradGradGradGradGradGradGradGrad

                          Input orientation:                          
 ---------------------------------------------------------------------
 Center     Atomic      Atomic             Coordinates (Angstroms)
 Number     Number       Type             X           Y           Z
 ---------------------------------------------------------------------
      1          6           0       -0.490461    0.412597   -0.469385
      2          6           0        0.455681   -0.465718    0.392611
      3         17           0        1.804152   -0.997234   -0.636724
      4         17           0       -0.440121   -1.907862    0.923348
      5         17           0        1.074221    0.417218    1.793015
      6         17           0       -1.936475    0.905482    0.428247
      7         17           0        0.350127    1.829726   -1.118503
      8          1           0       -0.814523   -0.193109   -1.314309
 ---------------------------------------------------------------------
                    Distance matrix (angstroms):
                    1          2          3          4          5
     1  C    0.000000
     2  C    1.552308   0.000000
     3  Cl   2.698309   1.777755   0.000000
     4  Cl   2.706801   1.778742   2.880943   0.000000
     5  Cl   2.750765   1.767286   2.904669   2.907843   0.000000
     6  Cl   1.771901   2.757511   4.329755   3.224765   3.341450
     7  Cl   1.770932   2.750213   3.215276   4.331653   3.316087
     8  H    1.088941   2.145066   2.821913   2.843882   3.687183
                    6          7          8
     6  Cl   0.000000
     7  Cl   2.911222   0.000000
     8  H    2.345673   2.342352   0.000000
 Stoichiometry    C2HCl5
 Framework group  C1[X(C2HCl5)]
 Deg. of freedom    18
 Full point group                 C1      NOp   1
 Largest Abelian subgroup         C1      NOp   1
 Largest concise Abelian subgroup C1      NOp   1
                         Standard orientation:                         
 ---------------------------------------------------------------------
 Center     Atomic      Atomic             Coordinates (Angstroms)
 Number     Number       Type             X           Y           Z
 ---------------------------------------------------------------------
      1          6           0       -0.814378   -0.003349   -0.592228
      2          6           0        0.619306   -0.002186    0.002925
      3         17           0        1.470405    1.431996   -0.612840
      4         17           0        1.474161   -1.448764   -0.580649
      5         17           0        0.595051    0.020120    1.769903
      6         17           0       -1.719625   -1.456250   -0.134800
      7         17           0       -1.709083    1.454952   -0.135000
      8          1           0       -0.715017   -0.001700   -1.676626
 ---------------------------------------------------------------------
 Rotational constants (GHZ):      1.1589851      0.9619607      0.7476990
 Standard basis: 6-31+G(d) (6D, 7F)
 There are   155 symmetry adapted cartesian basis functions of A   symmetry.
 There are   155 symmetry adapted basis functions of A   symmetry.
   155 basis functions,   348 primitive gaussians,   155 cartesian basis functions
    49 alpha electrons       49 beta electrons
       nuclear repulsion energy       752.4535806114 Hartrees.
 NAtoms=    8 NActive=    8 NUniq=    8 SFac= 1.00D+00 NAtFMM=   60 NAOKFM=F Big=F
 Integral buffers will be    131072 words long.
 Raffenetti 2 integral format.
 Two-electron integral symmetry is turned on.
 One-electron integrals computed using PRISM.
 NBasis=   155 RedAO= T EigKep=  2.65D-05  NBF=   155
 NBsUse=   155 1.00D-06 EigRej= -1.00D+00 NBFU=   155
 Lowest energy guess from the checkpoint file:  "/srv/scratch/z5358697/gauss/Gau-807621.chk"
 B after Tr=     0.000000    0.000000    0.000000
         Rot=    0.999924   -0.011895   -0.000207   -0.003125 Ang=  -1.41 deg.
 B after Tr=     0.000000    0.000000    0.000000
         Rot=    0.999459    0.031834    0.000473    0.008304 Ang=   3.77 deg.
 Requested convergence on RMS density matrix=1.00D-08 within 128 cycles.
 Requested convergence on MAX density matrix=1.00D-06.
 Requested convergence on             energy=1.00D-06.
 No special actions if energy rises.
 SCF Done:  E(RM062X) =  -2377.58572016     A.U. after    9 cycles
            NFock=  9  Conv=0.44D-08     -V/T= 2.0028
 Calling FoFJK, ICntrl=      2127 FMM=F ISym2X=0 I1Cent= 0 IOpClX= 0 NMat=1 NMatS=1 NMatT=0.
 ***** Axes restored to original set *****
 -------------------------------------------------------------------
 Center     Atomic                   Forces (Hartrees/Bohr)
 Number     Number              X              Y              Z
 -------------------------------------------------------------------
      1        6          -0.000731110    0.000718512   -0.000391166
      2        6           0.000065280   -0.000068300    0.000191273
      3       17           0.001692997   -0.000378211   -0.001080615
      4       17          -0.001151626   -0.000318776    0.000408713
      5       17          -0.000362883    0.000455111    0.000584761
      6       17           0.000736194   -0.000305839    0.000448403
      7       17           0.000189345    0.000509590    0.000197434
      8        1          -0.000438196   -0.000612087   -0.000358802
 -------------------------------------------------------------------
 Cartesian Forces:  Max     0.001692997 RMS     0.000631416

 GradGradGradGradGradGradGradGradGradGradGradGradGradGradGradGradGradGrad
 Berny optimization.
 Using GEDIIS/GDIIS optimizer.
 FormGI is forming the generalized inverse of G from B-inverse, IUseBI=4.
 Internal  Forces:  Max     0.002013745 RMS     0.000795904
 Search for a local minimum.
 Step number   5 out of a maximum of   38
 All quantities printed in internal units (Hartrees-Bohrs-Radians)
 Mixed Optimization -- En-DIIS/RFO-DIIS
 Update second derivatives using D2CorX and points    1    2    4    3    5
 ITU=  0 -1  1  1  0
 Use linear search instead of GDIIS.
     Eigenvalues ---    0.00952   0.06559   0.06814   0.09068   0.09473
     Eigenvalues ---    0.13454   0.19411   0.24086   0.24605   0.25033
     Eigenvalues ---    0.26048   0.26425   0.26534   0.26629   0.27104
     Eigenvalues ---    0.30826   0.34403   0.44949
 RFO step:  Lambda=-8.64749535D-05 EMin= 9.51578183D-03
 Quartic linear search produced a step of  0.01918.
 Iteration  1 RMS(Cart)=  0.01123565 RMS(Int)=  0.00006280
 Iteration  2 RMS(Cart)=  0.00005924 RMS(Int)=  0.00001154
 Iteration  3 RMS(Cart)=  0.00000000 RMS(Int)=  0.00001154
 Variable       Old X    -DE/DX   Delta X   Delta X   Delta X     New X
                                 (Linear)    (Quad)   (Total)
    R1        2.93344   0.00039   0.00012   0.00429   0.00440   2.93784
    R2        3.34841  -0.00047  -0.00007  -0.00233  -0.00240   3.34601
    R3        3.34658   0.00041  -0.00007   0.00062   0.00055   3.34713
    R4        2.05780   0.00077   0.00000   0.00205   0.00205   2.05985
    R5        3.35947   0.00201  -0.00004   0.00646   0.00642   3.36589
    R6        3.36134   0.00094  -0.00004   0.00280   0.00276   3.36409
    R7        3.33969   0.00059  -0.00007   0.00112   0.00105   3.34074
    A1        1.95356  -0.00187   0.00001  -0.00786  -0.00786   1.94571
    A2        1.94658   0.00027  -0.00003   0.00159   0.00155   1.94813
    A3        1.87290   0.00019  -0.00007   0.00139   0.00131   1.87421
    A4        1.92885   0.00051   0.00002  -0.00177  -0.00177   1.92708
    A5        1.88067   0.00065   0.00006   0.00175   0.00180   1.88247
    A6        1.87754   0.00035   0.00001   0.00561   0.00561   1.88315
    A7        1.88596   0.00075  -0.00005   0.00557   0.00552   1.89148
    A8        1.89386  -0.00131   0.00001  -0.00491  -0.00492   1.88894
    A9        1.95052  -0.00110  -0.00002  -0.00465  -0.00468   1.94584
   A10        1.88848   0.00085   0.00001   0.00474   0.00476   1.89323
   A11        1.92059   0.00038   0.00002   0.00233   0.00236   1.92295
   A12        1.92291   0.00049   0.00002  -0.00272  -0.00273   1.92018
    D1        3.07077   0.00032   0.00070   0.01399   0.01469   3.08546
    D2        1.02691  -0.00038   0.00071   0.00800   0.00872   1.03562
    D3       -1.09685   0.00060   0.00068   0.01769   0.01836  -1.07849
    D4       -1.04121  -0.00022   0.00072   0.00693   0.00765  -1.03356
    D5       -3.08507  -0.00092   0.00072   0.00094   0.00168  -3.08340
    D6        1.07435   0.00006   0.00070   0.01064   0.01132   1.08568
    D7        1.01092   0.00047   0.00067   0.01545   0.01612   1.02705
    D8       -1.03295  -0.00023   0.00068   0.00946   0.01015  -1.02279
    D9        3.12648   0.00075   0.00065   0.01916   0.01980  -3.13690
         Item               Value     Threshold  Converged?
 Maximum Force            0.002014     0.000450     NO 
 RMS     Force            0.000796     0.000300     NO 
 Maximum Displacement     0.025552     0.001800     NO 
 RMS     Displacement     0.011246     0.001200     NO 
 Predicted change in Energy=-4.406714D-05
 GradGradGradGradGradGradGradGradGradGradGradGradGradGradGradGradGradGrad

                          Input orientation:                          
 ---------------------------------------------------------------------
 Center     Atomic      Atomic             Coordinates (Angstroms)
 Number     Number       Type             X           Y           Z
 ---------------------------------------------------------------------
      1          6           0       -0.490308    0.412238   -0.472957
      2          6           0        0.458226   -0.467160    0.389507
      3         17           0        1.817673   -0.995883   -0.632678
      4         17           0       -0.444540   -1.907927    0.917071
      5         17           0        1.061152    0.417843    1.796104
      6         17           0       -1.923210    0.909132    0.440843
      7         17           0        0.347850    1.829246   -1.126266
      8          1           0       -0.824243   -0.196390   -1.313325
 ---------------------------------------------------------------------
                    Distance matrix (angstroms):
                    1          2          3          4          5
     1  C    0.000000
     2  C    1.554638   0.000000
     3  Cl   2.708337   1.781153   0.000000
     4  Cl   2.705076   1.780202   2.889836   0.000000
     5  Cl   2.748763   1.767842   2.910314   2.906718   0.000000
     6  Cl   1.770633   2.751009   4.333097   3.216998   3.314290
     7  Cl   1.771224   2.753767   3.222633   4.332386   3.322816
     8  H    1.090027   2.148878   2.842919   2.836934   3.687891
                    6          7          8
     6  Cl   0.000000
     7  Cl   2.908635   0.000000
     8  H    2.346702   2.347764   0.000000
 Stoichiometry    C2HCl5
 Framework group  C1[X(C2HCl5)]
 Deg. of freedom    18
 Full point group                 C1      NOp   1
 Largest Abelian subgroup         C1      NOp   1
 Largest concise Abelian subgroup C1      NOp   1
                         Standard orientation:                         
 ---------------------------------------------------------------------
 Center     Atomic      Atomic             Coordinates (Angstroms)
 Number     Number       Type             X           Y           Z
 ---------------------------------------------------------------------
      1          6           0       -0.812814    0.001683   -0.599721
      2          6           0        0.620735    0.001170    0.001806
      3         17           0        1.476923    1.448062   -0.586372
      4         17           0        1.474958   -1.441757   -0.596008
      5         17           0        0.581415   -0.007729    1.769189
      6         17           0       -1.709496   -1.454177   -0.139746
      7         17           0       -1.714207    1.454453   -0.136920
      8          1           0       -0.710631    0.002405   -1.684948
 ---------------------------------------------------------------------
 Rotational constants (GHZ):      1.1582676      0.9634081      0.7474645
 Standard basis: 6-31+G(d) (6D, 7F)
 There are   155 symmetry adapted cartesian basis functions of A   symmetry.
 There are   155 symmetry adapted basis functions of A   symmetry.
   155 basis functions,   348 primitive gaussians,   155 cartesian basis functions
    49 alpha electrons       49 beta electrons
       nuclear repulsion energy       752.3570567501 Hartrees.
 NAtoms=    8 NActive=    8 NUniq=    8 SFac= 1.00D+00 NAtFMM=   60 NAOKFM=F Big=F
 Integral buffers will be    131072 words long.
 Raffenetti 2 integral format.
 Two-electron integral symmetry is turned on.
 One-electron integrals computed using PRISM.
 NBasis=   155 RedAO= T EigKep=  2.65D-05  NBF=   155
 NBsUse=   155 1.00D-06 EigRej= -1.00D+00 NBFU=   155
 Initial guess from the checkpoint file:  "/srv/scratch/z5358697/gauss/Gau-807621.chk"
 B after Tr=     0.000000    0.000000    0.000000
         Rot=    0.999985   -0.005151    0.001981   -0.000726 Ang=  -0.64 deg.
 ExpMin= 4.38D-02 ExpMax= 2.52D+04 ExpMxC= 3.78D+03 IAcc=2 IRadAn=         4 AccDes= 0.00D+00
 Harris functional with IExCor= 1009 and IRadAn=       4 diagonalized for initial guess.
 HarFok:  IExCor= 1009 AccDes= 0.00D+00 IRadAn=         4 IDoV= 1 UseB2=F ITyADJ=14
 ICtDFT=  3500011 ScaDFX=  1.000000  1.000000  1.000000  1.000000
 FoFCou: FMM=F IPFlag=           0 FMFlag=      100000 FMFlg1=           0
         NFxFlg=           0 DoJE=T BraDBF=F KetDBF=T FulRan=T
         wScrn=  0.000000 ICntrl=     500 IOpCl=  0 I1Cent=   200000004 NGrid=           0
         NMat0=    1 NMatS0=      1 NMatT0=    0 NMatD0=    1 NMtDS0=    0 NMtDT0=    0
 Petite list used in FoFCou.
 Requested convergence on RMS density matrix=1.00D-08 within 128 cycles.
 Requested convergence on MAX density matrix=1.00D-06.
 Requested convergence on             energy=1.00D-06.
 No special actions if energy rises.
 SCF Done:  E(RM062X) =  -2377.58574786     A.U. after   11 cycles
            NFock= 11  Conv=0.39D-08     -V/T= 2.0028
 Calling FoFJK, ICntrl=      2127 FMM=F ISym2X=0 I1Cent= 0 IOpClX= 0 NMat=1 NMatS=1 NMatT=0.
 ***** Axes restored to original set *****
 -------------------------------------------------------------------
 Center     Atomic                   Forces (Hartrees/Bohr)
 Number     Number              X              Y              Z
 -------------------------------------------------------------------
      1        6           0.000240521   -0.000111459    0.000038573
      2        6          -0.000197538    0.000249535   -0.000191498
      3       17          -0.000379385    0.000197923    0.000065123
      4       17          -0.000073457   -0.000391330   -0.000147963
      5       17           0.000448934    0.000117623    0.000135507
      6       17          -0.000381332    0.000034797    0.000178372
      7       17           0.000287773   -0.000168813   -0.000016043
      8        1           0.000054483    0.000071724   -0.000062070
 -------------------------------------------------------------------
 Cartesian Forces:  Max     0.000448934 RMS     0.000215369

 GradGradGradGradGradGradGradGradGradGradGradGradGradGradGradGradGradGrad
 Berny optimization.
 Using GEDIIS/GDIIS optimizer.
 FormGI is forming the generalized inverse of G from B-inverse, IUseBI=4.
 Internal  Forces:  Max     0.000613302 RMS     0.000278875
 Search for a local minimum.
 Step number   6 out of a maximum of   38
 All quantities printed in internal units (Hartrees-Bohrs-Radians)
 Mixed Optimization -- En-DIIS/RFO-DIIS
 Swapping is turned off.
 Update second derivatives using D2CorX and points    1    2    4    3    5
                                                      6
 DE= -2.77D-05 DEPred=-4.41D-05 R= 6.29D-01
 TightC=F SS=  1.41D+00  RLast= 4.32D-02 DXNew= 4.2426D-01 1.2969D-01
 Trust test= 6.29D-01 RLast= 4.32D-02 DXMaxT set to 2.52D-01
 ITU=  1  0 -1  1  1  0
     Eigenvalues ---    0.00976   0.06564   0.06989   0.09158   0.10642
     Eigenvalues ---    0.13471   0.19772   0.24169   0.24441   0.25118
     Eigenvalues ---    0.25507   0.26321   0.26530   0.26630   0.26971
     Eigenvalues ---    0.33856   0.35275   0.44523
 En-DIIS/RFO-DIIS IScMMF=        0 using points:     6    5
 RFO step:  Lambda=-4.36320374D-06.
 DidBck=T Rises=F RFO-DIIS coefs:    0.77986    0.22014
 Iteration  1 RMS(Cart)=  0.00272824 RMS(Int)=  0.00000374
 Iteration  2 RMS(Cart)=  0.00000339 RMS(Int)=  0.00000174
 Iteration  3 RMS(Cart)=  0.00000000 RMS(Int)=  0.00000174
 Variable       Old X    -DE/DX   Delta X   Delta X   Delta X     New X
                                 (Linear)    (Quad)   (Total)
    R1        2.93784  -0.00029  -0.00097  -0.00006  -0.00103   2.93681
    R2        3.34601   0.00039   0.00053   0.00079   0.00132   3.34733
    R3        3.34713  -0.00001  -0.00012   0.00047   0.00035   3.34748
    R4        2.05985   0.00002  -0.00045   0.00062   0.00017   2.06002
    R5        3.36589  -0.00040  -0.00141   0.00078  -0.00063   3.36526
    R6        3.36409   0.00030  -0.00061   0.00182   0.00122   3.36531
    R7        3.34074   0.00035  -0.00023   0.00162   0.00139   3.34213
    A1        1.94571   0.00030   0.00173  -0.00065   0.00108   1.94679
    A2        1.94813  -0.00061  -0.00034  -0.00122  -0.00155   1.94657
    A3        1.87421  -0.00002  -0.00029   0.00010  -0.00019   1.87402
    A4        1.92708   0.00034   0.00039   0.00126   0.00165   1.92874
    A5        1.88247  -0.00008  -0.00040   0.00022  -0.00018   1.88229
    A6        1.88315   0.00007  -0.00123   0.00033  -0.00090   1.88225
    A7        1.89148  -0.00056  -0.00122  -0.00084  -0.00205   1.88942
    A8        1.88894   0.00019   0.00108  -0.00017   0.00091   1.88985
    A9        1.94584   0.00034   0.00103   0.00023   0.00126   1.94710
   A10        1.89323  -0.00001  -0.00105   0.00035  -0.00070   1.89254
   A11        1.92295  -0.00009  -0.00052  -0.00083  -0.00136   1.92159
   A12        1.92018   0.00012   0.00060   0.00125   0.00186   1.92204
    D1        3.08546  -0.00004  -0.00323   0.00086  -0.00237   3.08309
    D2        1.03562   0.00018  -0.00192   0.00100  -0.00092   1.03470
    D3       -1.07849  -0.00031  -0.00404  -0.00059  -0.00463  -1.08312
    D4       -1.03356   0.00018  -0.00168   0.00113  -0.00056  -1.03412
    D5       -3.08340   0.00039  -0.00037   0.00126   0.00089  -3.08251
    D6        1.08568  -0.00010  -0.00249  -0.00033  -0.00282   1.08286
    D7        1.02705  -0.00009  -0.00355   0.00090  -0.00265   1.02440
    D8       -1.02279   0.00012  -0.00224   0.00104  -0.00120  -1.02399
    D9       -3.13690  -0.00037  -0.00436  -0.00055  -0.00491   3.14138
         Item               Value     Threshold  Converged?
 Maximum Force            0.000613     0.000450     NO 
 RMS     Force            0.000279     0.000300     YES
 Maximum Displacement     0.006720     0.001800     NO 
 RMS     Displacement     0.002729     0.001200     NO 
 Predicted change in Energy=-4.799089D-06
 GradGradGradGradGradGradGradGradGradGradGradGradGradGradGradGradGradGrad

                          Input orientation:                          
 ---------------------------------------------------------------------
 Center     Atomic      Atomic             Coordinates (Angstroms)
 Number     Number       Type             X           Y           Z
 ---------------------------------------------------------------------
      1          6           0       -0.490692    0.412217   -0.472289
      2          6           0        0.457172   -0.466646    0.390473
      3         17           0        1.814767   -0.994619   -0.633976
      4         17           0       -0.444413   -1.908982    0.917941
      5         17           0        1.064708    0.418817    1.795722
      6         17           0       -1.926519    0.908179    0.438770
      7         17           0        0.350172    1.828317   -1.124596
      8          1           0       -0.822595   -0.196184   -1.313744
 ---------------------------------------------------------------------
                    Distance matrix (angstroms):
                    1          2          3          4          5
     1  C    0.000000
     2  C    1.554093   0.000000
     3  Cl   2.705638   1.780819   0.000000
     4  Cl   2.706076   1.780845   2.889360   0.000000
     5  Cl   2.750125   1.768578   2.909265   2.909741   0.000000
     6  Cl   1.771329   2.752174   4.332280   3.219106   3.320879
     7  Cl   1.771411   2.752043   3.217874   4.332520   3.320468
     8  H    1.090118   2.148327   2.838179   2.838506   3.689026
                    6          7          8
     6  Cl   0.000000
     7  Cl   2.911029   0.000000
     8  H    2.347248   2.347289   0.000000
 Stoichiometry    C2HCl5
 Framework group  C1[X(C2HCl5)]
 Deg. of freedom    18
 Full point group                 C1      NOp   1
 Largest Abelian subgroup         C1      NOp   1
 Largest concise Abelian subgroup C1      NOp   1
                         Standard orientation:                         
 ---------------------------------------------------------------------
 Center     Atomic      Atomic             Coordinates (Angstroms)
 Number     Number       Type             X           Y           Z
 ---------------------------------------------------------------------
      1          6           0       -0.813174   -0.000366   -0.598660
      2          6           0        0.620048   -0.000146    0.002241
      3         17           0        1.474149    1.444830   -0.592631
      4         17           0        1.475319   -1.444530   -0.592465
      5         17           0        0.583448    0.000405    1.770441
      6         17           0       -1.711486   -1.455763   -0.137724
      7         17           0       -1.711439    1.455266   -0.138061
      8          1           0       -0.711095   -0.000477   -1.683988
 ---------------------------------------------------------------------
 Rotational constants (GHZ):      1.1571178      0.9634515      0.7475391
 Standard basis: 6-31+G(d) (6D, 7F)
 There are   155 symmetry adapted cartesian basis functions of A   symmetry.
 There are   155 symmetry adapted basis functions of A   symmetry.
   155 basis functions,   348 primitive gaussians,   155 cartesian basis functions
    49 alpha electrons       49 beta electrons
       nuclear repulsion energy       752.2531083061 Hartrees.
 NAtoms=    8 NActive=    8 NUniq=    8 SFac= 1.00D+00 NAtFMM=   60 NAOKFM=F Big=F
 Integral buffers will be    131072 words long.
 Raffenetti 2 integral format.
 Two-electron integral symmetry is turned on.
 One-electron integrals computed using PRISM.
 NBasis=   155 RedAO= T EigKep=  2.66D-05  NBF=   155
 NBsUse=   155 1.00D-06 EigRej= -1.00D+00 NBFU=   155
 Initial guess from the checkpoint file:  "/srv/scratch/z5358697/gauss/Gau-807621.chk"
 B after Tr=     0.000000    0.000000    0.000000
         Rot=    0.999999    0.001493   -0.000333    0.000123 Ang=   0.18 deg.
 Requested convergence on RMS density matrix=1.00D-08 within 128 cycles.
 Requested convergence on MAX density matrix=1.00D-06.
 Requested convergence on             energy=1.00D-06.
 No special actions if energy rises.
 SCF Done:  E(RM062X) =  -2377.58575327     A.U. after   10 cycles
            NFock= 10  Conv=0.33D-08     -V/T= 2.0028
 Calling FoFJK, ICntrl=      2127 FMM=F ISym2X=0 I1Cent= 0 IOpClX= 0 NMat=1 NMatS=1 NMatT=0.
 ***** Axes restored to original set *****
 -------------------------------------------------------------------
 Center     Atomic                   Forces (Hartrees/Bohr)
 Number     Number              X              Y              Z
 -------------------------------------------------------------------
      1        6           0.000016723    0.000015184    0.000022626
      2        6           0.000000158    0.000042990   -0.000062688
      3       17          -0.000059530   -0.000065095   -0.000005423
      4       17           0.000027542    0.000071955   -0.000070516
      5       17          -0.000023197   -0.000146981   -0.000043316
      6       17           0.000060031    0.000004426    0.000042226
      7       17          -0.000018596   -0.000004303    0.000071416
      8        1          -0.000003133    0.000081823    0.000045675
 -------------------------------------------------------------------
 Cartesian Forces:  Max     0.000146981 RMS     0.000053696

 GradGradGradGradGradGradGradGradGradGradGradGradGradGradGradGradGradGrad
 Berny optimization.
 Using GEDIIS/GDIIS optimizer.
 FormGI is forming the generalized inverse of G from B-inverse, IUseBI=4.
 Internal  Forces:  Max     0.000121228 RMS     0.000049399
 Search for a local minimum.
 Step number   7 out of a maximum of   38
 All quantities printed in internal units (Hartrees-Bohrs-Radians)
 Mixed Optimization -- En-DIIS/RFO-DIIS
 Swapping is turned off.
 Update second derivatives using D2CorX and points    1    2    4    3    5
                                                      6    7
 DE= -5.41D-06 DEPred=-4.80D-06 R= 1.13D+00
 TightC=F SS=  1.41D+00  RLast= 9.79D-03 DXNew= 4.2426D-01 2.9366D-02
 Trust test= 1.13D+00 RLast= 9.79D-03 DXMaxT set to 2.52D-01
 ITU=  1  1  0 -1  1  1  0
     Eigenvalues ---    0.01000   0.06564   0.06970   0.09369   0.10944
     Eigenvalues ---    0.13575   0.19781   0.24003   0.24260   0.25169
     Eigenvalues ---    0.26096   0.26478   0.26597   0.26680   0.27757
     Eigenvalues ---    0.34306   0.36483   0.44399
 En-DIIS/RFO-DIIS IScMMF=        0 using points:     7    6    5
 RFO step:  Lambda=-1.30335880D-07.
 DidBck=F Rises=F RFO-DIIS coefs:    0.82321    0.13901    0.03778
 Iteration  1 RMS(Cart)=  0.00030667 RMS(Int)=  0.00000036
 Iteration  2 RMS(Cart)=  0.00000007 RMS(Int)=  0.00000036
 Variable       Old X    -DE/DX   Delta X   Delta X   Delta X     New X
                                 (Linear)    (Quad)   (Total)
    R1        2.93681  -0.00007   0.00002  -0.00026  -0.00025   2.93656
    R2        3.34733  -0.00004  -0.00014   0.00006  -0.00009   3.34724
    R3        3.34748  -0.00005  -0.00008  -0.00010  -0.00018   3.34730
    R4        2.06002  -0.00005  -0.00011  -0.00002  -0.00013   2.05989
    R5        3.36526  -0.00004  -0.00013  -0.00005  -0.00018   3.36508
    R6        3.36531  -0.00011  -0.00032  -0.00002  -0.00033   3.36498
    R7        3.34213  -0.00009  -0.00029   0.00002  -0.00026   3.34187
    A1        1.94679  -0.00005   0.00011  -0.00021  -0.00010   1.94669
    A2        1.94657   0.00006   0.00022  -0.00011   0.00011   1.94668
    A3        1.87402  -0.00001  -0.00002  -0.00003  -0.00005   1.87397
[...]
     2   6    -0.32   0.00   0.54     0.00   0.63   0.00     0.53   0.00   0.38
     3  17     0.03   0.04  -0.03    -0.02  -0.06   0.02    -0.02  -0.01   0.00
     4  17     0.03  -0.04  -0.03     0.02  -0.06  -0.02    -0.02   0.01   0.00
     5  17     0.02   0.00  -0.09     0.00  -0.02   0.00    -0.01   0.00  -0.04
     6  17    -0.01  -0.03   0.03     0.02   0.06  -0.03     0.02   0.02  -0.01
     7  17    -0.01   0.03   0.03    -0.02   0.06   0.03     0.02  -0.02  -0.01
     8   1     0.68   0.00  -0.21     0.00  -0.58   0.00    -0.52   0.00  -0.19
                     16                     17                     18
                      A                      A                      A
 Frequencies --   1269.1698              1303.7087              3196.5596
 Red. masses --      1.0961                 1.1924                 1.0872
 Frc consts  --      1.0403                 1.1941                 6.5453
 IR Inten    --     13.3321                 3.8649                 4.6919
  Atom  AN      X      Y      Z        X      Y      Z        X      Y      Z
     1   6     0.00   0.08   0.00     0.11   0.00   0.00     0.01   0.00  -0.08
     2   6     0.00  -0.02   0.00    -0.03   0.00   0.06     0.00   0.00   0.00
     3  17     0.00   0.00   0.00     0.00   0.00   0.00     0.00   0.00   0.00
     4  17     0.00   0.00   0.00     0.00   0.00   0.00     0.00   0.00   0.00
     5  17     0.00   0.00   0.00     0.00   0.00   0.00     0.00   0.00   0.00
     6  17     0.00   0.00  -0.01     0.00   0.00  -0.01     0.00   0.00   0.00
     7  17     0.00   0.00   0.01     0.00   0.00  -0.01     0.00   0.00   0.00
     8   1     0.00  -1.00   0.00    -0.99   0.00  -0.09    -0.08   0.00   0.99

 -------------------
 - Thermochemistry -
 -------------------
 Temperature   298.150 Kelvin.  Pressure   1.00000 Atm.
 Atom     1 has atomic number  6 and mass  12.00000
 Atom     2 has atomic number  6 and mass  12.00000
 Atom     3 has atomic number 17 and mass  34.96885
 Atom     4 has atomic number 17 and mass  34.96885
 Atom     5 has atomic number 17 and mass  34.96885
 Atom     6 has atomic number 17 and mass  34.96885
 Atom     7 has atomic number 17 and mass  34.96885
 Atom     8 has atomic number  1 and mass   1.00783
 Molecular mass:   199.85209 amu.
 Principal axes and moments of inertia in atomic units:
                           1         2         3
     Eigenvalues --  1559.686661873.203922414.24327
           X            0.99998   0.00000   0.00598
           Y            0.00000   1.00000   0.00001
           Z           -0.00598  -0.00001   0.99998
 This molecule is an asymmetric top.
 Rotational symmetry number  1.
 Warning -- assumption of classical behavior for rotation
           may cause significant error
 Rotational temperatures (Kelvin)      0.05553     0.04624     0.03588
 Rotational constants (GHZ):           1.15712     0.96345     0.74754
 Zero-point vibrational energy      77764.7 (Joules/Mol)
                                   18.58621 (Kcal/Mol)
 Warning -- explicit consideration of  10 degrees of freedom as
           vibrations may cause significant error
 Vibrational temperatures:    109.39   246.96   249.19   337.35   349.30
          (Kelvin)            411.61   484.29   484.81   604.22   863.76
                             1087.00  1167.08  1237.22  1257.54  1515.23
                             1826.05  1875.74  4599.13
 
 Zero-point correction=                           0.029619 (Hartree/Particle)
 Thermal correction to Energy=                    0.037433
 Thermal correction to Enthalpy=                  0.038377
 Thermal correction to Gibbs Free Energy=        -0.004738
 Sum of electronic and zero-point Energies=          -2377.556134
 Sum of electronic and thermal Energies=             -2377.548320
 Sum of electronic and thermal Enthalpies=           -2377.547376
 Sum of electronic and thermal Free Energies=        -2377.590491
 
                     E (Thermal)             CV                S
                      KCal/Mol        Cal/Mol-Kelvin    Cal/Mol-Kelvin
 Total                   23.489             25.690             90.742
 Electronic               0.000              0.000              0.000
 Translational            0.889              2.981             41.782
 Rotational               0.889              2.981             30.335
 Vibrational             21.712             19.728             18.626
 Vibration     1          0.599              1.965              3.991
 Vibration     2          0.626              1.877              2.417
 Vibration     3          0.627              1.875              2.401
 Vibration     4          0.654              1.788              1.844
 Vibration     5          0.659              1.775              1.782
 Vibration     6          0.684              1.700              1.497
 Vibration     7          0.717              1.602              1.228
 Vibration     8          0.718              1.602              1.227
 Vibration     9          0.783              1.427              0.892
 Vibration    10          0.958              1.031              0.449
                       Q            Log10(Q)             Ln(Q)
 Total Bot       0.151056D+03          2.179139          5.017653
 Total V=0       0.635203D+16         15.802912         36.387550
 Vib (Bot)       0.143078D-11        -11.844427        -27.272801
 Vib (Bot)    1  0.271045D+01          0.433041          0.997115
 Vib (Bot)    2  0.117344D+01          0.069460          0.159937
 Vib (Bot)    3  0.116234D+01          0.065335          0.150439
 Vib (Bot)    4  0.838365D+00         -0.076567         -0.176302
 Vib (Bot)    5  0.806630D+00         -0.093326         -0.214890
 Vib (Bot)    6  0.669872D+00         -0.174008         -0.400669
 Vib (Bot)    7  0.552828D+00         -0.257410         -0.592708
 Vib (Bot)    8  0.552114D+00         -0.257972         -0.594001
 Vib (Bot)    9  0.418133D+00         -0.378686         -0.871957
 Vib (Bot)   10  0.248637D+00         -0.604434         -1.391761
 Vib (V=0)       0.601653D+02          1.779346          4.097095
 Vib (V=0)    1  0.325618D+01          0.512709          1.180555
 Vib (V=0)    2  0.177552D+01          0.249326          0.574094
 Vib (V=0)    3  0.176532D+01          0.246824          0.568334
 Vib (V=0)    4  0.147614D+01          0.169129          0.389433
 Vib (V=0)    5  0.144903D+01          0.161076          0.370892
 Vib (V=0)    6  0.133590D+01          0.125774          0.289605
 Vib (V=0)    7  0.124540D+01          0.095308          0.219456
 Vib (V=0)    8  0.124487D+01          0.095124          0.219030
 Vib (V=0)    9  0.115179D+01          0.061375          0.141320
 Vib (V=0)   10  0.105841D+01          0.024653          0.056767
 Electronic      0.100000D+01          0.000000          0.000000
 Translational   0.111050D+09          8.045518         18.525490
 Rotational      0.950710D+06          5.978048         13.764965
 ***** Axes restored to original set *****
 -------------------------------------------------------------------
 Center     Atomic                   Forces (Hartrees/Bohr)
 Number     Number              X              Y              Z
 -------------------------------------------------------------------
      1        6           0.000016730    0.000015177    0.000022623
      2        6           0.000000147    0.000042986   -0.000062680
      3       17          -0.000059531   -0.000065091   -0.000005425
      4       17           0.000027545    0.000071960   -0.000070519
      5       17          -0.000023195   -0.000146979   -0.000043317
      6       17           0.000060033    0.000004427    0.000042226
      7       17          -0.000018597   -0.000004303    0.000071417
      8        1          -0.000003133    0.000081824    0.000045675
 -------------------------------------------------------------------
 Cartesian Forces:  Max     0.000146979 RMS     0.000053696
 FormGI is forming the generalized inverse of G from B-inverse, IUseBI=4.

 GradGradGradGradGradGradGradGradGradGradGradGradGradGradGradGradGradGrad
 Berny optimization.
 Internal  Forces:  Max     0.000121218 RMS     0.000049399
 Search for a local minimum.
 Step number   1 out of a maximum of    2
 All quantities printed in internal units (Hartrees-Bohrs-Radians)
 Second derivative matrix not updated -- analytic derivatives used.
 ITU=  0
     Eigenvalues ---    0.00960   0.05468   0.08273   0.08797   0.09437
     Eigenvalues ---    0.13862   0.18467   0.19168   0.19384   0.20455
     Eigenvalues ---    0.22855   0.27491   0.28381   0.30104   0.31906
     Eigenvalues ---    0.35708   0.36119   0.43681
 Angle between quadratic step and forces=  30.31 degrees.
 Linear search not attempted -- first point.
 Iteration  1 RMS(Cart)=  0.00030124 RMS(Int)=  0.00000006
 Iteration  2 RMS(Cart)=  0.00000007 RMS(Int)=  0.00000002
 Variable       Old X    -DE/DX   Delta X   Delta X   Delta X     New X
                                 (Linear)    (Quad)   (Total)
    R1        2.93681  -0.00007   0.00000  -0.00027  -0.00027   2.93654
    R2        3.34733  -0.00004   0.00000  -0.00009  -0.00009   3.34724
    R3        3.34748  -0.00005   0.00000  -0.00025  -0.00025   3.34723
    R4        2.06002  -0.00005   0.00000  -0.00013  -0.00013   2.05989
    R5        3.36526  -0.00004   0.00000  -0.00018  -0.00018   3.36508
    R6        3.36531  -0.00011   0.00000  -0.00021  -0.00021   3.36510
    R7        3.34213  -0.00009   0.00000  -0.00030  -0.00030   3.34183
    A1        1.94679  -0.00005   0.00000  -0.00010  -0.00010   1.94669
    A2        1.94657   0.00006   0.00000   0.00013   0.00013   1.94670
    A3        1.87402  -0.00001   0.00000  -0.00005  -0.00005   1.87397
    A4        1.92874   0.00000   0.00000   0.00000   0.00000   1.92874
    A5        1.88229   0.00001   0.00000  -0.00002  -0.00002   1.88228
    A6        1.88225  -0.00001   0.00000   0.00003   0.00003   1.88228
    A7        1.88942   0.00012   0.00000   0.00037   0.00037   1.88979
    A8        1.88985  -0.00002   0.00000  -0.00010  -0.00010   1.88975
    A9        1.94710   0.00002   0.00000   0.00009   0.00009   1.94720
   A10        1.89254  -0.00006   0.00000  -0.00024  -0.00024   1.89229
   A11        1.92159  -0.00002   0.00000   0.00017   0.00017   1.92176
   A12        1.92204  -0.00004   0.00000  -0.00029  -0.00029   1.92175
    D1        3.08309  -0.00004   0.00000  -0.00035  -0.00035   3.08274
    D2        1.03470  -0.00002   0.00000  -0.00021  -0.00021   1.03449
    D3       -1.08312   0.00003   0.00000   0.00016   0.00016  -1.08296
    D4       -1.03412  -0.00004   0.00000  -0.00033  -0.00033  -1.03445
    D5       -3.08251  -0.00003   0.00000  -0.00019  -0.00019  -3.08270
    D6        1.08286   0.00003   0.00000   0.00018   0.00018   1.08304
    D7        1.02440  -0.00002   0.00000  -0.00025  -0.00025   1.02415
    D8       -1.02399  -0.00001   0.00000  -0.00011  -0.00011  -1.02410
    D9        3.14138   0.00005   0.00000   0.00026   0.00026  -3.14155
         Item               Value     Threshold  Converged?
 Maximum Force            0.000121     0.000450     YES
 RMS     Force            0.000049     0.000300     YES
 Maximum Displacement     0.000778     0.001800     YES
 RMS     Displacement     0.000301     0.001200     YES
 Predicted change in Energy=-1.234366D-07
 Optimization completed.
    -- Stationary point found.
                           ----------------------------
                           !   Optimized Parameters   !
                           ! (Angstroms and Degrees)  !
 --------------------------                            --------------------------
 ! Name  Definition              Value          Derivative Info.                !
 --------------------------------------------------------------------------------
 ! R1    R(1,2)                  1.5541         -DE/DX =   -0.0001              !
 ! R2    R(1,6)                  1.7713         -DE/DX =    0.0                 !
 ! R3    R(1,7)                  1.7714         -DE/DX =   -0.0001              !
 ! R4    R(1,8)                  1.0901         -DE/DX =   -0.0001              !
 ! R5    R(2,3)                  1.7808         -DE/DX =    0.0                 !
 ! R6    R(2,4)                  1.7808         -DE/DX =   -0.0001              !
 ! R7    R(2,5)                  1.7686         -DE/DX =   -0.0001              !
 ! A1    A(2,1,6)              111.5429         -DE/DX =   -0.0001              !
 ! A2    A(2,1,7)              111.5305         -DE/DX =    0.0001              !
 ! A3    A(2,1,8)              107.3735         -DE/DX =    0.0                 !
 ! A4    A(6,1,7)              110.5084         -DE/DX =    0.0                 !
 ! A5    A(6,1,8)              107.8474         -DE/DX =    0.0                 !
 ! A6    A(7,1,8)              107.845          -DE/DX =    0.0                 !
 ! A7    A(1,2,3)              108.256          -DE/DX =    0.0001              !
 ! A8    A(1,2,4)              108.2806         -DE/DX =    0.0                 !
 ! A9    A(1,2,5)              111.5608         -DE/DX =    0.0                 !
 ! A10   A(3,2,4)              108.4343         -DE/DX =   -0.0001              !
 ! A11   A(3,2,5)              110.0991         -DE/DX =    0.0                 !
 ! A12   A(4,2,5)              110.1248         -DE/DX =    0.0                 !
 ! D1    D(6,1,2,3)            176.648          -DE/DX =    0.0                 !
 ! D2    D(6,1,2,4)             59.2839         -DE/DX =    0.0                 !
 ! D3    D(6,1,2,5)            -62.0582         -DE/DX =    0.0                 !
 ! D4    D(7,1,2,3)            -59.2506         -DE/DX =    0.0                 !
 ! D5    D(7,1,2,4)           -176.6147         -DE/DX =    0.0                 !
 ! D6    D(7,1,2,5)             62.0432         -DE/DX =    0.0                 !
 ! D7    D(8,1,2,3)             58.6938         -DE/DX =    0.0                 !
 ! D8    D(8,1,2,4)            -58.6704         -DE/DX =    0.0                 !
 ! D9    D(8,1,2,5)           -180.0124         -DE/DX =    0.0                 !
 --------------------------------------------------------------------------------
 GradGradGradGradGradGradGradGradGradGradGradGradGradGradGradGradGradGrad

 1\1\GINC-KATANA1\Freq\RM062X\6-31+G(d)\C2H1Cl5\Z5358697\14-Mar-2025\0\
 \#N Geom=AllCheck Guess=TCheck SCRF=Check GenChk RM062X/6-31+G(d) Freq
 \\1,1,1,2,2-pentachloroethane\\0,1\C,-0.4906924703,0.4122171796,-0.472
 2892968\C,0.4571717944,-0.4666460934,0.3904729569\Cl,1.8147673397,-0.9
 946186069,-0.6339762518\Cl,-0.4444126802,-1.908982067,0.9179410268\Cl,
 1.0647080226,0.4188174127,1.7957216939\Cl,-1.9265192798,0.9081792021,0
 .4387697744\Cl,0.3501719788,1.8283171072,-1.124595906\H,-0.8225947053,
 -0.1961841342,-1.3137439974\\Version=ES64L-G09RevD.01\State=1-A\HF=-23
 77.5857533\RMSD=2.287e-09\RMSF=5.370e-05\ZeroPoint=0.029619\Thermal=0.
 0374328\Dipole=-0.1227006,-0.2241656,-0.3101357\DipoleDeriv=0.7875339,
 0.0318483,-0.3876651,-0.0152716,0.5425221,-0.3302744,-0.4155017,-0.261
 5962,0.3074497,0.8553531,0.1872442,-0.1738995,0.2454093,0.9465984,0.29
 55566,-0.1395814,0.2107325,0.9714419,-0.4514546,0.1243597,0.262588,0.1
 413911,-0.1742956,-0.1237776,0.2149202,-0.0756047,-0.3315869,-0.276179
 4,-0.202243,0.059013,-0.2661436,-0.4999716,0.1224212,0.0790899,0.14239
 08,-0.1810782,-0.1593021,-0.0952062,-0.1330832,-0.0804782,-0.2663917,-
 0.2112793,-0.1243647,-0.2326491,-0.4244033,-0.4978313,0.0752858,0.1932
 926,0.1412261,-0.1376211,-0.0181147,0.2138132,0.0198695,-0.1785844,-0.
 2377275,-0.1173803,0.1306838,-0.1702072,-0.3838935,0.2426633,0.1178714
 ,0.1856503,-0.1924521,-0.0203921,-0.0039085,0.0490703,0.0040741,-0.026
 947,0.022805,0.0537531,0.011207,0.0292132\Polar=84.9871259,1.9066056,8
 3.5031287,-8.9974653,-2.1969516,77.5413244\PG=C01 [X(C2H1Cl5)]\NImag=0
 \\0.34395627,0.02457761,0.41084020,0.06667927,0.09635650,0.46186502,-0
 .08997119,0.03527229,-0.04537930,0.31829419,0.03742436,-0.08639612,0.0
 2986161,-0.01501232,0.31005987,-0.04410754,0.02672684,-0.09303848,0.02
 591629,-0.01265508,0.32474841,-0.02427967,0.01048423,0.01643447,-0.097
 53554,0.03015720,0.03522884,0.14686198,0.01584345,-0.00527723,-0.00907
 268,0.02479874,-0.04286756,-0.01231852,-0.04165789,0.06084003,0.000994
 21,0.00059773,0.00089827,0.04554485,-0.02001931,-0.06163744,-0.0785087
 3,0.02776263,0.09580965,0.00130139,0.00195080,-0.00040583,-0.05440212,
 -0.04361491,0.01661373,-0.02622972,-0.01611430,0.02203778,0.08683674,-
 0.01369457,-0.02484275,0.01149524,-0.03138094,-0.10254228,0.03075294,-
 0.00938960,0.00184273,0.00762956,0.06922727,0.16031097,0.00898305,0.01
 678267,-0.00508167,0.01035696,0.02842891,-0.04506048,0.02036961,0.0115
 7489,-0.00943270,-0.02906827,-0.04507535,0.05618453,-0.00745512,-0.011
 25818,-0.01894529,-0.04830978,-0.01349132,-0.03187632,0.00462959,0.008
 30521,0.01374296,-0.00785974,-0.01927555,-0.01008070,0.06243371,0.0009
 0043,0.00270964,0.00231469,-0.02145142,-0.05713501,-0.04611226,0.00456
 562,-0.00632745,-0.01976754,-0.02024203,-0.02546834,-0.01580838,0.0326
 6255,0.08478630,-0.01178481,-0.01538233,-0.02520670,-0.03655889,-0.034
 53001,-0.10541430,0.00727343,-0.01934711,-0.02875066,-0.00638501,-0.00
 937326,0.00291830,0.05242734,0.07416557,0.15965701,-0.09878303,0.03791
 332,0.04615110,-0.02481755,0.01050169,0.01535052,-0.00271501,0.0022683
 6,-0.00157041,-0.00060444,0.00292233,-0.00069495,-0.00231541,0.0010403
 3,-0.00078317,0.16143341,0.02461820,-0.04694047,-0.01968590,0.01278749
 ,-0.00591825,-0.00970421,0.00277342,-0.00104743,0.00099995,0.00662874,
 -0.00716503,0.00059645,-0.00009181,0.00086545,0.00060563,-0.04781423,0
 .05779448,0.04467072,-0.02859847,-0.06971330,-0.00103819,0.00042352,0.
 00175402,-0.00110557,0.00079501,0.00105430,-0.00202973,0.00217638,0.00
 104042,-0.00352331,0.00125567,0.00058376,-0.08265973,0.02348747,0.0835
 7850,-0.05567501,-0.05094787,0.01166082,0.00229207,0.00253068,0.000133
 39,-0.00064832,0.00646201,-0.00216720,0.00066401,0.00163219,-0.0008777
 2,0.00064637,0.00162783,-0.00173103,-0.02523183,-0.01538274,0.01994961
 ,0.08212499,-0.03832956,-0.11529760,0.02154676,-0.01249796,-0.02379789
 ,0.00904023,0.00309226,-0.00723354,0.00245268,0.00175089,-0.00226767,0
 .00291795,0.00062821,0.00090754,0.00055742,-0.01014613,0.00362827,0.00
 769547,0.06805252,0.16445476,0.01273304,0.03145704,-0.04441962,0.00901
 153,0.01748957,-0.00748722,-0.00061336,0.00034145,0.00109060,-0.000979
 09,0.00221873,-0.00110133,-0.00024166,0.00301133,-0.00243492,0.0198839
 5,0.01126407,-0.00948368,-0.03552121,-0.05906813,0.05626616,-0.0690936
 5,-0.04799219,-0.07619524,-0.00555009,-0.00849538,-0.01725891,-0.00008
 331,0.00009443,-0.00007345,0.00029387,-0.00004113,0.00101201,-0.001769
 62,0.00089670,-0.00245786,-0.00696614,0.01648094,0.02573621,-0.0041722
 9,-0.01255022,-0.00427321,0.08734124,-0.05133992,-0.13479567,-0.132816
 23,0.00748412,0.00859725,0.01427007,-0.00002524,0.00007045,0.00034431,
 0.00041354,0.00013237,0.00058285,0.00252090,-0.00033814,0.00330407,0.0
 0331435,-0.00121702,-0.00723505,-0.01397461,-0.02039387,-0.00671406,0.
 05160685,0.14794462,-0.07816794,-0.12793997,-0.22530352,-0.00785326,-0
 .00899923,-0.01386451,0.00092131,0.00026433,0.00096798,0.00021643,0.00
 017575,0.00053293,-0.00150302,0.00094093,-0.00135249,0.00432268,-0.007
 56345,-0.00881401,0.00855334,0.01485762,0.00757002,0.07351046,0.128264
 03,0.24026359\\-0.00001673,-0.00001518,-0.00002262,-0.00000015,-0.0000
 4299,0.00006268,0.00005953,0.00006509,0.00000543,-0.00002755,-0.000071
 96,0.00007052,0.00002319,0.00014698,0.00004332,-0.00006003,-0.00000443
 ,-0.00004223,0.00001860,0.00000430,-0.00007142,0.00000313,-0.00008182,
 -0.00004568\\\@


 THOSE WITH THE GOLD MAKE THE RULES.

             -- PETER'S GOLDEN RULE
 Job cpu time:       0 days  0 hours  2 minutes 10.7 seconds.
 File lengths (MBytes):  RWF=    133 Int=      0 D2E=      0 Chk=      4 Scr=      2
 Normal termination of Gaussian 09 at Fri Mar 14 15:44:09 2025.
