 Entering Gaussian System, Link 0=g09
 Initial command:
 /apps/z_install_tree/linux-rocky8-ivybridge/gcc-12.2.0/gaussian-09-D.01-wczn3gur5lpur3omlkzwa2l5ecyxp5ef/g09/l1.exe "/srv/scratch/z5358697/gauss/Gau-2619544.inp" -scrdir="/srv/scratch/z5358697/gauss/"
 Entering Link 1 = /apps/z_install_tree/linux-rocky8-ivybridge/gcc-12.2.0/gaussian-09-D.01-wczn3gur5lpur3omlkzwa2l5ecyxp5ef/g09/l1.exe PID=   2619546.
  
 Copyright (c) 1988,1990,1992,1993,1995,1998,2003,2009,2013,
            Gaussian, Inc.  All Rights Reserved.
  
 This is part of the Gaussian(R) 09 program.  It is based on
 the Gaussian(R) 03 system (copyright 2003, Gaussian, Inc.),
 the Gaussian(R) 98 system (copyright 1998, Gaussian, Inc.),
 the Gaussian(R) 94 system (copyright 1995, Gaussian, Inc.),
 the Gaussian 92(TM) system (copyright 1992, Gaussian, Inc.),
 the Gaussian 90(TM) system (copyright 1990, Gaussian, Inc.),
 the Gaussian 88(TM) system (copyright 1988, Gaussian, Inc.),
 the Gaussian 86(TM) system (copyright 1986, Carnegie Mellon
 University), and the Gaussian 82(TM) system (copyright 1983,
 Carnegie Mellon University). Gaussian is a federally registered
 trademark of Gaussian, Inc.
  
 This software contains proprietary and confidential information,
 including trade secrets, belonging to Gaussian, Inc.
  
 This software is provided under written license and may be
 used, copied, transmitted, or stored only in accord with that
 written license.
  
 The following legend is applicable only to US Government
 contracts under FAR:
  
                    RESTRICTED RIGHTS LEGEND
  
 Use, reproduction and disclosure by the US Government is
 subject to restrictions as set forth in subparagraphs (a)
 and (c) of the Commercial Computer Software - Restricted
 Rights clause in FAR 52.227-19.
  
 Gaussian, Inc.
 340 Quinnipiac St., Bldg. 40, Wallingford CT 06492
  
  
 ---------------------------------------------------------------
 Warning -- This program may not be used in any manner that
 competes with the business of Gaussian, Inc. or will provide
 assistance to any competitor of Gaussian, Inc.  The licensee
 of this program is prohibited from giving any competitor of
 Gaussian, Inc. access to this program.  By using this program,
 the user acknowledges that Gaussian, Inc. is engaged in the
 business of creating and licensing software in the field of
 computational chemistry and represents and warrants to the
 licensee that it is not a competitor of Gaussian, Inc. and that
 it will not use this program in any manner prohibited above.
 ---------------------------------------------------------------
  

 Cite this work as:
 Gaussian 09, Revision D.01,
 M. J. Frisch, G. W. Trucks, H. B. Schlegel, G. E. Scuseria, 
 M. A. Robb, J. R. Cheeseman, G. Scalmani, V. Barone, B. Mennucci, 
 G. A. Petersson, H. Nakatsuji, M. Caricato, X. Li, H. P. Hratchian, 
 A. F. Izmaylov, J. Bloino, G. Zheng, J. L. Sonnenberg, M. Hada, 
 M. Ehara, K. Toyota, R. Fukuda, J. Hasegawa, M. Ishida, T. Nakajima, 
 Y. Honda, O. Kitao, H. Nakai, T. Vreven, J. A. Montgomery, Jr., 
 J. E. Peralta, F. Ogliaro, M. Bearpark, J. J. Heyd, E. Brothers, 
 K. N. Kudin, V. N. Staroverov, T. Keith, R. Kobayashi, J. Normand, 
 K. Raghavachari, A. Rendell, J. C. Burant, S. S. Iyengar, J. Tomasi, 
 M. Cossi, N. Rega, J. M. Millam, M. Klene, J. E. Knox, J. B. Cross, 
 V. Bakken, C. Adamo, J. Jaramillo, R. Gomperts, R. E. Stratmann, 
 O. Yazyev, A. J. Austin, R. Cammi, C. Pomelli, J. W. Ochterski, 
 R. L. Martin, K. Morokuma, V. G. Zakrzewski, G. A. Voth, 
 P. Salvador, J. J. Dannenberg, S. Dapprich, A. D. Daniels, 
 O. Farkas, J. B. Foresman, J. V. Ortiz, J. Cioslowski, 
 and D. J. Fox, Gaussian, Inc., Wallingford CT, 2013.
 
 ******************************************
 Gaussian 09:  ES64L-G09RevD.01 24-Apr-2013
                21-Mar-2025 
 ******************************************
 ---------------------------------
 #m062X/6-31+G(d) OPT Freq=noraman
 ---------------------------------
 1/14=-1,18=20,19=15,26=3,38=1/1,3;
 2/9=110,12=2,17=6,18=5,40=1/2;
 3/5=1,6=6,7=11,11=2,16=1,25=1,30=1,71=1,74=-55/1,2,3;
 4//1;
 5/5=2,38=5/2;
 6/7=2,8=2,9=2,10=2,28=1/1;
 7//1,2,3,16;
 1/14=-1,18=20,19=15,26=3/3(2);
 2/9=110/2;
 99//99;
 2/9=110/2;
 3/5=1,6=6,7=11,11=2,16=1,25=1,30=1,71=1,74=-55/1,2,3;
 4/5=5,16=3,69=1/1;
 5/5=2,38=5/2;
 7//1,2,3,16;
 1/14=-1,18=20,19=15,26=3/3(-5);
 2/9=110/2;
 6/7=2,8=2,9=2,10=2,19=2,28=1/1;
 99/9=1/99;
 ---------------------
 3-hydroxybenzonitrile
 ---------------------
 Symbolic Z-matrix:
 Charge =  0 Multiplicity = 1
 C                     1.8851   -1.0363   -0.1124 
 C                     2.921    -1.6309    0.6081 
 C                     2.8783   -1.652     2.0022 
 C                     1.7997   -1.0786    2.6757 
 C                     0.7638   -0.4841    1.9551 
 C                     0.8066   -0.463     0.561 
 O                    -0.2877    0.0773    2.612 
 C                     3.9398   -2.2612    2.7397 
 N                     4.8029   -2.7566    3.3395 
 H                     1.9181   -1.0197   -1.1979 
 H                     3.7548   -2.0739    0.0686 
 H                     1.7585   -1.0893    3.7627 
 H                     0.0031   -0.0001   -0.0054 
 H                    -0.922     0.4472    1.9775 
 

 GradGradGradGradGradGradGradGradGradGradGradGradGradGradGradGradGradGrad
 Berny optimization.
 Initialization pass.
                           ----------------------------
                           !    Initial Parameters    !
                           ! (Angstroms and Degrees)  !
 --------------------------                            --------------------------
 ! Name  Definition              Value          Derivative Info.                !
 --------------------------------------------------------------------------------
 ! R1    R(1,2)                  1.3949         estimate D2E/DX2                !
 ! R2    R(1,6)                  1.3947         estimate D2E/DX2                !
 ! R3    R(1,10)                 1.0861         estimate D2E/DX2                !
 ! R4    R(2,3)                  1.3949         estimate D2E/DX2                !
 ! R5    R(2,11)                 1.0874         estimate D2E/DX2                !
 ! R6    R(3,4)                  1.3949         estimate D2E/DX2                !
 ! R7    R(3,8)                  1.4289         estimate D2E/DX2                !
 ! R8    R(4,5)                  1.3949         estimate D2E/DX2                !
 ! R9    R(4,12)                 1.0878         estimate D2E/DX2                !
 ! R10   R(5,6)                  1.3949         estimate D2E/DX2                !
 ! R11   R(5,7)                  1.361          estimate D2E/DX2                !
 ! R12   R(6,13)                 1.0866         estimate D2E/DX2                !
 ! R13   R(7,14)                 0.9704         estimate D2E/DX2                !
 ! R14   R(8,9)                  1.1619         estimate D2E/DX2                !
 ! A1    A(2,1,6)              120.0052         estimate D2E/DX2                !
 ! A2    A(2,1,10)             120.0116         estimate D2E/DX2                !
 ! A3    A(6,1,10)             119.9832         estimate D2E/DX2                !
 ! A4    A(1,2,3)              119.9958         estimate D2E/DX2                !
 ! A5    A(1,2,11)             119.1311         estimate D2E/DX2                !
 ! A6    A(3,2,11)             120.8731         estimate D2E/DX2                !
 ! A7    A(2,3,4)              119.9999         estimate D2E/DX2                !
 ! A8    A(2,3,8)              119.969          estimate D2E/DX2                !
 ! A9    A(4,3,8)              120.0311         estimate D2E/DX2                !
 ! A10   A(3,4,5)              119.9999         estimate D2E/DX2                !
 ! A11   A(3,4,12)             120.5107         estimate D2E/DX2                !
 ! A12   A(5,4,12)             119.4893         estimate D2E/DX2                !
 ! A13   A(4,5,6)              119.9967         estimate D2E/DX2                !
 ! A14   A(4,5,7)              120.0138         estimate D2E/DX2                !
 ! A15   A(6,5,7)              119.9895         estimate D2E/DX2                !
 ! A16   A(1,6,5)              120.0026         estimate D2E/DX2                !
 ! A17   A(1,6,13)             119.6853         estimate D2E/DX2                !
 ! A18   A(5,6,13)             120.3121         estimate D2E/DX2                !
 ! A19   A(5,7,14)             110.2816         estimate D2E/DX2                !
 ! A20   L(3,8,9,12,-1)        179.9947         estimate D2E/DX2                !
 ! A21   L(3,8,9,12,-2)        179.9969         estimate D2E/DX2                !
 ! D1    D(6,1,2,3)             -0.0063         estimate D2E/DX2                !
 ! D2    D(6,1,2,11)           179.9798         estimate D2E/DX2                !
 ! D3    D(10,1,2,3)           179.9982         estimate D2E/DX2                !
 ! D4    D(10,1,2,11)           -0.0157         estimate D2E/DX2                !
 ! D5    D(2,1,6,5)              0.004          estimate D2E/DX2                !
 ! D6    D(2,1,6,13)           179.9228         estimate D2E/DX2                !
 ! D7    D(10,1,6,5)           179.9995         estimate D2E/DX2                !
 ! D8    D(10,1,6,13)           -0.0817         estimate D2E/DX2                !
 ! D9    D(1,2,3,4)              0.0043         estimate D2E/DX2                !
 ! D10   D(1,2,3,8)           -179.9972         estimate D2E/DX2                !
 ! D11   D(11,2,3,4)          -179.9815         estimate D2E/DX2                !
 ! D12   D(11,2,3,8)             0.0169         estimate D2E/DX2                !
 ! D13   D(2,3,4,5)              0.0            estimate D2E/DX2                !
 ! D14   D(2,3,4,12)          -179.9256         estimate D2E/DX2                !
 ! D15   D(8,3,4,5)           -179.9985         estimate D2E/DX2                !
 ! D16   D(8,3,4,12)             0.0759         estimate D2E/DX2                !
 ! D17   D(3,4,5,6)             -0.0023         estimate D2E/DX2                !
 ! D18   D(3,4,5,7)           -179.8971         estimate D2E/DX2                !
 ! D19   D(12,4,5,6)           179.9241         estimate D2E/DX2                !
 ! D20   D(12,4,5,7)             0.0292         estimate D2E/DX2                !
 ! D21   D(4,5,6,1)              0.0003         estimate D2E/DX2                !
 ! D22   D(4,5,6,13)          -179.918          estimate D2E/DX2                !
 ! D23   D(7,5,6,1)            179.8952         estimate D2E/DX2                !
 ! D24   D(7,5,6,13)            -0.0231         estimate D2E/DX2                !
 ! D25   D(4,5,7,14)           179.9987         estimate D2E/DX2                !
 ! D26   D(6,5,7,14)             0.1039         estimate D2E/DX2                !
 --------------------------------------------------------------------------------
 Trust Radius=3.00D-01 FncErr=1.00D-07 GrdErr=1.00D-06
 Number of steps in this run=     71 maximum allowed number of steps=    100.
 GradGradGradGradGradGradGradGradGradGradGradGradGradGradGradGradGradGrad

                          Input orientation:                          
 ---------------------------------------------------------------------
 Center     Atomic      Atomic             Coordinates (Angstroms)
 Number     Number       Type             X           Y           Z
 ---------------------------------------------------------------------
      1          6           0        1.885100   -1.036300   -0.112400
      2          6           0        2.921000   -1.630900    0.608100
      3          6           0        2.878300   -1.652000    2.002200
      4          6           0        1.799700   -1.078600    2.675700
      5          6           0        0.763800   -0.484100    1.955100
      6          6           0        0.806600   -0.463000    0.561000
      7          8           0       -0.287700    0.077300    2.612000
      8          6           0        3.939800   -2.261200    2.739700
      9          7           0        4.802900   -2.756600    3.339500
     10          1           0        1.918100   -1.019700   -1.197900
     11          1           0        3.754800   -2.073900    0.068600
     12          1           0        1.758500   -1.089300    3.762700
     13          1           0        0.003100   -0.000100   -0.005400
     14          1           0       -0.922000    0.447200    1.977500
 ---------------------------------------------------------------------
                    Distance matrix (angstroms):
                    1          2          3          4          5
     1  C    0.000000
     2  C    1.394904   0.000000
     3  C    2.416002   1.394913   0.000000
     4  C    2.789728   2.416054   1.394908   0.000000
     5  C    2.415946   2.789816   2.416054   1.394913   0.000000
     6  C    1.394741   2.415967   2.789753   2.416023   1.394916
     7  O    3.658349   4.150821   3.658673   2.386923   1.361007
     8  C    3.722452   2.445189   1.428920   2.445949   3.722990
     9  N    4.836176   3.502755   2.590868   3.503644   4.836853
    10  H    1.086128   2.154300   3.400357   3.875857   3.400101
    11  H    2.145962   1.087443   2.164500   3.407346   3.877167
    12  H    3.877530   3.405325   2.161005   1.087833   2.150143
    13  H    2.151066   3.398534   3.876339   3.402827   2.157888
    14  H    3.801087   4.578472   4.341605   3.197374   1.926069
                    6          7          8          9         10
     6  C    0.000000
     7  O    2.386633   0.000000
     8  C    4.218673   4.832871   0.000000
     9  N    5.380620   5.871495   1.161948   0.000000
    10  H    2.153852   4.536992   4.597095   5.650389   0.000000
    11  H    3.395488   5.238163   2.684042   3.501911   2.467555
    12  H    3.398418   2.621450   2.679169   3.496764   4.963655
    13  H    1.086599   2.634642   5.305257   6.467204   2.475655
    14  H    2.413088   0.970439   5.617248   6.700288   4.505677
                   11         12         13         14
    11  H    0.000000
    12  H    4.312891   0.000000
    13  H    4.287351   4.297251   0.000000
    14  H    5.645556   3.568312   2.233334   0.000000
 Stoichiometry    C7H5NO
 Framework group  C1[X(C7H5NO)]
 Deg. of freedom    36
 Full point group                 C1      NOp   1
 Largest Abelian subgroup         C1      NOp   1
 Largest concise Abelian subgroup C1      NOp   1
                         Standard orientation:                         
 ---------------------------------------------------------------------
 Center     Atomic      Atomic             Coordinates (Angstroms)
 Number     Number       Type             X           Y           Z
 ---------------------------------------------------------------------
      1          6           0       -0.703779    1.791368    0.000143
      2          6           0        0.633370    1.394141    0.000255
      3          6           0        0.957839    0.037489   -0.000093
      4          6           0       -0.054820   -0.921828   -0.000644
      5          6           0       -1.391947   -0.524494   -0.000846
      6          6           0       -1.716331    0.832181   -0.000449
      7          8           0       -2.380223   -1.460255    0.000732
      8          6           0        2.327785   -0.368785    0.000082
      9          7           0        3.441747   -0.699257    0.000173
     10          1           0       -0.956713    2.847635    0.000444
     11          1           0        1.411330    2.153950    0.000385
     12          1           0        0.188774   -1.982037    0.000299
     13          1           0       -2.756196    1.147422    0.000738
     14          1           0       -3.250345   -1.030558    0.000380
 ---------------------------------------------------------------------
 Rotational constants (GHZ):      3.4765877      1.1948937      0.8892582
 Standard basis: 6-31+G(d) (6D, 7F)
 There are   181 symmetry adapted cartesian basis functions of A   symmetry.
 There are   181 symmetry adapted basis functions of A   symmetry.
   181 basis functions,   308 primitive gaussians,   181 cartesian basis functions
    31 alpha electrons       31 beta electrons
       nuclear repulsion energy       376.7536661317 Hartrees.
 NAtoms=   14 NActive=   14 NUniq=   14 SFac= 1.00D+00 NAtFMM=   60 NAOKFM=F Big=F
 Integral buffers will be    131072 words long.
 Raffenetti 2 integral format.
 Two-electron integral symmetry is turned on.
 One-electron integrals computed using PRISM.
 NBasis=   181 RedAO= T EigKep=  3.60D-06  NBF=   181
 NBsUse=   181 1.00D-06 EigRej= -1.00D+00 NBFU=   181
 ExpMin= 4.38D-02 ExpMax= 5.48D+03 ExpMxC= 8.25D+02 IAcc=2 IRadAn=         4 AccDes= 0.00D+00
 Harris functional with IExCor= 1009 and IRadAn=       4 diagonalized for initial guess.
 HarFok:  IExCor= 1009 AccDes= 0.00D+00 IRadAn=         4 IDoV= 1 UseB2=F ITyADJ=14
 ICtDFT=  3500011 ScaDFX=  1.000000  1.000000  1.000000  1.000000
 FoFCou: FMM=F IPFlag=           0 FMFlag=      100000 FMFlg1=           0
         NFxFlg=           0 DoJE=T BraDBF=F KetDBF=T FulRan=T
         wScrn=  0.000000 ICntrl=     500 IOpCl=  0 I1Cent=   200000004 NGrid=           0
         NMat0=    1 NMatS0=      1 NMatT0=    0 NMatD0=    1 NMtDS0=    0 NMtDT0=    0
 Petite list used in FoFCou.
 Requested convergence on RMS density matrix=1.00D-08 within 128 cycles.
 Requested convergence on MAX density matrix=1.00D-06.
 Requested convergence on             energy=1.00D-06.
 No special actions if energy rises.
 SCF Done:  E(RM062X) =  -399.557689782     A.U. after   14 cycles
            NFock= 14  Conv=0.72D-08     -V/T= 2.0086

 **********************************************************************

            Population analysis using the SCF density.

 **********************************************************************

 Orbital symmetries:
       Occupied  (A) (A) (A) (A) (A) (A) (A) (A) (A) (A) (A) (A)
                 (A) (A) (A) (A) (A) (A) (A) (A) (A) (A) (A) (A)
                 (A) (A) (A) (A) (A) (A) (A)
       Virtual   (A) (A) (A) (A) (A) (A) (A) (A) (A) (A) (A) (A)
                 (A) (A) (A) (A) (A) (A) (A) (A) (A) (A) (A) (A)
                 (A) (A) (A) (A) (A) (A) (A) (A) (A) (A) (A) (A)
                 (A) (A) (A) (A) (A) (A) (A) (A) (A) (A) (A) (A)
                 (A) (A) (A) (A) (A) (A) (A) (A) (A) (A) (A) (A)
                 (A) (A) (A) (A) (A) (A) (A) (A) (A) (A) (A) (A)
                 (A) (A) (A) (A) (A) (A) (A) (A) (A) (A) (A) (A)
                 (A) (A) (A) (A) (A) (A) (A) (A) (A) (A) (A) (A)
                 (A) (A) (A) (A) (A) (A) (A) (A) (A) (A) (A) (A)
                 (A) (A) (A) (A) (A) (A) (A) (A) (A) (A) (A) (A)
                 (A) (A) (A) (A) (A) (A) (A) (A) (A) (A) (A) (A)
                 (A) (A) (A) (A) (A) (A) (A) (A) (A) (A) (A) (A)
                 (A) (A) (A) (A) (A) (A)
 The electronic state is 1-A.
 Alpha  occ. eigenvalues --  -19.70089 -14.77804 -10.64709 -10.61372 -10.59947
 Alpha  occ. eigenvalues --  -10.58784 -10.58674 -10.58598 -10.58374  -1.21247
 Alpha  occ. eigenvalues --   -1.02536  -0.99006  -0.89248  -0.87092  -0.76137
 Alpha  occ. eigenvalues --   -0.72350  -0.68141  -0.60544  -0.58509  -0.56973
 Alpha  occ. eigenvalues --   -0.52937  -0.52063  -0.49624  -0.46671  -0.46588
 Alpha  occ. eigenvalues --   -0.44672  -0.43504  -0.41041  -0.40545  -0.33268
 Alpha  occ. eigenvalues --   -0.30718
 Alpha virt. eigenvalues --   -0.03147  -0.00314   0.00491   0.01550   0.02586
 Alpha virt. eigenvalues --    0.04155   0.04802   0.04936   0.06453   0.06900
 Alpha virt. eigenvalues --    0.07615   0.08000   0.08374   0.08833   0.10102
 Alpha virt. eigenvalues --    0.10838   0.12411   0.13080   0.13288   0.14371
 Alpha virt. eigenvalues --    0.15385   0.15455   0.15866   0.15888   0.17175
 Alpha virt. eigenvalues --    0.17761   0.19576   0.20730   0.21511   0.22389
 Alpha virt. eigenvalues --    0.22499   0.22902   0.23588   0.24968   0.26030
 Alpha virt. eigenvalues --    0.26749   0.27015   0.27140   0.28547   0.29368
 Alpha virt. eigenvalues --    0.29724   0.30634   0.31536   0.32203   0.33058
 Alpha virt. eigenvalues --    0.33696   0.35026   0.37353   0.37955   0.40910
 Alpha virt. eigenvalues --    0.42702   0.46616   0.58788   0.63502   0.68619
 Alpha virt. eigenvalues --    0.68918   0.69111   0.72442   0.74163   0.76387
 Alpha virt. eigenvalues --    0.76425   0.76764   0.77429   0.80549   0.81792
 Alpha virt. eigenvalues --    0.82578   0.84090   0.86188   0.90625   0.91756
 Alpha virt. eigenvalues --    0.94111   0.96016   0.97885   0.99557   1.03866
 Alpha virt. eigenvalues --    1.05165   1.06516   1.07047   1.10163   1.10411
 Alpha virt. eigenvalues --    1.13068   1.13677   1.19493   1.21765   1.22520
 Alpha virt. eigenvalues --    1.25194   1.25935   1.28561   1.29448   1.30864
 Alpha virt. eigenvalues --    1.36977   1.37181   1.40455   1.41672   1.45443
 Alpha virt. eigenvalues --    1.47103   1.50221   1.50506   1.50559   1.57431
 Alpha virt. eigenvalues --    1.60032   1.68097   1.76227   1.77488   1.81984
 Alpha virt. eigenvalues --    1.84279   1.84771   1.92248   1.96002   1.97331
 Alpha virt. eigenvalues --    1.98565   2.00191   2.00955   2.02120   2.03495
 Alpha virt. eigenvalues --    2.11313   2.14435   2.15776   2.16857   2.22848
 Alpha virt. eigenvalues --    2.24560   2.29718   2.30648   2.31622   2.50826
 Alpha virt. eigenvalues --    2.51341   2.53457   2.58674   2.62216   2.64632
 Alpha virt. eigenvalues --    2.71479   2.74558   2.78658   2.80665   2.83831
 Alpha virt. eigenvalues --    2.98569   3.06108   3.10547   3.19809   3.28228
 Alpha virt. eigenvalues --    3.46728   4.15968   4.24875   4.26687   4.30194
 Alpha virt. eigenvalues --    4.31767   4.39373   4.49655   4.62150   4.87810
          Condensed to atoms (all electrons):
               1          2          3          4          5          6
     1  C    5.736924   0.303395   0.474834  -0.716000   0.630759   0.100131
     2  C    0.303395   6.839747  -0.125576  -0.730383  -0.312118  -0.188119
     3  C    0.474834  -0.125576   7.501043  -1.002721   1.076412  -0.397560
     4  C   -0.716000  -0.730383  -1.002721   9.787891  -2.163151  -0.539118
     5  C    0.630759  -0.312118   1.076412  -2.163151   7.799407   0.037579
     6  C    0.100131  -0.188119  -0.397560  -0.539118   0.037579   6.334255
     7  O    0.032618   0.015099   0.003177  -0.097302   0.032895  -0.003922
     8  C   -0.551466   0.303267  -2.523813   1.175753  -1.081913   0.244846
     9  N    0.022656  -0.019788   0.333929  -0.085099   0.024523  -0.010709
    10  H    0.270106   0.004765  -0.017409  -0.000475  -0.001499   0.057845
    11  H    0.004064   0.198381   0.063681   0.039275  -0.003946   0.005998
    12  H   -0.010101   0.031997   0.038808   0.240632  -0.015090   0.008982
    13  H    0.048522   0.006938   0.013861  -0.034870  -0.038211   0.304499
    14  H   -0.006762  -0.000233  -0.002109   0.151854  -0.066186  -0.080990
               7          8          9         10         11         12
     1  C    0.032618  -0.551466   0.022656   0.270106   0.004064  -0.010101
     2  C    0.015099   0.303267  -0.019788   0.004765   0.198381   0.031997
     3  C    0.003177  -2.523813   0.333929  -0.017409   0.063681   0.038808
     4  C   -0.097302   1.175753  -0.085099  -0.000475   0.039275   0.240632
     5  C    0.032895  -1.081913   0.024523  -0.001499  -0.003946  -0.015090
     6  C   -0.003922   0.244846  -0.010709   0.057845   0.005998   0.008982
     7  O    8.535075  -0.006939  -0.000098  -0.000533   0.000087  -0.002236
     8  C   -0.006939   8.777390   0.008061  -0.001957  -0.007808   0.005163
     9  N   -0.000098   0.008061   7.178195   0.000025   0.001068   0.001233
    10  H   -0.000533  -0.001957   0.000025   0.473606  -0.003441   0.000012
    11  H    0.000087  -0.007808   0.001068  -0.003441   0.469228  -0.000102
    12  H   -0.002236   0.005163   0.001233   0.000012  -0.000102   0.452348
    13  H   -0.011846   0.004675  -0.000013  -0.003560  -0.000121  -0.000103
    14  H    0.171824   0.003904  -0.000001  -0.000007   0.000000  -0.000077
              13         14
     1  C    0.048522  -0.006762
     2  C    0.006938  -0.000233
     3  C    0.013861  -0.002109
     4  C   -0.034870   0.151854
     5  C   -0.038211  -0.066186
     6  C    0.304499  -0.080990
     7  O   -0.011846   0.171824
     8  C    0.004675   0.003904
     9  N   -0.000013  -0.000001
    10  H   -0.003560  -0.000007
    11  H   -0.000121   0.000000
    12  H   -0.000103  -0.000077
    13  H    0.503177   0.007227
    14  H    0.007227   0.331952
 Mulliken charges:
               1
     1  C   -0.339680
     2  C   -0.327371
     3  C    0.563442
     4  C   -0.026284
     5  C    0.080537
     6  C    0.126282
     7  O   -0.667898
     8  C   -0.349163
     9  N   -0.453982
    10  H    0.222522
    11  H    0.233635
    12  H    0.248534
    13  H    0.199824
    14  H    0.489604
 Sum of Mulliken charges =   0.00000
 Mulliken charges with hydrogens summed into heavy atoms:
               1
     1  C   -0.117158
     2  C   -0.093737
     3  C    0.563442
     4  C    0.222249
     5  C    0.080537
     6  C    0.326106
     7  O   -0.178294
     8  C   -0.349163
     9  N   -0.453982
 Electronic spatial extent (au):  <R**2>=           1206.5379
 Charge=              0.0000 electrons
 Dipole moment (field-independent basis, Debye):
    X=             -5.2928    Y=              2.4621    Z=              0.0004  Tot=              5.8374
 Quadrupole moment (field-independent basis, Debye-Ang):
   XX=            -56.9956   YY=            -49.5028   ZZ=            -55.0009
   XY=              1.3655   XZ=             -0.0011   YZ=              0.0033
 Traceless Quadrupole moment (field-independent basis, Debye-Ang):
   XX=             -3.1625   YY=              4.3303   ZZ=             -1.1678
   XY=              1.3655   XZ=             -0.0011   YZ=              0.0033
 Octapole moment (field-independent basis, Debye-Ang**2):
  XXX=           -121.6162  YYY=             10.2070  ZZZ=              0.0082  XYY=             -0.3802
  XXY=             17.4135  XXZ=              0.0039  XZZ=             -2.3285  YZZ=             -3.8459
  YYZ=              0.0069  XYZ=             -0.0079
 Hexadecapole moment (field-independent basis, Debye-Ang**3):
 XXXX=          -1212.1401 YYYY=           -412.4773 ZZZZ=            -61.4325 XXXY=             84.5452
 XXXZ=             -0.0531 YYYX=             -2.8648 YYYZ=              0.0058 ZZZX=             -0.0141
 ZZZY=             -0.0048 XXYY=           -275.5794 XXZZ=           -204.7379 YYZZ=            -92.0378
 XXYZ=              0.0202 YYXZ=             -0.0042 ZZXY=              5.6352
 N-N= 3.767536661317D+02 E-N=-1.681984924174D+03  KE= 3.961425740245D+02
 Calling FoFJK, ICntrl=      2127 FMM=F ISym2X=0 I1Cent= 0 IOpClX= 0 NMat=1 NMatS=1 NMatT=0.
 ***** Axes restored to original set *****
 -------------------------------------------------------------------
 Center     Atomic                   Forces (Hartrees/Bohr)
 Number     Number              X              Y              Z
 -------------------------------------------------------------------
      1        6          -0.000289842   -0.000101453    0.006629631
      2        6           0.002538261   -0.001029673   -0.012974829
      3        6          -0.009200908    0.005249112   -0.006565378
      4        6          -0.005942555    0.003000568    0.010337653
      5        6          -0.003488409    0.002346656   -0.007462728
      6        6           0.006706149   -0.003470863   -0.005622601
      7        8           0.002973514   -0.001942700    0.006584477
      8        6           0.013709539   -0.007903997    0.010832841
      9        7          -0.008065719    0.004642066   -0.005959558
     10        1           0.000090583   -0.000062845    0.000792747
     11        1          -0.000037395   -0.000063468    0.003190298
     12        1          -0.000441241    0.000250628   -0.001727661
     13        1          -0.001191365    0.000596979    0.000328212
     14        1           0.002639387   -0.001511009    0.001616895
 -------------------------------------------------------------------
 Cartesian Forces:  Max     0.013709539 RMS     0.005481736

 GradGradGradGradGradGradGradGradGradGradGradGradGradGradGradGradGradGrad
 Berny optimization.
 FormGI is forming the generalized inverse of G from B-inverse, IUseBI=4.
 Internal  Forces:  Max     0.012771691 RMS     0.003393458
 Search for a local minimum.
 Step number   1 out of a maximum of   71
 All quantities printed in internal units (Hartrees-Bohrs-Radians)
 Mixed Optimization -- RFO/linear search
 Second derivative matrix not updated -- first step.
 ITU=  0
     Eigenvalues ---    0.02156   0.02156   0.02156   0.02156   0.02156
     Eigenvalues ---    0.02157   0.02157   0.02157   0.02165   0.02208
     Eigenvalues ---    0.04841   0.04841   0.16000   0.16000   0.16000
     Eigenvalues ---    0.16000   0.16000   0.22000   0.23479   0.23493
     Eigenvalues ---    0.25000   0.25000   0.35064   0.35110   0.35209
     Eigenvalues ---    0.35264   0.41145   0.42231   0.42418   0.46474
     Eigenvalues ---    0.46474   0.46475   0.46494   0.52745   0.53287
     Eigenvalues ---    1.26527
 RFO step:  Lambda=-2.19364058D-03 EMin= 2.15604021D-02
 Linear search not attempted -- first point.
 Iteration  1 RMS(Cart)=  0.02323746 RMS(Int)=  0.00032057
 Iteration  2 RMS(Cart)=  0.00044514 RMS(Int)=  0.00001622
 Iteration  3 RMS(Cart)=  0.00000002 RMS(Int)=  0.00001622
 Variable       Old X    -DE/DX   Delta X   Delta X   Delta X     New X
                                 (Linear)    (Quad)   (Total)
    R1        2.63599  -0.00380   0.00000  -0.00820  -0.00820   2.62779
    R2        2.63568  -0.00153   0.00000  -0.00370  -0.00370   2.63198
    R3        2.05249  -0.00079   0.00000  -0.00223  -0.00223   2.05026
    R4        2.63600   0.00391   0.00000   0.00872   0.00873   2.64473
    R5        2.05497  -0.00158   0.00000  -0.00448  -0.00448   2.05049
    R6        2.63599   0.00219   0.00000   0.00511   0.00511   2.64111
    R7        2.70027   0.00810   0.00000   0.01959   0.01959   2.71986
    R8        2.63600  -0.00496   0.00000  -0.01055  -0.01056   2.62545
    R9        2.05571  -0.00171   0.00000  -0.00485  -0.00485   2.05085
   R10        2.63601   0.00392   0.00000   0.00805   0.00804   2.64405
   R11        2.57193  -0.00182   0.00000  -0.00343  -0.00343   2.56850
   R12        2.05337   0.00096   0.00000   0.00272   0.00272   2.05609
   R13        1.83386  -0.00333   0.00000  -0.00622  -0.00622   1.82764
   R14        2.19576  -0.01104   0.00000  -0.00871  -0.00871   2.18705
    A1        2.09449   0.00180   0.00000   0.00753   0.00753   2.10202
    A2        2.09460  -0.00106   0.00000  -0.00477  -0.00477   2.08983
    A3        2.09410  -0.00074   0.00000  -0.00276  -0.00277   2.09134
    A4        2.09432  -0.00427   0.00000  -0.01814  -0.01813   2.07619
    A5        2.07923   0.00501   0.00000   0.02682   0.02681   2.10604
    A6        2.10963  -0.00074   0.00000  -0.00867  -0.00868   2.10095
    A7        2.09439   0.00449   0.00000   0.01967   0.01967   2.11407
    A8        2.09385  -0.00132   0.00000  -0.00617  -0.00617   2.08769
    A9        2.09494  -0.00317   0.00000  -0.01350  -0.01351   2.08143
   A10        2.09439  -0.00330   0.00000  -0.01332  -0.01333   2.08106
   A11        2.10331   0.00225   0.00000   0.01036   0.01037   2.11368
   A12        2.08548   0.00105   0.00000   0.00296   0.00296   2.08844
   A13        2.09434   0.00052   0.00000   0.00195   0.00194   2.09628
   A14        2.09464  -0.01277   0.00000  -0.05059  -0.05059   2.04405
   A15        2.09421   0.01226   0.00000   0.04864   0.04865   2.14286
   A16        2.09444   0.00077   0.00000   0.00231   0.00231   2.09675
   A17        2.08890   0.00058   0.00000   0.00482   0.00482   2.09372
   A18        2.09984  -0.00135   0.00000  -0.00713  -0.00712   2.09272
   A19        1.92478  -0.00145   0.00000  -0.00895  -0.00895   1.91583
   A20        3.14150   0.00056   0.00000   0.01097   0.01097   3.15247
   A21        3.14154   0.00000   0.00000   0.00004   0.00004   3.14157
    D1       -0.00011   0.00001   0.00000   0.00018   0.00018   0.00007
    D2        3.14124   0.00001   0.00000   0.00030   0.00030   3.14154
    D3        3.14156   0.00000   0.00000   0.00017   0.00017  -3.14145
    D4       -0.00027   0.00001   0.00000   0.00029   0.00029   0.00002
    D5        0.00007   0.00000   0.00000  -0.00010  -0.00009  -0.00002
    D6        3.14024   0.00003   0.00000   0.00132   0.00135   3.14159
    D7        3.14158   0.00000   0.00000  -0.00008  -0.00008   3.14151
    D8       -0.00143   0.00003   0.00000   0.00134   0.00135  -0.00007
    D9        0.00007   0.00000   0.00000  -0.00010  -0.00011  -0.00003
   D10       -3.14154  -0.00001   0.00000  -0.00019  -0.00018   3.14146
   D11       -3.14127   0.00000   0.00000  -0.00023  -0.00023  -3.14150
   D12        0.00030  -0.00001   0.00000  -0.00032  -0.00031  -0.00001
   D13        0.00000   0.00000   0.00000  -0.00007  -0.00005  -0.00005
   D14       -3.14029  -0.00003   0.00000  -0.00132  -0.00130   3.14159
   D15       -3.14157   0.00000   0.00000   0.00002   0.00002  -3.14155
   D16        0.00133  -0.00003   0.00000  -0.00124  -0.00123   0.00010
   D17       -0.00004   0.00000   0.00000   0.00015   0.00015   0.00011
   D18       -3.13980  -0.00007   0.00000  -0.00227  -0.00221   3.14118
   D19        3.14027   0.00004   0.00000   0.00140   0.00138  -3.14154
   D20        0.00051  -0.00003   0.00000  -0.00102  -0.00097  -0.00046
   D21        0.00001   0.00000   0.00000  -0.00007  -0.00008  -0.00007
   D22       -3.14016  -0.00003   0.00000  -0.00151  -0.00152   3.14150
   D23        3.13976   0.00004   0.00000   0.00225   0.00231  -3.14111
   D24       -0.00040   0.00001   0.00000   0.00081   0.00087   0.00046
   D25        3.14157   0.00003   0.00000   0.00127   0.00126  -3.14035
   D26        0.00181  -0.00003   0.00000  -0.00111  -0.00111   0.00071
         Item               Value     Threshold  Converged?
 Maximum Force            0.012772     0.000450     NO 
 RMS     Force            0.003393     0.000300     NO 
 Maximum Displacement     0.112952     0.001800     NO 
 RMS     Displacement     0.023216     0.001200     NO 
 Predicted change in Energy=-1.105883D-03
 GradGradGradGradGradGradGradGradGradGradGradGradGradGradGradGradGradGrad

                          Input orientation:                          
 ---------------------------------------------------------------------
 Center     Atomic      Atomic             Coordinates (Angstroms)
 Number     Number       Type             X           Y           Z
 ---------------------------------------------------------------------
      1          6           0        1.892682   -1.040009   -0.122821
      2          6           0        2.926759   -1.633686    0.592655
      3          6           0        2.864738   -1.643862    1.990775
      4          6           0        1.786610   -1.070136    2.670335
      5          6           0        0.761195   -0.480692    1.941424
      6          6           0        0.813102   -0.465006    0.543303
      7          8           0       -0.265988    0.063540    2.645770
      8          6           0        3.927246   -2.254677    2.745445
      9          7           0        4.787481   -2.748752    3.341526
     10          1           0        1.927755   -1.025076   -1.207101
     11          1           0        3.769570   -2.082794    0.077532
     12          1           0        1.738885   -1.078234    3.754520
     13          1           0        0.008199   -0.002562   -0.024236
     14          1           0       -0.916234    0.440746    2.037271
 ---------------------------------------------------------------------
                    Distance matrix (angstroms):
                    1          2          3          4          5
     1  C    0.000000
     2  C    1.390566   0.000000
     3  C    2.403502   1.399532   0.000000
     4  C    2.795332   2.436038   1.397613   0.000000
     5  C    2.419547   2.799686   2.404224   1.389327   0.000000
     6  C    1.392782   2.415739   2.773822   2.416230   1.399173
     7  O    3.680051   4.158063   3.625698   2.344991   1.359190
     8  C    3.720460   2.453794   1.439286   2.447673   3.717170
     9  N    4.827149   3.501707   2.596585   3.503353   4.828598
    10  H    1.084950   2.146518   3.389284   3.880266   3.401533
    11  H    2.156444   1.085071   2.161453   3.417635   3.884732
    12  H    3.880578   3.423005   2.167550   1.085265   2.144819
    13  H    2.153437   3.399870   3.861858   3.400466   2.158572
    14  H    3.840396   4.599867   4.317812   3.160522   1.916247
                    6          7          8          9         10
     6  C    0.000000
     7  O    2.421604   0.000000
     8  C    4.213104   4.792419   0.000000
     9  N    5.370405   5.824999   1.157337   0.000000
    10  H    2.149429   4.565327   4.597010   5.642615   0.000000
    11  H    3.402188   5.242931   2.678089   3.483289   2.482203
    12  H    3.397799   2.559783   2.681636   3.500733   4.965499
    13  H    1.088036   2.684862   5.301140   6.458441   2.475763
    14  H    2.458237   0.967148   5.588033   6.663809   4.556628
                   11         12         13         14
    11  H    0.000000
    12  H    4.318919   0.000000
    13  H    4.299492   4.293174   0.000000
    14  H    5.671471   3.507977   2.302371   0.000000
 Stoichiometry    C7H5NO
 Framework group  C1[X(C7H5NO)]
 Deg. of freedom    36
 Full point group                 C1      NOp   1
 Largest Abelian subgroup         C1      NOp   1
 Largest concise Abelian subgroup C1      NOp   1
                         Standard orientation:                         
 ---------------------------------------------------------------------
 Center     Atomic      Atomic             Coordinates (Angstroms)
 Number     Number       Type             X           Y           Z
 ---------------------------------------------------------------------
      1          6           0       -0.695769    1.802812   -0.000053
      2          6           0        0.637902    1.409115   -0.000009
      3          6           0        0.941065    0.042813    0.000097
      4          6           0       -0.070414   -0.921672    0.000201
      5          6           0       -1.398137   -0.512547    0.000263
      6          6           0       -1.712450    0.850865    0.000092
      7          8           0       -2.346419   -1.486280   -0.000138
      8          6           0        2.316687   -0.380518   -0.000026
      9          7           0        3.426469   -0.708866   -0.000143
     10          1           0       -0.945212    2.858697   -0.000267
     11          1           0        1.432940    2.147555   -0.000172
     12          1           0        0.165087   -1.981077    0.000280
     13          1           0       -2.753376    1.167560    0.000058
     14          1           0       -3.226680   -1.085636   -0.001182
 ---------------------------------------------------------------------
 Rotational constants (GHZ):      3.4075076      1.2096385      0.8927273
 Standard basis: 6-31+G(d) (6D, 7F)
 There are   181 symmetry adapted cartesian basis functions of A   symmetry.
 There are   181 symmetry adapted basis functions of A   symmetry.
   181 basis functions,   308 primitive gaussians,   181 cartesian basis functions
    31 alpha electrons       31 beta electrons
       nuclear repulsion energy       376.9098870496 Hartrees.
 NAtoms=   14 NActive=   14 NUniq=   14 SFac= 1.00D+00 NAtFMM=   60 NAOKFM=F Big=F
 Integral buffers will be    131072 words long.
 Raffenetti 2 integral format.
 Two-electron integral symmetry is turned on.
 One-electron integrals computed using PRISM.
 NBasis=   181 RedAO= T EigKep=  3.68D-06  NBF=   181
 NBsUse=   181 1.00D-06 EigRej= -1.00D+00 NBFU=   181
 Initial guess from the checkpoint file:  "/srv/scratch/z5358697/gauss/Gau-2619546.chk"
 B after Tr=     0.000000    0.000000    0.000000
         Rot=    1.000000   -0.000001    0.000000    0.000171 Ang=  -0.02 deg.
 ExpMin= 4.38D-02 ExpMax= 5.48D+03 ExpMxC= 8.25D+02 IAcc=2 IRadAn=         4 AccDes= 0.00D+00
 Harris functional with IExCor= 1009 and IRadAn=       4 diagonalized for initial guess.
 HarFok:  IExCor= 1009 AccDes= 0.00D+00 IRadAn=         4 IDoV= 1 UseB2=F ITyADJ=14
 ICtDFT=  3500011 ScaDFX=  1.000000  1.000000  1.000000  1.000000
 FoFCou: FMM=F IPFlag=           0 FMFlag=      100000 FMFlg1=           0
         NFxFlg=           0 DoJE=T BraDBF=F KetDBF=T FulRan=T
         wScrn=  0.000000 ICntrl=     500 IOpCl=  0 I1Cent=   200000004 NGrid=           0
         NMat0=    1 NMatS0=      1 NMatT0=    0 NMatD0=    1 NMtDS0=    0 NMtDT0=    0
 Petite list used in FoFCou.
 Requested convergence on RMS density matrix=1.00D-08 within 128 cycles.
 Requested convergence on MAX density matrix=1.00D-06.
 Requested convergence on             energy=1.00D-06.
 No special actions if energy rises.
 SCF Done:  E(RM062X) =  -399.558796227     A.U. after   12 cycles
            NFock= 12  Conv=0.90D-08     -V/T= 2.0086
 Calling FoFJK, ICntrl=      2127 FMM=F ISym2X=0 I1Cent= 0 IOpClX= 0 NMat=1 NMatS=1 NMatT=0.
 ***** Axes restored to original set *****
 -------------------------------------------------------------------
 Center     Atomic                   Forces (Hartrees/Bohr)
 Number     Number              X              Y              Z
 -------------------------------------------------------------------
      1        6          -0.000073932   -0.000027332    0.002309855
      2        6           0.000802849   -0.000394468   -0.001815723
      3        6          -0.002531330    0.001420821   -0.000521827
      4        6           0.003309926   -0.001864533    0.001956344
      5        6          -0.000794074    0.000489086   -0.003724535
      6        6          -0.000763048    0.000408908    0.000706298
      7        8           0.000311737   -0.000134161   -0.000590512
      8        6           0.001174198   -0.000656394    0.000325090
      9        7           0.000116880   -0.000072975    0.000278327
     10        1          -0.000424206    0.000247221   -0.000269174
     11        1           0.000115588   -0.000096406    0.001062895
     12        1          -0.000008063    0.000007238   -0.000321701
     13        1          -0.000126148    0.000058021    0.000292525
     14        1          -0.001110377    0.000614974    0.000312136
 -------------------------------------------------------------------
 Cartesian Forces:  Max     0.003724535 RMS     0.001177624

 GradGradGradGradGradGradGradGradGradGradGradGradGradGradGradGradGradGrad
 Berny optimization.
 Using GEDIIS/GDIIS optimizer.
 FormGI is forming the generalized inverse of G from B-inverse, IUseBI=4.
 Internal  Forces:  Max     0.003064066 RMS     0.000701708
 Search for a local minimum.
 Step number   2 out of a maximum of   71
 All quantities printed in internal units (Hartrees-Bohrs-Radians)
 Mixed Optimization -- En-DIIS/RFO-DIIS
 Update second derivatives using D2CorX and points    1    2
 DE= -1.11D-03 DEPred=-1.11D-03 R= 1.00D+00
 TightC=F SS=  1.41D+00  RLast= 9.10D-02 DXNew= 5.0454D-01 2.7287D-01
 Trust test= 1.00D+00 RLast= 9.10D-02 DXMaxT set to 3.00D-01
 ITU=  1  0
 Use linear search instead of GDIIS.
     Eigenvalues ---    0.02156   0.02156   0.02156   0.02156   0.02156
     Eigenvalues ---    0.02157   0.02157   0.02157   0.02166   0.02208
     Eigenvalues ---    0.04841   0.04862   0.14974   0.16000   0.16000
     Eigenvalues ---    0.16000   0.16245   0.21176   0.23151   0.23553
     Eigenvalues ---    0.25000   0.25698   0.34996   0.35093   0.35210
     Eigenvalues ---    0.35285   0.40212   0.42205   0.42419   0.46367
     Eigenvalues ---    0.46474   0.46494   0.50070   0.52868   0.54158
     Eigenvalues ---    1.26920
 RFO step:  Lambda=-1.04844092D-04 EMin= 2.15604757D-02
 Quartic linear search produced a step of  0.00885.
 Iteration  1 RMS(Cart)=  0.00436747 RMS(Int)=  0.00002509
 Iteration  2 RMS(Cart)=  0.00002479 RMS(Int)=  0.00000052
 Iteration  3 RMS(Cart)=  0.00000000 RMS(Int)=  0.00000052
 Variable       Old X    -DE/DX   Delta X   Delta X   Delta X     New X
                                 (Linear)    (Quad)   (Total)
    R1        2.62779   0.00037  -0.00007   0.00039   0.00032   2.62811
    R2        2.63198  -0.00018  -0.00003  -0.00065  -0.00068   2.63130
    R3        2.05026   0.00026  -0.00002   0.00065   0.00063   2.05089
    R4        2.64473  -0.00012   0.00008   0.00009   0.00017   2.64490
    R5        2.05049  -0.00037  -0.00004  -0.00124  -0.00128   2.04920
    R6        2.64111  -0.00130   0.00005  -0.00253  -0.00248   2.63863
    R7        2.71986   0.00158   0.00017   0.00464   0.00482   2.72467
    R8        2.62545   0.00306  -0.00009   0.00634   0.00624   2.63169
    R9        2.05085  -0.00032  -0.00004  -0.00111  -0.00116   2.04970
   R10        2.64405  -0.00218   0.00007  -0.00442  -0.00435   2.63970
   R11        2.56850   0.00063  -0.00003   0.00108   0.00105   2.56955
   R12        2.05609  -0.00004   0.00002   0.00000   0.00002   2.05611
   R13        1.82764   0.00082  -0.00006   0.00131   0.00125   1.82890
   R14        2.18705   0.00026  -0.00008  -0.00013  -0.00021   2.18684
    A1        2.10202   0.00107   0.00007   0.00483   0.00490   2.10692
    A2        2.08983  -0.00006  -0.00004   0.00055   0.00051   2.09033
    A3        2.09134  -0.00101  -0.00002  -0.00538  -0.00541   2.08593
    A4        2.07619  -0.00065  -0.00016  -0.00379  -0.00395   2.07224
    A5        2.10604   0.00138   0.00024   0.00927   0.00951   2.11555
    A6        2.10095  -0.00074  -0.00008  -0.00549  -0.00556   2.09539
    A7        2.11407   0.00028   0.00017   0.00218   0.00235   2.11642
    A8        2.08769  -0.00016  -0.00005  -0.00104  -0.00109   2.08659
    A9        2.08143  -0.00012  -0.00012  -0.00114  -0.00126   2.08017
   A10        2.08106  -0.00040  -0.00012  -0.00184  -0.00196   2.07911
   A11        2.11368   0.00025   0.00009   0.00137   0.00147   2.11514
   A12        2.08844   0.00015   0.00003   0.00046   0.00049   2.08894
   A13        2.09628   0.00033   0.00002   0.00164   0.00165   2.09793
   A14        2.04405  -0.00008  -0.00045  -0.00241  -0.00286   2.04119
   A15        2.14286  -0.00025   0.00043   0.00077   0.00120   2.14406
   A16        2.09675  -0.00064   0.00002  -0.00303  -0.00301   2.09374
   A17        2.09372   0.00062   0.00004   0.00363   0.00367   2.09739
   A18        2.09272   0.00002  -0.00006  -0.00061  -0.00067   2.09205
   A19        1.91583   0.00186  -0.00008   0.01136   0.01128   1.92711
   A20        3.15247  -0.00046   0.00010  -0.00925  -0.00915   3.14332
   A21        3.14157   0.00000   0.00000   0.00002   0.00002   3.14160
    D1        0.00007   0.00000   0.00000  -0.00012  -0.00012  -0.00005
    D2        3.14154   0.00000   0.00000   0.00008   0.00009  -3.14156
    D3       -3.14145  -0.00001   0.00000  -0.00023  -0.00023   3.14150
    D4        0.00002   0.00000   0.00000  -0.00002  -0.00002   0.00000
    D5       -0.00002   0.00000   0.00000  -0.00004  -0.00004  -0.00005
    D6        3.14159   0.00000   0.00001  -0.00008  -0.00007   3.14152
    D7        3.14151   0.00000   0.00000   0.00007   0.00007   3.14157
    D8       -0.00007   0.00000   0.00001   0.00003   0.00004  -0.00003
    D9       -0.00003   0.00000   0.00000   0.00013   0.00013   0.00010
   D10        3.14146   0.00000   0.00000   0.00022   0.00021  -3.14151
   D11       -3.14150   0.00000   0.00000  -0.00008  -0.00008  -3.14158
   D12       -0.00001   0.00000   0.00000   0.00001   0.00001  -0.00001
   D13       -0.00005   0.00000   0.00000   0.00002   0.00002  -0.00003
   D14        3.14159   0.00000  -0.00001  -0.00002  -0.00004   3.14155
   D15       -3.14155   0.00000   0.00000  -0.00006  -0.00006   3.14158
   D16        0.00010   0.00000  -0.00001  -0.00011  -0.00012  -0.00002
   D17        0.00011   0.00000   0.00000  -0.00019  -0.00019  -0.00008
   D18        3.14118   0.00001  -0.00002   0.00061   0.00059  -3.14142
   D19       -3.14154   0.00000   0.00001  -0.00014  -0.00013   3.14152
   D20       -0.00046   0.00001  -0.00001   0.00066   0.00065   0.00018
   D21       -0.00007   0.00000   0.00000   0.00020   0.00020   0.00012
   D22        3.14150   0.00001  -0.00001   0.00024   0.00023  -3.14145
   D23       -3.14111  -0.00002   0.00002  -0.00065  -0.00063   3.14145
   D24        0.00046  -0.00001   0.00001  -0.00060  -0.00060  -0.00013
   D25       -3.14035  -0.00002   0.00001  -0.00084  -0.00083  -3.14118
   D26        0.00071   0.00000  -0.00001  -0.00002  -0.00003   0.00067
         Item               Value     Threshold  Converged?
 Maximum Force            0.003064     0.000450     NO 
 RMS     Force            0.000702     0.000300     NO 
 Maximum Displacement     0.015542     0.001800     NO 
 RMS     Displacement     0.004366     0.001200     NO 
 Predicted change in Energy=-5.253591D-05
 GradGradGradGradGradGradGradGradGradGradGradGradGradGradGradGradGradGrad

                          Input orientation:                          
 ---------------------------------------------------------------------
 Center     Atomic      Atomic             Coordinates (Angstroms)
 Number     Number       Type             X           Y           Z
 ---------------------------------------------------------------------
      1          6           0        1.892555   -1.040024   -0.122305
      2          6           0        2.928592   -1.634707    0.589825
      3          6           0        2.865250   -1.644183    1.987978
      4          6           0        1.788804   -1.071594    2.668464
      5          6           0        0.761312   -0.481108    1.937023
      6          6           0        0.812038   -0.464589    0.541171
      7          8           0       -0.264701    0.063031    2.644214
      8          6           0        3.929775   -2.255877    2.743956
      9          7           0        4.785114   -2.747288    3.349006
     10          1           0        1.924539   -1.023104   -1.206987
     11          1           0        3.773856   -2.085158    0.081366
     12          1           0        1.740911   -1.079640    3.752030
     13          1           0        0.006326   -0.001649   -0.024838
     14          1           0       -0.922371    0.444689    2.045496
 ---------------------------------------------------------------------
                    Distance matrix (angstroms):
                    1          2          3          4          5
     1  C    0.000000
     2  C    1.390737   0.000000
     3  C    2.400924   1.399619   0.000000
     4  C    2.792875   2.436587   1.396301   0.000000
     5  C    2.415145   2.800507   2.404557   1.392631   0.000000
     6  C    1.392423   2.418956   2.774954   2.418244   1.396871
     7  O    3.677514   4.159321   3.625164   2.346240   1.359746
     8  C    3.720755   2.455301   1.441835   2.447853   3.720229
     9  N    4.830285   3.506793   2.599061   3.499852   4.829105
    10  H    1.085286   2.147257   3.387990   3.878131   3.395829
    11  H    2.161731   1.084392   2.157589   3.414794   3.884824
    12  H    3.877504   3.423190   2.166731   1.084654   2.147582
    13  H    2.155361   3.403576   3.863003   3.402336   2.156104
    14  H    3.850654   4.612243   4.325825   3.168228   1.924488
                    6          7          8          9         10
     6  C    0.000000
     7  O    2.420855   0.000000
     8  C    4.216783   4.793840   0.000000
     9  N    5.374011   5.821963   1.157228   0.000000
    10  H    2.146078   4.561163   4.598984   5.649139   0.000000
    11  H    3.407349   5.243362   2.672609   3.484040   2.491543
    12  H    3.398634   2.560358   2.681580   3.494374   4.962738
    13  H    1.088049   2.683557   5.304830   6.462057   2.473941
    14  H    2.469404   0.967810   5.596805   6.668076   4.564861
                   11         12         13         14
    11  H    0.000000
    12  H    4.314823   0.000000
    13  H    4.306573   4.293668   0.000000
    14  H    5.684406   3.511255   2.312570   0.000000
 Stoichiometry    C7H5NO
 Framework group  C1[X(C7H5NO)]
 Deg. of freedom    36
 Full point group                 C1      NOp   1
 Largest Abelian subgroup         C1      NOp   1
 Largest concise Abelian subgroup C1      NOp   1
                         Standard orientation:                         
 ---------------------------------------------------------------------
 Center     Atomic      Atomic             Coordinates (Angstroms)
 Number     Number       Type             X           Y           Z
 ---------------------------------------------------------------------
      1          6           0       -0.698777    1.800461    0.000016
      2          6           0        0.636780    1.412599   -0.000044
      3          6           0        0.940593    0.046351   -0.000024
      4          6           0       -0.067219   -0.920070   -0.000060
      5          6           0       -1.398451   -0.511115   -0.000081
      6          6           0       -1.715665    0.849261    0.000031
      7          8           0       -2.343494   -1.488766    0.000095
      8          6           0        2.319309   -0.375584    0.000013
      9          7           0        3.426461   -0.712318    0.000046
     10          1           0       -0.953483    2.855435    0.000085
     11          1           0        1.435076    2.146513   -0.000026
     12          1           0        0.169579   -1.978559   -0.000080
     13          1           0       -2.757605    1.162647    0.000144
     14          1           0       -3.230271   -1.101103   -0.000311
 ---------------------------------------------------------------------
 Rotational constants (GHZ):      3.4059726      1.2091890      0.8923771
 Standard basis: 6-31+G(d) (6D, 7F)
 There are   181 symmetry adapted cartesian basis functions of A   symmetry.
 There are   181 symmetry adapted basis functions of A   symmetry.
   181 basis functions,   308 primitive gaussians,   181 cartesian basis functions
    31 alpha electrons       31 beta electrons
       nuclear repulsion energy       376.8388030009 Hartrees.
 NAtoms=   14 NActive=   14 NUniq=   14 SFac= 1.00D+00 NAtFMM=   60 NAOKFM=F Big=F
 Integral buffers will be    131072 words long.
 Raffenetti 2 integral format.
 Two-electron integral symmetry is turned on.
 One-electron integrals computed using PRISM.
 NBasis=   181 RedAO= T EigKep=  3.69D-06  NBF=   181
 NBsUse=   181 1.00D-06 EigRej= -1.00D+00 NBFU=   181
 Initial guess from the checkpoint file:  "/srv/scratch/z5358697/gauss/Gau-2619546.chk"
 B after Tr=     0.000000    0.000000    0.000000
         Rot=    1.000000    0.000000    0.000000   -0.000478 Ang=   0.05 deg.
 Requested convergence on RMS density matrix=1.00D-08 within 128 cycles.
 Requested convergence on MAX density matrix=1.00D-06.
 Requested convergence on             energy=1.00D-06.
 No special actions if energy rises.
 SCF Done:  E(RM062X) =  -399.558852074     A.U. after   12 cycles
            NFock= 12  Conv=0.48D-08     -V/T= 2.0086
 Calling FoFJK, ICntrl=      2127 FMM=F ISym2X=0 I1Cent= 0 IOpClX= 0 NMat=1 NMatS=1 NMatT=0.
 ***** Axes restored to original set *****
 -------------------------------------------------------------------
 Center     Atomic                   Forces (Hartrees/Bohr)
 Number     Number              X              Y              Z
 -------------------------------------------------------------------
      1        6           0.000781454   -0.000438429    0.000131484
      2        6          -0.000371569    0.000236578   -0.000746400
      3        6          -0.000574000    0.000298745    0.000357426
      4        6           0.001028889   -0.000580438    0.000234180
      5        6          -0.000450413    0.000296118   -0.000643089
      6        6          -0.000590947    0.000298767    0.000643587
      7        8           0.000188078   -0.000119249    0.000009773
      8        6          -0.000476146    0.000260652    0.000044243
      9        7           0.000411977   -0.000229041    0.000050886
     10        1          -0.000114359    0.000067055   -0.000152020
     11        1           0.000015823   -0.000010699    0.000041170
     12        1          -0.000078790    0.000044113    0.000033921
     13        1           0.000127428   -0.000073599    0.000067918
     14        1           0.000102576   -0.000050574   -0.000073080
 -------------------------------------------------------------------
 Cartesian Forces:  Max     0.001028889 RMS     0.000371380

 GradGradGradGradGradGradGradGradGradGradGradGradGradGradGradGradGradGrad
 Berny optimization.
 Using GEDIIS/GDIIS optimizer.
 FormGI is forming the generalized inverse of G from B-inverse, IUseBI=4.
 Internal  Forces:  Max     0.000649709 RMS     0.000192267
 Search for a local minimum.
 Step number   3 out of a maximum of   71
 All quantities printed in internal units (Hartrees-Bohrs-Radians)
 Mixed Optimization -- En-DIIS/RFO-DIIS
 Swapping is turned off.
 Update second derivatives using D2CorX and points    1    2    3
 DE= -5.58D-05 DEPred=-5.25D-05 R= 1.06D+00
 TightC=F SS=  1.41D+00  RLast= 2.34D-02 DXNew= 5.0454D-01 7.0213D-02
 Trust test= 1.06D+00 RLast= 2.34D-02 DXMaxT set to 3.00D-01
 ITU=  1  1  0
     Eigenvalues ---    0.02156   0.02156   0.02156   0.02156   0.02156
     Eigenvalues ---    0.02157   0.02157   0.02157   0.02166   0.02207
     Eigenvalues ---    0.04841   0.05113   0.13989   0.16000   0.16000
     Eigenvalues ---    0.16034   0.17108   0.20806   0.23195   0.23574
     Eigenvalues ---    0.25044   0.25703   0.34950   0.35087   0.35237
     Eigenvalues ---    0.35297   0.39373   0.42221   0.42422   0.45337
     Eigenvalues ---    0.46478   0.46555   0.49308   0.53103   0.54769
     Eigenvalues ---    1.27248
 En-DIIS/RFO-DIIS IScMMF=        0 using points:     3    2
 RFO step:  Lambda=-3.90632991D-06.
 DidBck=F Rises=F RFO-DIIS coefs:    1.01618   -0.01618
 Iteration  1 RMS(Cart)=  0.00160378 RMS(Int)=  0.00000537
 Iteration  2 RMS(Cart)=  0.00000529 RMS(Int)=  0.00000006
 Iteration  3 RMS(Cart)=  0.00000000 RMS(Int)=  0.00000006
 Variable       Old X    -DE/DX   Delta X   Delta X   Delta X     New X
                                 (Linear)    (Quad)   (Total)
    R1        2.62811  -0.00049   0.00001  -0.00109  -0.00108   2.62703
    R2        2.63130   0.00043  -0.00001   0.00088   0.00087   2.63217
    R3        2.05089   0.00015   0.00001   0.00046   0.00047   2.05136
    R4        2.64490   0.00046   0.00000   0.00105   0.00106   2.64595
    R5        2.04920   0.00000  -0.00002  -0.00010  -0.00012   2.04909
    R6        2.63863  -0.00065  -0.00004  -0.00156  -0.00160   2.63703
    R7        2.72467  -0.00001   0.00008   0.00035   0.00043   2.72511
    R8        2.63169   0.00047   0.00010   0.00137   0.00147   2.63316
    R9        2.04970   0.00004  -0.00002   0.00002   0.00000   2.04970
   R10        2.63970  -0.00045  -0.00007  -0.00121  -0.00128   2.63842
   R11        2.56955  -0.00034   0.00002  -0.00060  -0.00058   2.56896
   R12        2.05611  -0.00016   0.00000  -0.00046  -0.00046   2.05566
   R13        1.82890  -0.00002   0.00002   0.00002   0.00004   1.82894
   R14        2.18684   0.00043   0.00000   0.00030   0.00030   2.18714
    A1        2.10692  -0.00008   0.00008  -0.00002   0.00006   2.10698
    A2        2.09033   0.00015   0.00001   0.00087   0.00087   2.09121
    A3        2.08593  -0.00007  -0.00009  -0.00085  -0.00093   2.08500
    A4        2.07224  -0.00001  -0.00006  -0.00034  -0.00041   2.07184
    A5        2.11555   0.00008   0.00015   0.00119   0.00134   2.11689
    A6        2.09539  -0.00007  -0.00009  -0.00084  -0.00093   2.09446
    A7        2.11642   0.00017   0.00004   0.00091   0.00095   2.11737
    A8        2.08659   0.00000  -0.00002  -0.00007  -0.00009   2.08650
    A9        2.08017  -0.00017  -0.00002  -0.00084  -0.00086   2.07932
   A10        2.07911  -0.00019  -0.00003  -0.00103  -0.00106   2.07805
   A11        2.11514   0.00021   0.00002   0.00131   0.00133   2.11647
   A12        2.08894  -0.00002   0.00001  -0.00028  -0.00027   2.08867
   A13        2.09793   0.00011   0.00003   0.00061   0.00064   2.09857
   A14        2.04119   0.00001  -0.00005  -0.00036  -0.00040   2.04078
   A15        2.14406  -0.00012   0.00002  -0.00026  -0.00024   2.14383
   A16        2.09374   0.00000  -0.00005  -0.00013  -0.00018   2.09356
   A17        2.09739  -0.00005   0.00006  -0.00010  -0.00004   2.09736
   A18        2.09205   0.00005  -0.00001   0.00023   0.00022   2.09226
   A19        1.92711  -0.00028   0.00018  -0.00113  -0.00094   1.92617
   A20        3.14332   0.00035  -0.00015   0.00681   0.00666   3.14998
   A21        3.14160   0.00000   0.00000   0.00000   0.00000   3.14160
    D1       -0.00005   0.00000   0.00000   0.00009   0.00009   0.00003
    D2       -3.14156   0.00000   0.00000  -0.00002  -0.00002  -3.14158
    D3        3.14150   0.00000   0.00000   0.00011   0.00010  -3.14158
    D4        0.00000   0.00000   0.00000   0.00000   0.00000  -0.00001
    D5       -0.00005   0.00000   0.00000   0.00003   0.00003  -0.00002
    D6        3.14152   0.00000   0.00000   0.00006   0.00006   3.14158
    D7        3.14157   0.00000   0.00000   0.00001   0.00002   3.14159
    D8       -0.00003   0.00000   0.00000   0.00004   0.00004   0.00001
    D9        0.00010   0.00000   0.00000  -0.00012  -0.00012  -0.00002
   D10       -3.14151   0.00000   0.00000  -0.00009  -0.00008   3.14159
   D11       -3.14158   0.00000   0.00000  -0.00001  -0.00001   3.14159
   D12       -0.00001   0.00000   0.00000   0.00002   0.00002   0.00002
   D13       -0.00003   0.00000   0.00000   0.00003   0.00003   0.00000
   D14        3.14155   0.00000   0.00000   0.00002   0.00002   3.14158
   D15        3.14158   0.00000   0.00000   0.00000  -0.00001   3.14158
   D16       -0.00002   0.00000   0.00000  -0.00001  -0.00002  -0.00004
   D17       -0.00008   0.00000   0.00000   0.00009   0.00009   0.00001
   D18       -3.14142   0.00000   0.00001  -0.00018  -0.00017  -3.14159
   D19        3.14152   0.00000   0.00000   0.00010   0.00010  -3.14156
   D20        0.00018   0.00000   0.00001  -0.00017  -0.00016   0.00002
   D21        0.00012   0.00000   0.00000  -0.00012  -0.00012   0.00000
   D22       -3.14145   0.00000   0.00000  -0.00015  -0.00015   3.14158
   D23        3.14145   0.00000  -0.00001   0.00017   0.00015  -3.14158
   D24       -0.00013   0.00000  -0.00001   0.00014   0.00013   0.00000
   D25       -3.14118   0.00000  -0.00001  -0.00002  -0.00003  -3.14121
   D26        0.00067  -0.00001   0.00000  -0.00030  -0.00030   0.00038
         Item               Value     Threshold  Converged?
 Maximum Force            0.000650     0.000450     NO 
 RMS     Force            0.000192     0.000300     YES
 Maximum Displacement     0.008497     0.001800     NO 
 RMS     Displacement     0.001604     0.001200     NO 
 Predicted change in Energy=-4.019366D-06
 GradGradGradGradGradGradGradGradGradGradGradGradGradGradGradGradGradGrad

                          Input orientation:                          
 ---------------------------------------------------------------------
 Center     Atomic      Atomic             Coordinates (Angstroms)
 Number     Number       Type             X           Y           Z
 ---------------------------------------------------------------------
      1          6           0        1.892899   -1.040215   -0.121897
      2          6           0        2.928433   -1.634556    0.590131
      3          6           0        2.864347   -1.643700    1.988812
      4          6           0        1.788793   -1.071563    2.669357
      5          6           0        0.761197   -0.480918    1.936705
      6          6           0        0.811900   -0.464513    0.541531
      7          8           0       -0.264831    0.063048    2.643413
      8          6           0        3.928696   -2.255376    2.745489
      9          7           0        4.787476   -2.748538    3.344510
     10          1           0        1.924184   -1.022966   -1.206844
     11          1           0        3.774287   -2.085400    0.083137
     12          1           0        1.739992   -1.079132    3.752885
     13          1           0        0.006451   -0.001824   -0.024590
     14          1           0       -0.921824    0.444455    2.043759
 ---------------------------------------------------------------------
                    Distance matrix (angstroms):
                    1          2          3          4          5
     1  C    0.000000
     2  C    1.390164   0.000000
     3  C    2.400624   1.400178   0.000000
     4  C    2.793371   2.436990   1.395456   0.000000
     5  C    2.414830   2.800188   2.403750   1.393410   0.000000
     6  C    1.392885   2.418899   2.774462   2.418775   1.396191
     7  O    3.676945   4.158697   3.623982   2.346356   1.359437
     8  C    3.720617   2.455914   1.442064   2.446711   3.719661
     9  N    4.828345   3.504797   2.599425   3.501454   4.830625
    10  H    1.085535   2.147482   3.388427   3.878870   3.395329
    11  H    2.161961   1.084331   2.157472   3.414467   3.884429
    12  H    3.877993   3.424018   2.166763   1.084653   2.148117
    13  H    2.155553   3.403186   3.862268   3.402710   2.155424
    14  H    3.849282   4.610834   4.324176   3.168142   1.923626
                    6          7          8          9         10
     6  C    0.000000
     7  O    2.419830   0.000000
     8  C    4.216520   4.792826   0.000000
     9  N    5.373887   5.824291   1.157384   0.000000
    10  H    2.146127   4.560230   4.599766   5.647200   0.000000
    11  H    3.407806   5.242644   2.672237   3.478915   2.493131
    12  H    3.398809   2.560238   2.681198   3.498692   4.963466
    13  H    1.087806   2.682544   5.304323   6.461693   2.473491
    14  H    2.467531   0.967831   5.595450   6.669578   4.562839
                   11         12         13         14
    11  H    0.000000
    12  H    4.314856   0.000000
    13  H    4.306912   4.293608   0.000000
    14  H    5.683103   3.511082   2.310611   0.000000
 Stoichiometry    C7H5NO
 Framework group  C1[X(C7H5NO)]
 Deg. of freedom    36
 Full point group                 C1      NOp   1
 Largest Abelian subgroup         C1      NOp   1
 Largest concise Abelian subgroup C1      NOp   1
                         Standard orientation:                         
 ---------------------------------------------------------------------
 Center     Atomic      Atomic             Coordinates (Angstroms)
 Number     Number       Type             X           Y           Z
 ---------------------------------------------------------------------
      1          6           0       -0.697303    1.800341   -0.000006
      2          6           0        0.637428    1.411692    0.000002
      3          6           0        0.939839    0.044561   -0.000010
      4          6           0       -0.067522   -0.921110    0.000000
      5          6           0       -1.398996   -0.510293    0.000018
      6          6           0       -1.715258    0.849607    0.000016
      7          8           0       -2.344630   -1.486944    0.000030
      8          6           0        2.318342   -0.378850   -0.000007
      9          7           0        3.427524   -0.709384    0.000002
     10          1           0       -0.952242    2.855515   -0.000011
     11          1           0        1.437181    2.143928   -0.000003
     12          1           0        0.167692   -1.979952   -0.000026
     13          1           0       -2.756714    1.163759    0.000020
     14          1           0       -3.230739   -1.097705   -0.000306
 ---------------------------------------------------------------------
 Rotational constants (GHZ):      3.4092717      1.2088854      0.8924380
 Standard basis: 6-31+G(d) (6D, 7F)
 There are   181 symmetry adapted cartesian basis functions of A   symmetry.
 There are   181 symmetry adapted basis functions of A   symmetry.
   181 basis functions,   308 primitive gaussians,   181 cartesian basis functions
    31 alpha electrons       31 beta electrons
       nuclear repulsion energy       376.8579995161 Hartrees.
 NAtoms=   14 NActive=   14 NUniq=   14 SFac= 1.00D+00 NAtFMM=   60 NAOKFM=F Big=F
 Integral buffers will be    131072 words long.
 Raffenetti 2 integral format.
 Two-electron integral symmetry is turned on.
 One-electron integrals computed using PRISM.
 NBasis=   181 RedAO= T EigKep=  3.69D-06  NBF=   181
 NBsUse=   181 1.00D-06 EigRej= -1.00D+00 NBFU=   181
 Initial guess from the checkpoint file:  "/srv/scratch/z5358697/gauss/Gau-2619546.chk"
 B after Tr=     0.000000    0.000000    0.000000
         Rot=    1.000000    0.000000    0.000000    0.000166 Ang=   0.02 deg.
 Requested convergence on RMS density matrix=1.00D-08 within 128 cycles.
 Requested convergence on MAX density matrix=1.00D-06.
 Requested convergence on             energy=1.00D-06.
 No special actions if energy rises.
 SCF Done:  E(RM062X) =  -399.558854877     A.U. after   11 cycles
            NFock= 11  Conv=0.73D-08     -V/T= 2.0086
 Calling FoFJK, ICntrl=      2127 FMM=F ISym2X=0 I1Cent= 0 IOpClX= 0 NMat=1 NMatS=1 NMatT=0.
 ***** Axes restored to original set *****
 -------------------------------------------------------------------
 Center     Atomic                   Forces (Hartrees/Bohr)
 Number     Number              X              Y              Z
 -------------------------------------------------------------------
      1        6           0.000399941   -0.000213303   -0.000164425
      2        6          -0.000194750    0.000112441   -0.000237592
      3        6          -0.000103310    0.000045823    0.000460424
      4        6           0.000228403   -0.000121576   -0.000134964
      5        6          -0.000125928    0.000067926   -0.000047318
      6        6          -0.000199251    0.000097253    0.000350130
      7        8          -0.000024209    0.000008465    0.000062026
      8        6           0.000029608   -0.000005428   -0.000348611
      9        7           0.000008133   -0.000007378    0.000080995
     10        1          -0.000040622    0.000021846    0.000017354
     11        1           0.000001400    0.000000950   -0.000052534
     12        1          -0.000033198    0.000018490    0.000016008
     13        1           0.000012711   -0.000005972   -0.000019571
     14        1           0.000041071   -0.000019539    0.000018075
 -------------------------------------------------------------------
 Cartesian Forces:  Max     0.000460424 RMS     0.000153327

 GradGradGradGradGradGradGradGradGradGradGradGradGradGradGradGradGradGrad
 Berny optimization.
 Using GEDIIS/GDIIS optimizer.
 FormGI is forming the generalized inverse of G from B-inverse, IUseBI=4.
 Internal  Forces:  Max     0.000292066 RMS     0.000074742
 Search for a local minimum.
 Step number   4 out of a maximum of   71
 All quantities printed in internal units (Hartrees-Bohrs-Radians)
 Mixed Optimization -- En-DIIS/RFO-DIIS
 Swapping is turned off.
 Update second derivatives using D2CorX and points    1    2    3    4
 DE= -2.80D-06 DEPred=-4.02D-06 R= 6.97D-01
 TightC=F SS=  1.41D+00  RLast= 8.11D-03 DXNew= 5.0454D-01 2.4334D-02
 Trust test= 6.97D-01 RLast= 8.11D-03 DXMaxT set to 3.00D-01
 ITU=  1  1  1  0
     Eigenvalues ---    0.02156   0.02156   0.02156   0.02156   0.02156
     Eigenvalues ---    0.02157   0.02157   0.02157   0.02166   0.02207
     Eigenvalues ---    0.04841   0.06977   0.12788   0.15976   0.16000
     Eigenvalues ---    0.16099   0.16984   0.21059   0.22717   0.23667
     Eigenvalues ---    0.25612   0.26212   0.33794   0.35071   0.35113
     Eigenvalues ---    0.35244   0.36003   0.41171   0.42269   0.42452
     Eigenvalues ---    0.46472   0.46844   0.50511   0.53208   0.54824
     Eigenvalues ---    1.26627
 En-DIIS/RFO-DIIS IScMMF=        0 using points:     4    3    2
 RFO step:  Lambda=-7.03956113D-07.
 DidBck=F Rises=F RFO-DIIS coefs:    0.92724    0.09162   -0.01886
 Iteration  1 RMS(Cart)=  0.00063455 RMS(Int)=  0.00000098
 Iteration  2 RMS(Cart)=  0.00000100 RMS(Int)=  0.00000001
 Variable       Old X    -DE/DX   Delta X   Delta X   Delta X     New X
                                 (Linear)    (Quad)   (Total)
    R1        2.62703  -0.00024   0.00008  -0.00076  -0.00068   2.62635
    R2        2.63217   0.00029  -0.00008   0.00081   0.00074   2.63291
    R3        2.05136  -0.00002  -0.00002   0.00007   0.00005   2.05141
    R4        2.64595   0.00019  -0.00007   0.00064   0.00057   2.64652
    R5        2.04909   0.00003  -0.00002   0.00006   0.00004   2.04913
    R6        2.63703  -0.00011   0.00007  -0.00060  -0.00053   2.63650
    R7        2.72511  -0.00010   0.00006  -0.00016  -0.00010   2.72500
    R8        2.63316   0.00007   0.00001   0.00044   0.00045   2.63362
    R9        2.04970   0.00002  -0.00002   0.00006   0.00003   2.04973
   R10        2.63842  -0.00008   0.00001  -0.00043  -0.00041   2.63801
   R11        2.56896   0.00001   0.00006  -0.00016  -0.00009   2.56887
   R12        2.05566   0.00000   0.00003  -0.00013  -0.00010   2.05556
   R13        1.82894  -0.00002   0.00002  -0.00004  -0.00002   1.82891
   R14        2.18714   0.00005  -0.00003   0.00011   0.00009   2.18723
    A1        2.10698  -0.00006   0.00009  -0.00029  -0.00020   2.10678
    A2        2.09121   0.00005  -0.00005   0.00043   0.00038   2.09158
    A3        2.08500   0.00002  -0.00003  -0.00014  -0.00017   2.08482
    A4        2.07184   0.00003  -0.00004   0.00005   0.00001   2.07185
    A5        2.11689  -0.00003   0.00008   0.00009   0.00017   2.11706
    A6        2.09446   0.00000  -0.00004  -0.00014  -0.00018   2.09428
    A7        2.11737   0.00000  -0.00002   0.00021   0.00019   2.11756
    A8        2.08650  -0.00012  -0.00001  -0.00044  -0.00045   2.08605
    A9        2.07932   0.00012   0.00004   0.00022   0.00026   2.07958
   A10        2.07805   0.00004   0.00004  -0.00014  -0.00010   2.07794
   A11        2.11647   0.00005  -0.00007   0.00065   0.00058   2.11705
   A12        2.08867  -0.00008   0.00003  -0.00050  -0.00048   2.08819
   A13        2.09857  -0.00006  -0.00002  -0.00008  -0.00010   2.09848
   A14        2.04078   0.00005  -0.00002   0.00007   0.00005   2.04083
   A15        2.14383   0.00001   0.00004   0.00001   0.00005   2.14388
   A16        2.09356   0.00006  -0.00004   0.00024   0.00020   2.09376
   A17        2.09736  -0.00008   0.00007  -0.00049  -0.00042   2.09694
   A18        2.09226   0.00003  -0.00003   0.00025   0.00022   2.09249
   A19        1.92617  -0.00007   0.00028  -0.00081  -0.00052   1.92564
   A20        3.14998  -0.00024  -0.00066  -0.00253  -0.00319   3.14679
   A21        3.14160   0.00000   0.00000  -0.00001  -0.00001   3.14159
    D1        0.00003   0.00000  -0.00001  -0.00001  -0.00002   0.00002
    D2       -3.14158   0.00000   0.00000  -0.00001  -0.00001  -3.14159
    D3       -3.14158   0.00000  -0.00001   0.00001   0.00000  -3.14158
    D4       -0.00001   0.00000   0.00000   0.00000   0.00000   0.00000
    D5       -0.00002   0.00000   0.00000   0.00002   0.00001  -0.00001
    D6        3.14158   0.00000  -0.00001   0.00001   0.00001   3.14159
    D7        3.14159   0.00000   0.00000   0.00000   0.00000   3.14159
    D8        0.00001   0.00000   0.00000  -0.00001  -0.00001   0.00000
    D9       -0.00002   0.00000   0.00001   0.00001   0.00002  -0.00001
   D10        3.14159   0.00000   0.00001  -0.00002  -0.00001   3.14158
   D11        3.14159   0.00000   0.00000   0.00001   0.00001  -3.14159
   D12        0.00002   0.00000   0.00000  -0.00001  -0.00001   0.00000
   D13        0.00000   0.00000   0.00000  -0.00001  -0.00001  -0.00001
   D14        3.14158   0.00000   0.00000   0.00001   0.00001   3.14158
   D15        3.14158   0.00000   0.00000   0.00001   0.00001   3.14159
   D16       -0.00004   0.00000   0.00000   0.00003   0.00003  -0.00001
   D17        0.00001   0.00000  -0.00001   0.00002   0.00001   0.00001
   D18       -3.14159   0.00000   0.00002  -0.00002   0.00001  -3.14158
   D19       -3.14156   0.00000  -0.00001   0.00000  -0.00001  -3.14157
   D20        0.00002   0.00000   0.00002  -0.00003  -0.00001   0.00001
   D21        0.00000   0.00000   0.00001  -0.00002  -0.00001  -0.00001
   D22        3.14158   0.00000   0.00002  -0.00002   0.00000   3.14158
   D23       -3.14158   0.00000  -0.00002   0.00001  -0.00001   3.14159
   D24        0.00000   0.00000  -0.00002   0.00002   0.00000  -0.00001
   D25       -3.14121   0.00000  -0.00001  -0.00014  -0.00015  -3.14136
   D26        0.00038   0.00000   0.00002  -0.00017  -0.00015   0.00023
         Item               Value     Threshold  Converged?
 Maximum Force            0.000292     0.000450     YES
 RMS     Force            0.000075     0.000300     YES
 Maximum Displacement     0.003275     0.001800     NO 
 RMS     Displacement     0.000635     0.001200     YES
 Predicted change in Energy=-8.387247D-07
 GradGradGradGradGradGradGradGradGradGradGradGradGradGradGradGradGradGrad

                          Input orientation:                          
 ---------------------------------------------------------------------
 Center     Atomic      Atomic             Coordinates (Angstroms)
 Number     Number       Type             X           Y           Z
 ---------------------------------------------------------------------
      1          6           0        1.893000   -1.040261   -0.122122
      2          6           0        2.928325   -1.634472    0.589620
      3          6           0        2.864342   -1.643681    1.988607
      4          6           0        1.789158   -1.071779    2.669362
      5          6           0        0.761259   -0.480984    1.936802
      6          6           0        0.811849   -0.464520    0.541844
      7          8           0       -0.264656    0.062901    2.643641
      8          6           0        3.929020   -2.255519    2.744585
      9          7           0        4.786406   -2.748004    3.346243
     10          1           0        1.923848   -1.022766   -1.207102
     11          1           0        3.774237   -2.085340    0.082697
     12          1           0        1.740083   -1.079190    3.752897
     13          1           0        0.006501   -0.001895   -0.024376
     14          1           0       -0.921371    0.444309    2.043703
 ---------------------------------------------------------------------
                    Distance matrix (angstroms):
                    1          2          3          4          5
     1  C    0.000000
     2  C    1.389807   0.000000
     3  C    2.400583   1.400480   0.000000
     4  C    2.793593   2.437140   1.395177   0.000000
     5  C    2.415118   2.800287   2.403644   1.393649   0.000000
     6  C    1.393275   2.418789   2.774215   2.418725   1.395972
     7  O    3.677212   4.158750   3.623826   2.346553   1.359387
     8  C    3.720247   2.455802   1.442008   2.446612   3.719704
     9  N    4.828845   3.505908   2.599430   3.500200   4.829877
    10  H    1.085560   2.147410   3.388602   3.879113   3.395479
    11  H    2.161757   1.084352   2.157652   3.414481   3.884546
    12  H    3.878230   3.424409   2.166870   1.084671   2.148057
    13  H    2.155606   3.402845   3.861971   3.402755   2.155320
    14  H    3.849081   4.610406   4.323697   3.168113   1.923237
                    6          7          8          9         10
     6  C    0.000000
     7  O    2.419625   0.000000
     8  C    4.216219   4.792930   0.000000
[...]
   D25       -3.14136   0.00000   0.00000  -0.00022  -0.00022  -3.14158
   D26        0.00023   0.00000   0.00000  -0.00021  -0.00021   0.00002
         Item               Value     Threshold  Converged?
 Maximum Force            0.000067     0.000450     YES
 RMS     Force            0.000026     0.000300     YES
 Maximum Displacement     0.001380     0.001800     YES
 RMS     Displacement     0.000297     0.001200     YES
 Predicted change in Energy=-1.000203D-07
 Optimization completed.
    -- Stationary point found.
                           ----------------------------
                           !   Optimized Parameters   !
                           ! (Angstroms and Degrees)  !
 --------------------------                            --------------------------
 ! Name  Definition              Value          Derivative Info.                !
 --------------------------------------------------------------------------------
 ! R1    R(1,2)                  1.3898         -DE/DX =    0.0                 !
 ! R2    R(1,6)                  1.3933         -DE/DX =    0.0001              !
 ! R3    R(1,10)                 1.0856         -DE/DX =    0.0                 !
 ! R4    R(2,3)                  1.4005         -DE/DX =    0.0                 !
 ! R5    R(2,11)                 1.0844         -DE/DX =    0.0                 !
 ! R6    R(3,4)                  1.3952         -DE/DX =    0.0                 !
 ! R7    R(3,8)                  1.442          -DE/DX =   -0.0001              !
 ! R8    R(4,5)                  1.3936         -DE/DX =    0.0                 !
 ! R9    R(4,12)                 1.0847         -DE/DX =    0.0                 !
 ! R10   R(5,6)                  1.396          -DE/DX =    0.0                 !
 ! R11   R(5,7)                  1.3594         -DE/DX =    0.0001              !
 ! R12   R(6,13)                 1.0878         -DE/DX =    0.0                 !
 ! R13   R(7,14)                 0.9678         -DE/DX =    0.0                 !
 ! R14   R(8,9)                  1.1574         -DE/DX =   -0.0001              !
 ! A1    A(2,1,6)              120.7095         -DE/DX =    0.0                 !
 ! A2    A(2,1,10)             119.8389         -DE/DX =    0.0                 !
 ! A3    A(6,1,10)             119.4516         -DE/DX =    0.0                 !
 ! A4    A(1,2,3)              118.7081         -DE/DX =    0.0                 !
 ! A5    A(1,2,11)             121.2987         -DE/DX =    0.0                 !
 ! A6    A(3,2,11)             119.9932         -DE/DX =    0.0                 !
 ! A7    A(2,3,4)              121.3274         -DE/DX =   -0.0001              !
 ! A8    A(2,3,8)              119.5217         -DE/DX =    0.0                 !
 ! A9    A(4,3,8)              119.151          -DE/DX =    0.0001              !
 ! A10   A(3,4,5)              119.0575         -DE/DX =    0.0001              !
 ! A11   A(3,4,12)             121.298          -DE/DX =    0.0                 !
 ! A12   A(5,4,12)             119.6445         -DE/DX =    0.0                 !
 ! A13   A(4,5,6)              120.2339         -DE/DX =    0.0                 !
 ! A14   A(4,5,7)              116.9311         -DE/DX =    0.0                 !
 ! A15   A(6,5,7)              122.835          -DE/DX =    0.0                 !
 ! A16   A(1,6,5)              119.9638         -DE/DX =    0.0                 !
 ! A17   A(1,6,13)             120.1456         -DE/DX =    0.0                 !
 ! A18   A(5,6,13)             119.8907         -DE/DX =    0.0                 !
 ! A19   A(5,7,14)             110.3313         -DE/DX =    0.0                 !
 ! A20   L(3,8,9,12,-1)        180.2978         -DE/DX =    0.0                 !
 ! A21   L(3,8,9,12,-2)        180.0001         -DE/DX =    0.0                 !
 ! D1    D(6,1,2,3)              0.0009         -DE/DX =    0.0                 !
 ! D2    D(6,1,2,11)          -179.9999         -DE/DX =    0.0                 !
 ! D3    D(10,1,2,3)          -179.9994         -DE/DX =    0.0                 !
 ! D4    D(10,1,2,11)           -0.0002         -DE/DX =    0.0                 !
 ! D5    D(2,1,6,5)             -0.0005         -DE/DX =    0.0                 !
 ! D6    D(2,1,6,13)           179.9997         -DE/DX =    0.0                 !
 ! D7    D(10,1,6,5)           179.9998         -DE/DX =    0.0                 !
 ! D8    D(10,1,6,13)            0.0            -DE/DX =    0.0                 !
 ! D9    D(1,2,3,4)             -0.0004         -DE/DX =    0.0                 !
 ! D10   D(1,2,3,8)            179.9994         -DE/DX =    0.0                 !
 ! D11   D(11,2,3,4)           180.0003         -DE/DX =    0.0                 !
 ! D12   D(11,2,3,8)             0.0002         -DE/DX =    0.0                 !
 ! D13   D(2,3,4,5)             -0.0004         -DE/DX =    0.0                 !
 ! D14   D(2,3,4,12)           179.9993         -DE/DX =    0.0                 !
 ! D15   D(8,3,4,5)           -180.0003         -DE/DX =    0.0                 !
 ! D16   D(8,3,4,12)            -0.0006         -DE/DX =    0.0                 !
 ! D17   D(3,4,5,6)              0.0008         -DE/DX =    0.0                 !
 ! D18   D(3,4,5,7)           -179.9994         -DE/DX =    0.0                 !
 ! D19   D(12,4,5,6)          -179.9989         -DE/DX =    0.0                 !
 ! D20   D(12,4,5,7)             0.0009         -DE/DX =    0.0                 !
 ! D21   D(4,5,6,1)             -0.0004         -DE/DX =    0.0                 !
 ! D22   D(4,5,6,13)          -180.0006         -DE/DX =    0.0                 !
 ! D23   D(7,5,6,1)            179.9999         -DE/DX =    0.0                 !
 ! D24   D(7,5,6,13)            -0.0004         -DE/DX =    0.0                 !
 ! D25   D(4,5,7,14)          -179.9865         -DE/DX =    0.0                 !
 ! D26   D(6,5,7,14)             0.0132         -DE/DX =    0.0                 !
 --------------------------------------------------------------------------------
 GradGradGradGradGradGradGradGradGradGradGradGradGradGradGradGradGradGrad

 1\1\GINC-KATANA2\Freq\RM062X\6-31+G(d)\C7H5N1O1\Z5358697\21-Mar-2025\0
 \\#N Geom=AllCheck Guess=TCheck SCRF=Check GenChk RM062X/6-31+G(d) Fre
 q\\3-hydroxybenzonitrile\\0,1\C,1.8929995644,-1.0402606653,-0.12212217
 42\C,2.9283249441,-1.6344718334,0.5896197474\C,2.8643418701,-1.6436806
 889,1.9886069877\C,1.7891575913,-1.071779172,2.6693620132\C,0.76125902
 95,-0.4809843075,1.9368019838\C,0.8118489579,-0.4645197041,0.541843916
 \O,-0.2646556702,0.062901088,2.6436413666\C,3.9290203751,-2.2555187083
 ,2.7445847293\N,4.7864062579,-2.7480039539,3.3462429328\H,1.9238477721
 ,-1.0227664509,-1.2071023375\H,3.7742365989,-2.0853397795,0.0826970481
 \H,1.7400830091,-1.0791898585,3.7528968802\H,0.0065006013,-0.001895248
 2,-0.0243761171\H,-0.9213709014,0.4443092826,2.0437030237\\Version=ES6
 4L-G09RevD.01\State=1-A\HF=-399.5588561\RMSD=4.633e-09\RMSF=4.995e-05\
 ZeroPoint=0.1045581\Thermal=0.1117252\Dipole=-1.5625526,0.9084754,-1.4
 455509\DipoleDeriv=0.0431276,-0.0946389,0.1333603,-0.0890162,-0.068854
 6,-0.0822116,-0.0433998,0.0153772,0.1491553,-0.119324,0.0005259,-0.127
 2411,-0.0036907,-0.1260092,0.0734549,0.0052053,0.000331,-0.2264045,0.1
 289356,-0.0362097,-0.1544465,-0.0397804,0.0739363,0.0775457,-0.0422222
 ,0.0155895,0.2969949,-0.268524,0.0664967,0.2589166,0.0796497,-0.172431
 5,-0.1471275,-0.1548185,0.0812721,-0.0012916,1.0788029,-0.512119,-0.59
 12467,-0.5127919,0.3899558,0.3215438,-0.5702234,0.3099375,0.2694648,-0
 .1415987,-0.0124714,-0.0291112,-0.022681,-0.1537734,0.0138072,0.292228
 5,-0.163594,-0.0947493,-1.1756793,0.4134637,0.4795457,0.4120201,-0.618
 2274,-0.262952,0.5262857,-0.2887279,-0.4544351,0.2619816,-0.0855482,0.
 1503093,-0.0854968,0.1655597,-0.0838806,0.1486809,-0.0829769,0.1438287
 ,-0.3951769,0.0515676,-0.0749648,0.0515252,-0.3358847,0.042378,-0.0736
 074,0.0416265,-0.3372141,0.0837723,0.0313525,0.0030603,0.0314749,0.123
 2149,0.0047053,-0.0008636,0.006872,-0.0602268,0.0348865,0.064824,0.033
 3608,0.065001,0.1188404,-0.0155028,0.0278533,-0.0124589,0.0625566,0.10
 60806,0.0289974,0.0036324,0.0289756,0.1427416,0.0023459,0.0043119,0.00
 19693,0.0221978,-0.0238737,0.0985594,-0.0460965,0.0982704,0.0968419,0.
 0285144,-0.0370032,0.0234979,0.0556003,0.3865895,-0.0148,-0.0390787,-0
 .0134599,0.3640904,0.0273793,-0.0824275,0.0512846,0.174523\Polar=100.1
 505855,-30.3506194,62.7481119,10.2378921,-7.1932446,94.1921048\PG=C01 
 [X(C7H5N1O1)]\NImag=0\\0.56644308,-0.23679608,0.26833636,-0.00716681,-
 0.01599961,0.76425363,-0.24165186,0.10299593,-0.11899159,0.61613401,0.
 10091421,-0.11987635,0.06982390,-0.26820693,0.27648968,-0.05357491,0.0
 3370916,-0.19183365,-0.03261373,0.00016955,0.68882622,0.03002370,-0.01
 269056,-0.02101894,-0.10885015,0.02627511,-0.00980994,0.56762614,-0.01
 101075,0.01149765,0.01274657,0.02443927,-0.07575911,0.01398312,-0.2357
 1756,0.27061037,-0.07378665,0.04187825,-0.03008244,0.04786322,-0.01785
 648,-0.33096793,-0.00966982,-0.01203821,0.68598143,-0.05803451,0.03114
 714,-0.00571034,0.02572177,-0.01239949,0.07422312,-0.23799565,0.097841
 72,0.06388674,0.57541852,0.03098881,-0.01915310,0.00316046,-0.01086983
 ,0.01481687,-0.04004911,0.09606484,-0.10912672,-0.03116099,-0.24734484
 ,0.26309133,-0.00074267,0.00041832,-0.00220569,0.02615806,-0.01351461,
 -0.02156440,0.11972265,-0.06198620,-0.18614900,-0.01995213,-0.00958586
 ,0.77324438,0.03189485,-0.01909567,0.02997445,-0.01302732,0.00650957,-
 0.03459968,-0.04672906,0.02488920,0.02425783,-0.21328694,0.08527584,-0
 .12272288,0.60283077,-0.02085934,0.01105623,-0.01592746,0.00649615,-0.
 00749023,0.02113623,0.02662364,-0.01444010,-0.01586360,0.08300350,-0.1
 1401956,0.07214873,-0.24676647,0.29264903,0.08536981,-0.04650877,-0.02
 046964,-0.03417972,0.02090340,-0.06713991,-0.03023079,0.01421757,0.077
 39319,-0.05138879,0.03276849,-0.20405612,0.00018485,-0.01817603,0.7239
 4944,-0.25191130,0.10360388,0.11908203,-0.04351708,0.02822224,-0.02727
 211,-0.01746026,0.00712729,0.03108559,0.03404655,-0.01541118,-0.020518
 83,-0.11869129,0.03199330,-0.04559314,0.60802150,0.10570337,-0.1137722
 6,-0.06172559,0.02662095,-0.00907866,0.01299714,0.00728806,-0.00628885
 ,-0.01546080,-0.01403160,0.01230479,0.01221654,0.02951298,-0.08073199,
 0.03366622,-0.26734275,0.27248612,0.05312902,-0.02531560,-0.18356389,0
 .02303955,-0.01477813,0.07072063,0.02603210,-0.01267038,-0.05619183,-0
 .06385054,0.03613828,-0.02295925,0.03230759,-0.00934021,-0.33036426,0.
 00723389,-0.02241082,0.70294556,0.00164762,0.00347665,-0.00204528,-0.0
 0326041,0.00083128,0.00523697,0.00483614,0.00035989,-0.00640842,-0.045
 91652,0.02850533,0.01825885,-0.22058001,0.09429508,0.11339737,-0.00740
 669,0.00866931,0.01269664,0.50861930,0.00373958,0.00571518,0.00151432,
 0.00082613,-0.00181048,-0.00307945,0.00018541,0.00489103,0.00397651,0.
 02958278,-0.00922554,-0.01052227,0.09575466,-0.09424164,-0.05848692,0.
 00757553,0.00502812,-0.00575544,-0.26750035,0.17792852,-0.01027263,0.0
 0605536,-0.00425852,0.00540596,-0.00317139,0.00442092,-0.00096485,0.00
 097143,-0.00864320,-0.01556225,0.00814807,0.02072222,0.06713487,-0.032
 95426,-0.17272604,0.04701948,-0.02470479,-0.03037257,0.07938245,-0.056
 36784,0.42533631,0.00611889,0.00072901,0.00099122,-0.00180794,0.002357
 08,-0.01654160,-0.19437867,0.07753146,-0.08161591,-0.03237852,0.019088
 25,-0.01534850,-0.00009975,0.00456451,0.00652786,-0.00103675,-0.000192
 60,0.00091206,-0.00041551,0.00040262,-0.00154774,0.95614057,0.00069170
 ,0.00711713,-0.00007940,0.00286043,-0.00038666,0.00990836,0.07753270,-
 0.10296893,0.04773978,0.01857665,-0.00919923,0.00804471,0.00464147,0.0
 0609067,-0.00341175,-0.00020179,-0.00120611,-0.00048599,0.00031826,0.0
 0002171,0.00086284,-0.49758189,0.37459829,0.00216689,-0.00072851,-0.00
 719835,-0.03235293,0.01863757,-0.02289133,-0.08166320,0.04776571,-0.14
 290185,0.00073113,-0.00083251,0.01478101,0.00410109,-0.00207186,0.0025
 0466,0.00119707,-0.00064338,-0.00188012,0.00111121,-0.00060492,-0.0000
 3583,0.59300800,-0.34166542,0.53782197,-0.00127592,0.00004535,-0.00118
 572,-0.00183663,0.00154427,0.00614137,-0.00130941,0.01049846,-0.014656
 45,0.00507801,-0.00196346,-0.00188806,-0.00011524,-0.00071089,-0.00133
 979,0.00038459,-0.00003802,-0.00006485,-0.00063720,0.00031633,0.000377
 90,-0.73162884,0.39780772,-0.48788798,0.73150644,0.00002485,-0.0012947
 7,0.00059349,0.00167979,0.00049758,-0.00346301,0.01050438,0.01079858,0
 .00830841,-0.00209004,0.00252675,0.00124199,-0.00073098,-0.00109922,0.
 00071499,-0.00003369,0.00032975,0.00002618,0.00035304,-0.00023030,-0.0
 0021715,0.39780570,-0.26771452,0.28021387,-0.40805134,0.25569693,-0.00
 054259,0.00023845,0.00065722,0.00188374,-0.00111255,0.00359622,-0.0148
 4100,0.00841029,0.01004208,0.00208549,-0.00095160,-0.00485975,-0.00070
 584,0.00036493,-0.00070352,-0.00020008,0.00010084,0.00061341,-0.000774
 53,0.00041901,0.00022410,-0.48782489,0.28017905,-0.38059066,0.50111625
 ,-0.28778003,0.37094576,-0.05526037,0.00856067,0.00870386,0.00568557,-
 0.00011887,-0.02419368,-0.00161320,0.00482030,-0.00231813,-0.00122071,
 0.00011373,0.00012169,-0.00196302,0.00516042,0.00154537,0.00349498,-0.
 00067648,0.02522455,-0.00026128,-0.00000632,0.00158467,0.00035136,0.00
 003035,-0.00127981,-0.00035219,0.00011477,0.00005784,0.05154030,0.0085
 6090,-0.04414077,0.00511730,-0.00096828,0.00416988,0.01383860,0.004822
 74,0.00427488,0.00148615,0.00011798,-0.00106900,-0.00012103,0.00514523
 ,0.00465382,-0.00065725,0.00016759,0.00406060,-0.01349327,0.00003599,-
 0.00017394,-0.00085269,-0.00001486,0.00031720,0.00073806,0.00012210,-0
 .00020722,-0.00003581,-0.01317313,0.03458646,0.00869365,0.00512288,-0.
 35107465,0.00249980,-0.00089780,-0.01107855,-0.00239529,0.00152869,0.0
 0049960,-0.00001578,-0.00004518,0.00068553,0.00202295,-0.00092114,0.00
 132285,-0.00129256,0.00114604,-0.00986571,0.00025929,-0.00012098,-0.00
 087626,0.00013978,-0.00004562,-0.00065870,-0.00017261,0.00009141,-0.00
 001907,-0.00945906,-0.00568049,0.36975802,-0.01219508,0.00800171,0.012
 43807,-0.23131598,0.10542654,0.10750465,0.00290212,-0.00028386,-0.0023
 4526,0.00254523,0.00187442,-0.00034761,-0.00020936,-0.00009553,-0.0007
 6014,-0.00021168,0.00405336,-0.00318474,0.00009325,-0.00047443,0.00008
 743,-0.00021027,-0.00205719,-0.00022967,0.00006553,0.00017854,0.000142
 94,-0.00033172,-0.00217258,-0.00013056,0.23921417,0.00885552,-0.001644
 49,-0.00717581,0.10547838,-0.09058390,-0.05653703,-0.00115744,0.002837
 70,0.00169928,0.00191014,0.00484822,0.00055338,-0.00009829,-0.00038590
 ,0.00043760,0.00403615,0.00465427,0.00202730,-0.00047220,-0.00049757,-
 0.00008557,-0.00210678,-0.00278613,-0.00001936,0.00019890,0.00028952,-
 0.00006755,-0.00218905,-0.00306342,-0.00008517,-0.11507178,0.08586380,
 -0.01439732,0.00763908,0.01273188,0.10588448,-0.05564245,-0.12254124,0
 .02510141,-0.01345318,-0.01045705,-0.00147346,0.00117483,-0.00543344,-
 0.00067407,0.00039011,-0.00099161,-0.00264082,0.00172709,-0.00151208,0
 .00002369,-0.00005042,0.00041342,0.00132855,-0.00087961,0.00064247,-0.
 00049720,0.00028585,0.00004018,0.00038732,-0.00037108,0.00066718,-0.11
 358435,0.05945490,0.12639154,-0.00111580,0.00016831,0.00006023,-0.0022
 6811,0.00481866,0.00140097,0.00284344,-0.00100300,0.02469675,-0.054350
 47,0.00960484,0.01156947,0.00670091,0.00032682,-0.02390877,-0.00240190
 ,0.00440874,-0.00177856,0.00070284,-0.00233688,0.00065712,0.00000730,-
 0.00244514,0.00111719,0.00001575,0.00025843,-0.00041341,-0.00007637,-0
 .00036275,0.00000379,0.00028018,0.00015074,0.00126599,0.04960403,0.000
 19261,-0.00091119,-0.00008297,0.00479114,0.00391554,-0.00061369,-0.000
 17625,0.00297131,-0.01328631,0.00960444,-0.04170701,0.00374625,-0.0005
 3998,0.00577376,0.01376068,0.00442189,0.00300329,0.00116334,-0.0023394
 0,-0.00218499,-0.00049788,-0.00239991,-0.00300788,-0.00077032,0.000240
 54,0.00031953,0.00024174,-0.00036246,-0.00053237,-0.00002381,0.0001942
 4,0.00054018,-0.00066682,-0.01307003,0.03247357,-0.00070593,0.00034002
 ,0.00075380,0.00226488,-0.00109058,0.00152482,-0.00126581,0.00104677,-
 0.00848008,0.01156903,0.00374643,-0.35450956,0.00332485,-0.00127408,-0
 .01172004,-0.00219091,0.00139116,-0.00022329,0.00073925,-0.00054330,0.
 00075420,-0.00030243,0.00001339,0.00046491,0.00014872,-0.00006860,0.00
 003611,-0.00000528,-0.00001882,-0.00005059,-0.00010094,0.00008784,-0.0
 0038187,-0.01360096,-0.00354260,0.37220049,-0.01353794,0.00960187,-0.0
 1469979,-0.00078903,0.00419164,0.00373920,0.00002166,-0.00038618,0.000
 65979,0.00238871,0.00171300,0.00073366,0.00181675,0.00147525,0.0032859
 9,-0.20717479,0.09846700,-0.10970960,0.00168449,-0.00304743,-0.0000070
 6,-0.00018114,-0.00037568,-0.00003551,-0.00003095,0.00007436,-0.000055
 79,-0.00020664,-0.00217707,0.00000832,-0.00066018,0.00052122,-0.000802
 18,0.00006428,-0.00019484,0.00008742,0.21649054,0.00875334,-0.00207346
 ,0.00780269,0.00421043,0.00475254,-0.00181963,-0.00040282,-0.00040629,
 -0.00035116,0.00169749,0.00459805,-0.00004001,0.00237363,0.00341042,-0
 .00133482,0.09847039,-0.09153311,0.06388449,-0.00302419,-0.00216053,-0
 .00020220,-0.00037553,-0.00065611,-0.00000779,0.00007300,0.00005917,0.
 00003298,-0.00216460,-0.00294951,-0.00015904,0.00047532,-0.00003852,0.
 00043423,-0.00015008,-0.00019942,-0.00004116,-0.11012712,0.08678658,0.
 01195988,-0.00691523,0.01283036,0.00314878,-0.00149386,-0.00066437,0.0
 0118551,-0.00064126,-0.00105413,0.00122033,-0.00030865,-0.00593977,-0.
 02496295,0.01426000,-0.01036436,-0.10980126,0.06393540,-0.13939627,-0.
 00072172,0.00019190,0.00264823,-0.00004070,-0.00000488,-0.00000355,-0.
 00001316,0.00000944,0.00003202,-0.00038307,0.00005701,0.00070485,0.000
 63988,-0.00036186,0.00050861,-0.00131946,0.00073556,-0.00050770,0.1177
 9957,-0.06881131,0.14251109,-0.00114537,0.00025182,-0.00043136,0.00078
 316,-0.00036531,0.00035937,0.00008320,0.00089376,-0.00164927,-0.002015
 46,0.00236026,0.00495629,-0.02854128,0.01449355,-0.02291011,0.00386413
 ,-0.00244231,-0.00198710,-0.23910601,0.13498238,-0.17329536,-0.0004807
 3,0.00020241,0.00001653,0.00013605,-0.00008782,0.00007187,0.00021329,-
 0.00010385,-0.00016174,0.00003379,-0.00005549,0.00007795,-0.00000607,-
 0.00036198,0.00003811,0.00011422,0.00019073,0.00128837,0.26606708,0.00
 024128,-0.00085616,0.00023209,-0.00035356,0.00034332,-0.00018023,0.000
 84776,0.00110848,0.00092916,0.00238415,0.00131416,-0.00259994,0.013128
 81,-0.01122529,0.01210659,-0.00262885,0.00074404,0.00101024,0.13649131
 ,-0.08305956,0.10301607,0.00019294,-0.00021941,-0.00001114,-0.00008297
 ,0.00002822,-0.00003975,-0.00010932,0.00007339,0.00009020,-0.00004875,
 -0.00003376,-0.00004254,-0.00036866,-0.00045432,-0.00004647,0.00026398
 ,0.00041017,-0.00065225,-0.14995814,0.09182672,-0.00012975,0.00006621,
 -0.00054007,-0.00001049,0.00002341,-0.00040744,-0.00018202,0.00011908,
 0.00101120,0.00423744,-0.00220266,-0.00175616,0.02035694,-0.01177137,0
 .01336536,0.00389165,-0.00223506,0.00204967,-0.22115577,0.12942980,-0.
 23760698,0.00031433,-0.00017546,-0.00005464,-0.00007843,0.00004317,-0.
 00001411,0.00001374,-0.00000667,-0.00001451,-0.00012971,0.00007206,-0.
 00007798,0.00024964,-0.00016318,0.00013880,-0.00100402,0.00061274,-0.0
 0130501,0.19362645,-0.11381206,0.22521189\\-0.00005483,0.00002581,0.00
 012129,0.00007566,-0.00004089,0.00000675,-0.00010519,0.00006139,-0.000
 12627,0.00000208,-0.00000593,0.00011406,-0.00001973,0.00001400,-0.0000
 3794,0.00001004,-0.00000160,-0.00010745,0.00002753,-0.00001158,-0.0000
 4870,-0.00001224,0.00000643,0.00001102,0.00002040,-0.00001415,0.000092
 10,0.00003261,-0.00001694,-0.00003743,0.00000950,-0.00000691,0.0000466
 4,-0.00001569,0.00000859,-0.00000751,0.00002710,-0.00001587,0.00001832
 ,0.00000276,-0.00000235,-0.00004488\\\@


 THOSE WHO ARE UNABLE TO LEARN FROM PAST MEETINGS
 ARE CONDEMNED TO REPEAT THEM.
 Job cpu time:       0 days  0 hours  6 minutes  5.6 seconds.
 File lengths (MBytes):  RWF=    134 Int=      0 D2E=      0 Chk=      4 Scr=      2
 Normal termination of Gaussian 09 at Fri Mar 21 12:16:25 2025.
