 Entering Gaussian System, Link 0=g09
 Initial command:
 /apps/z_install_tree/linux-rocky8-ivybridge/gcc-12.2.0/gaussian-09-D.01-wczn3gur5lpur3omlkzwa2l5ecyxp5ef/g09/l1.exe "/srv/scratch/z5358697/gauss/Gau-1287419.inp" -scrdir="/srv/scratch/z5358697/gauss/"
 Entering Link 1 = /apps/z_install_tree/linux-rocky8-ivybridge/gcc-12.2.0/gaussian-09-D.01-wczn3gur5lpur3omlkzwa2l5ecyxp5ef/g09/l1.exe PID=   1287422.
  
 Copyright (c) 1988,1990,1992,1993,1995,1998,2003,2009,2013,
            Gaussian, Inc.  All Rights Reserved.
  
 This is part of the Gaussian(R) 09 program.  It is based on
 the Gaussian(R) 03 system (copyright 2003, Gaussian, Inc.),
 the Gaussian(R) 98 system (copyright 1998, Gaussian, Inc.),
 the Gaussian(R) 94 system (copyright 1995, Gaussian, Inc.),
 the Gaussian 92(TM) system (copyright 1992, Gaussian, Inc.),
 the Gaussian 90(TM) system (copyright 1990, Gaussian, Inc.),
 the Gaussian 88(TM) system (copyright 1988, Gaussian, Inc.),
 the Gaussian 86(TM) system (copyright 1986, Carnegie Mellon
 University), and the Gaussian 82(TM) system (copyright 1983,
 Carnegie Mellon University). Gaussian is a federally registered
 trademark of Gaussian, Inc.
  
 This software contains proprietary and confidential information,
 including trade secrets, belonging to Gaussian, Inc.
  
 This software is provided under written license and may be
 used, copied, transmitted, or stored only in accord with that
 written license.
  
 The following legend is applicable only to US Government
 contracts under FAR:
  
                    RESTRICTED RIGHTS LEGEND
  
 Use, reproduction and disclosure by the US Government is
 subject to restrictions as set forth in subparagraphs (a)
 and (c) of the Commercial Computer Software - Restricted
 Rights clause in FAR 52.227-19.
  
 Gaussian, Inc.
 340 Quinnipiac St., Bldg. 40, Wallingford CT 06492
  
  
 ---------------------------------------------------------------
 Warning -- This program may not be used in any manner that
 competes with the business of Gaussian, Inc. or will provide
 assistance to any competitor of Gaussian, Inc.  The licensee
 of this program is prohibited from giving any competitor of
 Gaussian, Inc. access to this program.  By using this program,
 the user acknowledges that Gaussian, Inc. is engaged in the
 business of creating and licensing software in the field of
 computational chemistry and represents and warrants to the
 licensee that it is not a competitor of Gaussian, Inc. and that
 it will not use this program in any manner prohibited above.
 ---------------------------------------------------------------
  

 Cite this work as:
 Gaussian 09, Revision D.01,
 M. J. Frisch, G. W. Trucks, H. B. Schlegel, G. E. Scuseria, 
 M. A. Robb, J. R. Cheeseman, G. Scalmani, V. Barone, B. Mennucci, 
 G. A. Petersson, H. Nakatsuji, M. Caricato, X. Li, H. P. Hratchian, 
 A. F. Izmaylov, J. Bloino, G. Zheng, J. L. Sonnenberg, M. Hada, 
 M. Ehara, K. Toyota, R. Fukuda, J. Hasegawa, M. Ishida, T. Nakajima, 
 Y. Honda, O. Kitao, H. Nakai, T. Vreven, J. A. Montgomery, Jr., 
 J. E. Peralta, F. Ogliaro, M. Bearpark, J. J. Heyd, E. Brothers, 
 K. N. Kudin, V. N. Staroverov, T. Keith, R. Kobayashi, J. Normand, 
 K. Raghavachari, A. Rendell, J. C. Burant, S. S. Iyengar, J. Tomasi, 
 M. Cossi, N. Rega, J. M. Millam, M. Klene, J. E. Knox, J. B. Cross, 
 V. Bakken, C. Adamo, J. Jaramillo, R. Gomperts, R. E. Stratmann, 
 O. Yazyev, A. J. Austin, R. Cammi, C. Pomelli, J. W. Ochterski, 
 R. L. Martin, K. Morokuma, V. G. Zakrzewski, G. A. Voth, 
 P. Salvador, J. J. Dannenberg, S. Dapprich, A. D. Daniels, 
 O. Farkas, J. B. Foresman, J. V. Ortiz, J. Cioslowski, 
 and D. J. Fox, Gaussian, Inc., Wallingford CT, 2013.
 
 ******************************************
 Gaussian 09:  ES64L-G09RevD.01 24-Apr-2013
                19-Mar-2025 
 ******************************************
 ---------------------------------
 #m062X/6-31+G(d) OPT Freq=noraman
 ---------------------------------
 1/14=-1,18=20,19=15,26=3,38=1/1,3;
 2/9=110,12=2,17=6,18=5,40=1/2;
 3/5=1,6=6,7=11,11=2,16=1,25=1,30=1,71=1,74=-55/1,2,3;
 4//1;
 5/5=2,38=5/2;
 6/7=2,8=2,9=2,10=2,28=1/1;
 7//1,2,3,16;
 1/14=-1,18=20,19=15,26=3/3(2);
 2/9=110/2;
 99//99;
 2/9=110/2;
 3/5=1,6=6,7=11,11=2,16=1,25=1,30=1,71=1,74=-55/1,2,3;
 4/5=5,16=3,69=1/1;
 5/5=2,38=5/2;
 7//1,2,3,16;
 1/14=-1,18=20,19=15,26=3/3(-5);
 2/9=110/2;
 6/7=2,8=2,9=2,10=2,19=2,28=1/1;
 99/9=1/99;
 -----------
 cyclohexane
 -----------
 Symbolic Z-matrix:
 Charge =  0 Multiplicity = 1
 C                     0.3257    0.2271   -1.4209 
 C                    -1.0123   -0.3779   -1.0045 
 C                    -1.4192    0.0673    0.3976 
 C                    -0.3257   -0.2271    1.4209 
 C                     1.0123    0.3778    1.0046 
 C                     1.4192   -0.0672   -0.3976 
 H                     0.2153    1.3127   -1.5339 
 H                     0.6202   -0.1679   -2.3997 
 H                    -1.7873   -0.0886   -1.723 
 H                    -0.9422   -1.4724   -1.0332 
 H                    -1.6319    1.1436    0.3908 
 H                    -2.3453   -0.4392    0.6917 
 H                    -0.6205    0.1679    2.3997 
 H                    -0.2152   -1.3126    1.5339 
 H                     0.9419    1.4721    1.0331 
 H                     1.7876    0.0884    1.7231 
 H                     2.3456    0.4395   -0.6909 
 H                     1.6316   -1.1434   -0.3907 
 

 GradGradGradGradGradGradGradGradGradGradGradGradGradGradGradGradGradGrad
 Berny optimization.
 Initialization pass.
                           ----------------------------
                           !    Initial Parameters    !
                           ! (Angstroms and Degrees)  !
 --------------------------                            --------------------------
 ! Name  Definition              Value          Derivative Info.                !
 --------------------------------------------------------------------------------
 ! R1    R(1,2)                  1.5263         estimate D2E/DX2                !
 ! R2    R(1,6)                  1.5263         estimate D2E/DX2                !
 ! R3    R(1,7)                  1.097          estimate D2E/DX2                !
 ! R4    R(1,8)                  1.0958         estimate D2E/DX2                !
 ! R5    R(2,3)                  1.5263         estimate D2E/DX2                !
 ! R6    R(2,9)                  1.0957         estimate D2E/DX2                !
 ! R7    R(2,10)                 1.0971         estimate D2E/DX2                !
 ! R8    R(3,4)                  1.5263         estimate D2E/DX2                !
 ! R9    R(3,11)                 1.0971         estimate D2E/DX2                !
 ! R10   R(3,12)                 1.0958         estimate D2E/DX2                !
 ! R11   R(4,5)                  1.5263         estimate D2E/DX2                !
 ! R12   R(4,13)                 1.0959         estimate D2E/DX2                !
 ! R13   R(4,14)                 1.0969         estimate D2E/DX2                !
 ! R14   R(5,6)                  1.5264         estimate D2E/DX2                !
 ! R15   R(5,15)                 1.0969         estimate D2E/DX2                !
 ! R16   R(5,16)                 1.0959         estimate D2E/DX2                !
 ! R17   R(6,17)                 1.0959         estimate D2E/DX2                !
 ! R18   R(6,18)                 1.097          estimate D2E/DX2                !
 ! A1    A(2,1,6)              111.6364         estimate D2E/DX2                !
 ! A2    A(2,1,7)              109.3981         estimate D2E/DX2                !
 ! A3    A(2,1,8)              109.6573         estimate D2E/DX2                !
 ! A4    A(6,1,7)              109.3886         estimate D2E/DX2                !
 ! A5    A(6,1,8)              109.6828         estimate D2E/DX2                !
 ! A6    A(7,1,8)              106.9625         estimate D2E/DX2                !
 ! A7    A(1,2,3)              111.6348         estimate D2E/DX2                !
 ! A8    A(1,2,9)              109.663          estimate D2E/DX2                !
 ! A9    A(1,2,10)             109.4075         estimate D2E/DX2                !
 ! A10   A(3,2,9)              109.6822         estimate D2E/DX2                !
 ! A11   A(3,2,10)             109.3932         estimate D2E/DX2                !
 ! A12   A(9,2,10)             106.9443         estimate D2E/DX2                !
 ! A13   A(2,3,4)              111.631          estimate D2E/DX2                !
 ! A14   A(2,3,11)             109.3982         estimate D2E/DX2                !
 ! A15   A(2,3,12)             109.6966         estimate D2E/DX2                !
 ! A16   A(4,3,11)             109.4069         estimate D2E/DX2                !
 ! A17   A(4,3,12)             109.6581         estimate D2E/DX2                !
 ! A18   A(11,3,12)            106.9339         estimate D2E/DX2                !
 ! A19   A(3,4,5)              111.639          estimate D2E/DX2                !
 ! A20   A(3,4,13)             109.6677         estimate D2E/DX2                !
 ! A21   A(3,4,14)             109.3969         estimate D2E/DX2                !
 ! A22   A(5,4,13)             109.6691         estimate D2E/DX2                !
 ! A23   A(5,4,14)             109.3892         estimate D2E/DX2                !
 ! A24   A(13,4,14)            106.9638         estimate D2E/DX2                !
 ! A25   A(4,5,6)              111.6371         estimate D2E/DX2                !
 ! A26   A(4,5,15)             109.392          estimate D2E/DX2                !
 ! A27   A(4,5,16)             109.6756         estimate D2E/DX2                !
 ! A28   A(6,5,15)             109.3794         estimate D2E/DX2                !
 ! A29   A(6,5,16)             109.6759         estimate D2E/DX2                !
 ! A30   A(15,5,16)            106.9658         estimate D2E/DX2                !
 ! A31   A(1,6,5)              111.6362         estimate D2E/DX2                !
 ! A32   A(1,6,17)             109.6973         estimate D2E/DX2                !
 ! A33   A(1,6,18)             109.3968         estimate D2E/DX2                !
 ! A34   A(5,6,17)             109.6588         estimate D2E/DX2                !
 ! A35   A(5,6,18)             109.3817         estimate D2E/DX2                !
 ! A36   A(17,6,18)            106.9544         estimate D2E/DX2                !
 ! D1    D(6,1,2,3)             54.2691         estimate D2E/DX2                !
 ! D2    D(6,1,2,9)            176.0376         estimate D2E/DX2                !
 ! D3    D(6,1,2,10)           -66.9605         estimate D2E/DX2                !
 ! D4    D(7,1,2,3)            -66.9494         estimate D2E/DX2                !
 ! D5    D(7,1,2,9)             54.8192         estimate D2E/DX2                !
 ! D6    D(7,1,2,10)           171.821          estimate D2E/DX2                !
 ! D7    D(8,1,2,3)            176.0356         estimate D2E/DX2                !
 ! D8    D(8,1,2,9)            -62.1959         estimate D2E/DX2                !
 ! D9    D(8,1,2,10)            54.806          estimate D2E/DX2                !
 ! D10   D(2,1,6,5)            -54.2598         estimate D2E/DX2                !
 ! D11   D(2,1,6,17)          -176.0234         estimate D2E/DX2                !
 ! D12   D(2,1,6,18)            66.9489         estimate D2E/DX2                !
 ! D13   D(7,1,6,5)             66.9641         estimate D2E/DX2                !
 ! D14   D(7,1,6,17)           -54.7995         estimate D2E/DX2                !
 ! D15   D(7,1,6,18)          -171.8272         estimate D2E/DX2                !
 ! D16   D(8,1,6,5)           -176.0115         estimate D2E/DX2                !
 ! D17   D(8,1,6,17)            62.2249         estimate D2E/DX2                !
 ! D18   D(8,1,6,18)           -54.8028         estimate D2E/DX2                !
 ! D19   D(1,2,3,4)            -54.2705         estimate D2E/DX2                !
 ! D20   D(1,2,3,11)            66.9674         estimate D2E/DX2                !
 ! D21   D(1,2,3,12)          -176.0292         estimate D2E/DX2                !
 ! D22   D(9,2,3,4)           -176.0281         estimate D2E/DX2                !
 ! D23   D(9,2,3,11)           -54.7901         estimate D2E/DX2                !
 ! D24   D(9,2,3,12)            62.2132         estimate D2E/DX2                !
 ! D25   D(10,2,3,4)            66.9673         estimate D2E/DX2                !
 ! D26   D(10,2,3,11)         -171.7947         estimate D2E/DX2                !
 ! D27   D(10,2,3,12)          -54.7914         estimate D2E/DX2                !
 ! D28   D(2,3,4,5)             54.2689         estimate D2E/DX2                !
 ! D29   D(2,3,4,13)           176.027          estimate D2E/DX2                !
 ! D30   D(2,3,4,14)           -66.9511         estimate D2E/DX2                !
 ! D31   D(11,3,4,5)           -66.964          estimate D2E/DX2                !
 ! D32   D(11,3,4,13)           54.794          estimate D2E/DX2                !
 ! D33   D(11,3,4,14)          171.816          estimate D2E/DX2                !
 ! D34   D(12,3,4,5)           176.0498         estimate D2E/DX2                !
 ! D35   D(12,3,4,13)          -62.1921         estimate D2E/DX2                !
 ! D36   D(12,3,4,14)           54.8298         estimate D2E/DX2                !
 ! D37   D(3,4,5,6)            -54.2622         estimate D2E/DX2                !
 ! D38   D(3,4,5,15)            66.9409         estimate D2E/DX2                !
 ! D39   D(3,4,5,16)          -176.033          estimate D2E/DX2                !
 ! D40   D(13,4,5,6)          -176.0195         estimate D2E/DX2                !
 ! D41   D(13,4,5,15)          -54.8163         estimate D2E/DX2                !
 ! D42   D(13,4,5,16)           62.2097         estimate D2E/DX2                !
 ! D43   D(14,4,5,6)            66.9622         estimate D2E/DX2                !
 ! D44   D(14,4,5,15)         -171.8346         estimate D2E/DX2                !
 ! D45   D(14,4,5,16)          -54.8086         estimate D2E/DX2                !
 ! D46   D(4,5,6,1)             54.2563         estimate D2E/DX2                !
 ! D47   D(4,5,6,17)           176.0421         estimate D2E/DX2                !
 ! D48   D(4,5,6,18)           -66.9612         estimate D2E/DX2                !
 ! D49   D(15,5,6,1)           -66.9542         estimate D2E/DX2                !
 ! D50   D(15,5,6,17)           54.8316         estimate D2E/DX2                !
 ! D51   D(15,5,6,18)          171.8283         estimate D2E/DX2                !
 ! D52   D(16,5,6,1)           176.0269         estimate D2E/DX2                !
 ! D53   D(16,5,6,17)          -62.1873         estimate D2E/DX2                !
 ! D54   D(16,5,6,18)           54.8093         estimate D2E/DX2                !
 --------------------------------------------------------------------------------
 Trust Radius=3.00D-01 FncErr=1.00D-07 GrdErr=1.00D-06
 Number of steps in this run=    108 maximum allowed number of steps=    108.
 GradGradGradGradGradGradGradGradGradGradGradGradGradGradGradGradGradGrad

                          Input orientation:                          
 ---------------------------------------------------------------------
 Center     Atomic      Atomic             Coordinates (Angstroms)
 Number     Number       Type             X           Y           Z
 ---------------------------------------------------------------------
      1          6           0        0.325700    0.227100   -1.420900
      2          6           0       -1.012300   -0.377900   -1.004500
      3          6           0       -1.419200    0.067300    0.397600
      4          6           0       -0.325700   -0.227100    1.420900
      5          6           0        1.012300    0.377800    1.004600
      6          6           0        1.419200   -0.067200   -0.397600
      7          1           0        0.215300    1.312700   -1.533900
      8          1           0        0.620200   -0.167900   -2.399700
      9          1           0       -1.787300   -0.088600   -1.723000
     10          1           0       -0.942200   -1.472400   -1.033200
     11          1           0       -1.631900    1.143600    0.390800
     12          1           0       -2.345300   -0.439200    0.691700
     13          1           0       -0.620500    0.167900    2.399700
     14          1           0       -0.215200   -1.312600    1.533900
     15          1           0        0.941900    1.472100    1.033100
     16          1           0        1.787600    0.088400    1.723100
     17          1           0        2.345600    0.439500   -0.690900
     18          1           0        1.631600   -1.143400   -0.390700
 ---------------------------------------------------------------------
                    Distance matrix (angstroms):
                    1          2          3          4          5
     1  C    0.000000
     2  C    1.526322   0.000000
     3  C    2.525303   1.526321   0.000000
     4  C    2.950669   2.525218   1.526288   0.000000
     5  C    2.525308   2.950690   2.525282   1.526255   0.000000
     6  C    1.526269   2.525283   2.950754   2.525309   1.526354
     7  H    1.097034   2.155318   2.820160   3.375575   2.820147
     8  H    1.095812   2.157716   3.469778   3.936396   3.469984
     9  H    2.157707   1.095701   2.157950   3.469807   3.936380
    10  H    2.155500   1.097118   2.155318   2.820186   3.375787
    11  H    2.820359   2.155395   1.097137   2.155477   2.820460
    12  H    3.470054   2.158180   1.095764   2.157662   3.469708
    13  H    3.936468   3.469868   2.157880   1.095893   2.157869
    14  H    3.375514   2.820019   2.155207   1.096946   2.155079
    15  H    2.819901   3.375383   2.819950   2.155105   1.096932
    16  H    3.470032   3.936582   3.470009   2.157986   1.095940
    17  H    2.158242   3.470156   3.936634   3.469856   2.157827
    18  H    2.155216   2.820097   3.375588   2.820022   2.155097
                    6          7          8          9         10
     6  C    0.000000
     7  H    2.155151   0.000000
     8  H    2.157996   1.762308   0.000000
     9  H    3.469695   2.451491   2.502053   0.000000
    10  H    2.820423   3.057334   2.451558   1.762078   0.000000
    11  H    3.375918   2.673053   3.818230   2.451656   3.057273
    12  H    3.936549   3.818262   4.292383   2.503010   2.451830
    13  H    3.469947   4.181189   4.968535   4.292304   3.818230
    14  H    2.820102   4.060656   4.181081   3.817993   2.672839
    15  H    2.155032   2.672610   3.818011   4.180957   4.060728
    16  H    2.158077   3.818257   4.292551   4.968586   4.181518
    17  H    1.095895   2.451796   2.503185   4.292433   3.818659
    18  H    1.096981   3.056998   2.451655   3.817919   2.673106
                   11         12         13         14         15
    11  H    0.000000
    12  H    1.762026   0.000000
    13  H    2.451652   2.502153   0.000000
    14  H    3.057227   2.451419   1.762316   0.000000
    15  H    2.672996   3.817762   2.451454   3.056834   0.000000
    16  H    3.818567   4.292203   2.502609   2.451490   1.762366
    17  H    4.181667   4.968726   4.292240   3.818021   2.451288
    18  H    4.060978   4.181294   3.818088   2.672711   3.056752
                   16         17         18
    16  H    0.000000
    17  H    2.502405   0.000000
    18  H    2.451493   1.762240   0.000000
 Stoichiometry    C6H12
 Framework group  C1[X(C6H12)]
 Deg. of freedom    48
 Full point group                 C1      NOp   1
 Largest Abelian subgroup         C1      NOp   1
 Largest concise Abelian subgroup C1      NOp   1
                         Standard orientation:                         
 ---------------------------------------------------------------------
 Center     Atomic      Atomic             Coordinates (Angstroms)
 Number     Number       Type             X           Y           Z
 ---------------------------------------------------------------------
      1          6           0        0.617065    1.320964    0.225806
      2          6           0       -0.835441    1.194852   -0.225837
      3          6           0       -1.452523   -0.126089    0.225801
      4          6           0       -0.617045   -1.320904   -0.225810
      5          6           0        0.835430   -1.194886    0.225732
      6          6           0        1.452554    0.126144   -0.225705
      7          1           0        0.653157    1.398107    1.319530
      8          1           0        1.048572    2.245366   -0.174301
      9          1           0       -1.419816    2.030993    0.174084
     10          1           0       -0.884484    1.264727   -1.319629
     11          1           0       -1.537679   -0.133380    1.319604
     12          1           0       -2.468867   -0.214749   -0.174050
     13          1           0       -1.048845   -2.245250    0.174333
     14          1           0       -0.653028   -1.398071   -1.319446
     15          1           0        0.884197   -1.264498    1.319367
     16          1           0        1.420086   -2.031077   -0.174324
     17          1           0        2.469059    0.213953    0.174286
     18          1           0        1.537409    0.133388   -1.319376
 ---------------------------------------------------------------------
 Rotational constants (GHZ):      4.3315510      4.3314387      2.4702428
 Standard basis: 6-31+G(d) (6D, 7F)
 There are   138 symmetry adapted cartesian basis functions of A   symmetry.
 There are   138 symmetry adapted basis functions of A   symmetry.
   138 basis functions,   240 primitive gaussians,   138 cartesian basis functions
    24 alpha electrons       24 beta electrons
       nuclear repulsion energy       256.3376858623 Hartrees.
 NAtoms=   18 NActive=   18 NUniq=   18 SFac= 1.00D+00 NAtFMM=   60 NAOKFM=F Big=F
 Integral buffers will be    131072 words long.
 Raffenetti 2 integral format.
 Two-electron integral symmetry is turned on.
 One-electron integrals computed using PRISM.
 NBasis=   138 RedAO= T EigKep=  6.23D-05  NBF=   138
 NBsUse=   138 1.00D-06 EigRej= -1.00D+00 NBFU=   138
 ExpMin= 4.38D-02 ExpMax= 3.05D+03 ExpMxC= 4.57D+02 IAcc=2 IRadAn=         4 AccDes= 0.00D+00
 Harris functional with IExCor= 1009 and IRadAn=       4 diagonalized for initial guess.
 HarFok:  IExCor= 1009 AccDes= 0.00D+00 IRadAn=         4 IDoV= 1 UseB2=F ITyADJ=14
 ICtDFT=  3500011 ScaDFX=  1.000000  1.000000  1.000000  1.000000
 FoFCou: FMM=F IPFlag=           0 FMFlag=      100000 FMFlg1=           0
         NFxFlg=           0 DoJE=T BraDBF=F KetDBF=T FulRan=T
         wScrn=  0.000000 ICntrl=     500 IOpCl=  0 I1Cent=   200000004 NGrid=           0
         NMat0=    1 NMatS0=      1 NMatT0=    0 NMatD0=    1 NMtDS0=    0 NMtDT0=    0
 Petite list used in FoFCou.
 Requested convergence on RMS density matrix=1.00D-08 within 128 cycles.
 Requested convergence on MAX density matrix=1.00D-06.
 Requested convergence on             energy=1.00D-06.
 No special actions if energy rises.
 SCF Done:  E(RM062X) =  -235.756273340     A.U. after   10 cycles
            NFock= 10  Conv=0.88D-09     -V/T= 2.0089

 **********************************************************************

            Population analysis using the SCF density.

 **********************************************************************

 Orbital symmetries:
       Occupied  (A) (A) (A) (A) (A) (A) (A) (A) (A) (A) (A) (A)
                 (A) (A) (A) (A) (A) (A) (A) (A) (A) (A) (A) (A)
       Virtual   (A) (A) (A) (A) (A) (A) (A) (A) (A) (A) (A) (A)
                 (A) (A) (A) (A) (A) (A) (A) (A) (A) (A) (A) (A)
                 (A) (A) (A) (A) (A) (A) (A) (A) (A) (A) (A) (A)
                 (A) (A) (A) (A) (A) (A) (A) (A) (A) (A) (A) (A)
                 (A) (A) (A) (A) (A) (A) (A) (A) (A) (A) (A) (A)
                 (A) (A) (A) (A) (A) (A) (A) (A) (A) (A) (A) (A)
                 (A) (A) (A) (A) (A) (A) (A) (A) (A) (A) (A) (A)
                 (A) (A) (A) (A) (A) (A) (A) (A) (A) (A) (A) (A)
                 (A) (A) (A) (A) (A) (A) (A) (A) (A) (A) (A) (A)
                 (A) (A) (A) (A) (A) (A)
 The electronic state is 1-A.
 Alpha  occ. eigenvalues --  -10.53559 -10.53543 -10.53543 -10.53507 -10.53507
 Alpha  occ. eigenvalues --  -10.53487  -0.93098  -0.83443  -0.83442  -0.68868
 Alpha  occ. eigenvalues --   -0.68867  -0.62580  -0.54886  -0.51051  -0.50375
 Alpha  occ. eigenvalues --   -0.50374  -0.43673  -0.43672  -0.43310  -0.40045
 Alpha  occ. eigenvalues --   -0.40042  -0.37141  -0.35010  -0.35010
 Alpha virt. eigenvalues --    0.02500   0.03481   0.03483   0.04077   0.05251
 Alpha virt. eigenvalues --    0.05252   0.08074   0.08075   0.08507   0.10711
 Alpha virt. eigenvalues --    0.11147   0.11148   0.11169   0.11892   0.12042
 Alpha virt. eigenvalues --    0.12043   0.15343   0.15345   0.15950   0.16388
 Alpha virt. eigenvalues --    0.19277   0.19277   0.20789   0.20790   0.23465
 Alpha virt. eigenvalues --    0.26458   0.26459   0.28145   0.28148   0.29198
 Alpha virt. eigenvalues --    0.32311   0.32521   0.32524   0.35572   0.35573
 Alpha virt. eigenvalues --    0.36195   0.38366   0.40667   0.40670   0.44669
 Alpha virt. eigenvalues --    0.44672   0.45046   0.64714   0.66470   0.66770
 Alpha virt. eigenvalues --    0.69275   0.69279   0.72755   0.72755   0.76399
 Alpha virt. eigenvalues --    0.77674   0.77677   0.82751   0.82752   0.84906
 Alpha virt. eigenvalues --    0.85687   0.88946   0.88948   1.04144   1.04147
 Alpha virt. eigenvalues --    1.04359   1.04362   1.06670   1.08417   1.16847
 Alpha virt. eigenvalues --    1.17016   1.17341   1.17346   1.18484   1.21961
 Alpha virt. eigenvalues --    1.21968   1.23566   1.23569   1.44295   1.44305
 Alpha virt. eigenvalues --    1.45696   1.45699   1.58338   1.62865   1.77422
 Alpha virt. eigenvalues --    1.77552   1.77567   1.80706   1.95537   1.95555
 Alpha virt. eigenvalues --    1.96739   1.96746   2.06828   2.06837   2.09556
 Alpha virt. eigenvalues --    2.10855   2.13971   2.21463   2.21476   2.35750
 Alpha virt. eigenvalues --    2.35761   2.45297   2.45308   2.45996   2.46167
 Alpha virt. eigenvalues --    2.46171   2.47030   2.68243   2.68249   2.72589
 Alpha virt. eigenvalues --    2.76526   2.76537   2.82299   4.21180   4.32754
 Alpha virt. eigenvalues --    4.32756   4.62261   4.63860   4.63874
          Condensed to atoms (all electrons):
               1          2          3          4          5          6
     1  C    5.821942   0.146825  -0.164628   0.003693  -0.164458   0.146363
     2  C    0.146825   5.821991   0.146613  -0.164493   0.003594  -0.164467
     3  C   -0.164628   0.146613   5.822341   0.146478  -0.164453   0.003660
     4  C    0.003693  -0.164493   0.146478   5.822159   0.146592  -0.164629
     5  C   -0.164458   0.003594  -0.164453   0.146592   5.821837   0.147017
     6  C    0.146363  -0.164467   0.003660  -0.164629   0.147017   5.822042
     7  H    0.432326  -0.055978  -0.004274  -0.004328  -0.004313  -0.055914
     8  H    0.383793  -0.048849   0.019488  -0.005850   0.019461  -0.048831
     9  H   -0.048839   0.383743  -0.048810   0.019474  -0.005842   0.019474
    10  H   -0.055927   0.432310  -0.055942  -0.004293  -0.004322  -0.004306
    11  H   -0.004314  -0.055945   0.432374  -0.055935  -0.004319  -0.004317
    12  H    0.019463  -0.048709   0.383716  -0.048887   0.019487  -0.005849
    13  H   -0.005856   0.019476  -0.048890   0.383799  -0.048798   0.019479
    14  H   -0.004327  -0.004302  -0.055875   0.432321  -0.056027  -0.004283
    15  H   -0.004289  -0.004314  -0.004276  -0.055952   0.432251  -0.055971
    16  H    0.019486  -0.005855   0.019468  -0.048806   0.383763  -0.048842
    17  H   -0.048769   0.019462  -0.005854   0.019498  -0.048839   0.383729
    18  H   -0.055924  -0.004271  -0.004316  -0.004318  -0.055997   0.432314
               7          8          9         10         11         12
     1  C    0.432326   0.383793  -0.048839  -0.055927  -0.004314   0.019463
     2  C   -0.055978  -0.048849   0.383743   0.432310  -0.055945  -0.048709
     3  C   -0.004274   0.019488  -0.048810  -0.055942   0.432374   0.383716
     4  C   -0.004328  -0.005850   0.019474  -0.004293  -0.055935  -0.048887
     5  C   -0.004313   0.019461  -0.005842  -0.004322  -0.004319   0.019487
     6  C   -0.055914  -0.048831   0.019474  -0.004306  -0.004317  -0.005849
     7  H    0.508815  -0.029625  -0.004510   0.004093   0.001906  -0.000060
     8  H   -0.029625   0.518085  -0.002279  -0.004506  -0.000059  -0.000113
     9  H   -0.004510  -0.002279   0.518074  -0.029648  -0.004505  -0.002275
    10  H    0.004093  -0.004506  -0.029648   0.508802   0.004094  -0.004511
    11  H    0.001906  -0.000059  -0.004505   0.004094   0.508817  -0.029661
    12  H   -0.000060  -0.000113  -0.002275  -0.004511  -0.029661   0.518097
    13  H   -0.000025   0.000012  -0.000113  -0.000059  -0.004507  -0.002277
    14  H    0.000052  -0.000025  -0.000059   0.001906   0.004093  -0.004509
    15  H    0.001909  -0.000060  -0.000025   0.000052   0.001906  -0.000059
    16  H   -0.000059  -0.000113   0.000012  -0.000025  -0.000059  -0.000113
    17  H   -0.004504  -0.002273  -0.000113  -0.000059  -0.000025   0.000012
    18  H    0.004095  -0.004510  -0.000059   0.001904   0.000051  -0.000025
              13         14         15         16         17         18
     1  C   -0.005856  -0.004327  -0.004289   0.019486  -0.048769  -0.055924
     2  C    0.019476  -0.004302  -0.004314  -0.005855   0.019462  -0.004271
     3  C   -0.048890  -0.055875  -0.004276   0.019468  -0.005854  -0.004316
     4  C    0.383799   0.432321  -0.055952  -0.048806   0.019498  -0.004318
     5  C   -0.048798  -0.056027   0.432251   0.383763  -0.048839  -0.055997
     6  C    0.019479  -0.004283  -0.055971  -0.048842   0.383729   0.432314
     7  H   -0.000025   0.000052   0.001909  -0.000059  -0.004504   0.004095
     8  H    0.000012  -0.000025  -0.000060  -0.000113  -0.002273  -0.004510
     9  H   -0.000113  -0.000059  -0.000025   0.000012  -0.000113  -0.000059
    10  H   -0.000059   0.001906   0.000052  -0.000025  -0.000059   0.001904
    11  H   -0.004507   0.004093   0.001906  -0.000059  -0.000025   0.000051
    12  H   -0.002277  -0.004509  -0.000059  -0.000113   0.000012  -0.000025
    13  H    0.518119  -0.029625  -0.004511  -0.002279  -0.000113  -0.000060
    14  H   -0.029625   0.508815   0.004099  -0.004508  -0.000060   0.001910
    15  H   -0.004511   0.004099   0.508840  -0.029620  -0.004515   0.004101
    16  H   -0.002279  -0.004508  -0.029620   0.518089  -0.002279  -0.004506
    17  H   -0.000113  -0.000060  -0.004515  -0.002279   0.518091  -0.029634
    18  H   -0.000060   0.001910   0.004101  -0.004506  -0.029634   0.508840
 Mulliken charges:
               1
     1  C   -0.416559
     2  C   -0.416830
     3  C   -0.416820
     4  C   -0.416523
     5  C   -0.416633
     6  C   -0.416669
     7  H    0.210395
     8  H    0.206255
     9  H    0.206299
    10  H    0.210438
    11  H    0.210406
    12  H    0.206272
    13  H    0.206228
    14  H    0.210407
    15  H    0.210437
    16  H    0.206247
    17  H    0.206245
    18  H    0.210405
 Sum of Mulliken charges =   0.00000
 Mulliken charges with hydrogens summed into heavy atoms:
               1
     1  C    0.000091
     2  C   -0.000093
     3  C   -0.000141
     4  C    0.000112
     5  C    0.000051
     6  C   -0.000019
 Electronic spatial extent (au):  <R**2>=            591.0887
 Charge=              0.0000 electrons
 Dipole moment (field-independent basis, Debye):
    X=             -0.0004    Y=              0.0003    Z=              0.0000  Tot=              0.0005
 Quadrupole moment (field-independent basis, Debye-Ang):
   XX=            -40.8869   YY=            -40.8859   ZZ=            -40.2098
   XY=             -0.0001   XZ=             -0.0001   YZ=              0.0007
 Traceless Quadrupole moment (field-independent basis, Debye-Ang):
   XX=             -0.2261   YY=             -0.2250   ZZ=              0.4511
   XY=             -0.0001   XZ=             -0.0001   YZ=              0.0007
 Octapole moment (field-independent basis, Debye-Ang**2):
  XXX=             -0.0022  YYY=              0.0064  ZZZ=             -0.0002  XYY=             -0.0017
  XXY=             -0.0040  XXZ=              0.0018  XZZ=             -0.0010  YZZ=              0.0008
  YYZ=             -0.0020  XYZ=              0.0015
 Hexadecapole moment (field-independent basis, Debye-Ang**3):
 XXXX=           -367.4464 YYYY=           -367.4299 ZZZZ=           -103.0116 XXXY=              0.0017
 XXXZ=              3.0208 YYYX=             -0.0025 YYYZ=             -0.8027 ZZZX=              0.0014
 ZZZY=              0.0030 XXYY=           -122.4843 XXZZ=            -79.6234 YYZZ=            -79.6222
 XXYZ=              0.8048 YYXZ=             -3.0247 ZZXY=             -0.0002
 N-N= 2.563376858623D+02 E-N=-1.057070891078D+03  KE= 2.336665310095D+02
 Calling FoFJK, ICntrl=      2127 FMM=F ISym2X=0 I1Cent= 0 IOpClX= 0 NMat=1 NMatS=1 NMatT=0.
 ***** Axes restored to original set *****
 -------------------------------------------------------------------
 Center     Atomic                   Forces (Hartrees/Bohr)
 Number     Number              X              Y              Z
 -------------------------------------------------------------------
      1        6           0.000627650   -0.002175924   -0.002176046
      2        6          -0.001760800    0.001933149   -0.001759508
      3        6          -0.002046816   -0.002293817    0.000710450
      4        6          -0.000636789    0.002251013    0.002229278
      5        6           0.001822709   -0.002029168    0.001805428
      6        6           0.002094961    0.002367802   -0.000643035
      7        1          -0.000277657    0.001751884    0.000211604
      8        1           0.000127659    0.001127343   -0.001162176
      9        1          -0.000785508   -0.001192128   -0.000847421
     10        1           0.000455793   -0.001687056    0.000252034
     11        1           0.000122909    0.001733417   -0.000143549
     12        1          -0.001250268    0.000908534    0.000281873
     13        1          -0.000087259   -0.001144464    0.001126279
     14        1           0.000251733   -0.001811976   -0.000210419
     15        1          -0.000423791    0.001809647   -0.000216707
     16        1           0.000666676    0.001248830    0.000754469
     17        1           0.001161127   -0.000972396   -0.000337297
     18        1          -0.000062328   -0.001824690    0.000124742
 -------------------------------------------------------------------
 Cartesian Forces:  Max     0.002367802 RMS     0.001335570

 GradGradGradGradGradGradGradGradGradGradGradGradGradGradGradGradGradGrad
 Berny optimization.
 FormGI is forming the generalized inverse of G from B-inverse, IUseBI=4.
 Internal  Forces:  Max     0.003279718 RMS     0.000908912
 Search for a local minimum.
 Step number   1 out of a maximum of  108
 All quantities printed in internal units (Hartrees-Bohrs-Radians)
 Mixed Optimization -- En-DIIS/RFO-DIIS
 Second derivative matrix not updated -- first step.
 ITU=  0
     Eigenvalues ---    0.00595   0.00596   0.00685   0.01961   0.01961
     Eigenvalues ---    0.03678   0.03978   0.03978   0.04276   0.04833
     Eigenvalues ---    0.04834   0.04904   0.05523   0.05523   0.05941
     Eigenvalues ---    0.06130   0.08137   0.08138   0.08185   0.08185
     Eigenvalues ---    0.08185   0.08186   0.08192   0.08192   0.12087
     Eigenvalues ---    0.12117   0.12117   0.16153   0.16153   0.21899
     Eigenvalues ---    0.28224   0.28435   0.28438   0.29764   0.29769
     Eigenvalues ---    0.29770   0.34001   0.34003   0.34012   0.34018
     Eigenvalues ---    0.34022   0.34024   0.34135   0.34140   0.34140
     Eigenvalues ---    0.34149   0.34155   0.34162
 RFO step:  Lambda=-7.32571702D-04 EMin= 5.95027983D-03
 Linear search not attempted -- first point.
 Iteration  1 RMS(Cart)=  0.01582032 RMS(Int)=  0.00016280
 Iteration  2 RMS(Cart)=  0.00016668 RMS(Int)=  0.00001893
 Iteration  3 RMS(Cart)=  0.00000001 RMS(Int)=  0.00001893
 Variable       Old X    -DE/DX   Delta X   Delta X   Delta X     New X
                                 (Linear)    (Quad)   (Total)
    R1        2.88433   0.00298   0.00000   0.00998   0.00998   2.89431
    R2        2.88423   0.00327   0.00000   0.01096   0.01096   2.89519
    R3        2.07309   0.00173   0.00000   0.00508   0.00508   2.07818
    R4        2.07079   0.00067   0.00000   0.00196   0.00196   2.07274
    R5        2.88433   0.00321   0.00000   0.01078   0.01079   2.89511
    R6        2.07058   0.00079   0.00000   0.00232   0.00232   2.07290
    R7        2.07325   0.00171   0.00000   0.00502   0.00502   2.07827
    R8        2.88427   0.00328   0.00000   0.01099   0.01099   2.89526
    R9        2.07329   0.00168   0.00000   0.00493   0.00493   2.07822
   R10        2.07069   0.00071   0.00000   0.00208   0.00208   2.07277
   R11        2.88420   0.00301   0.00000   0.01009   0.01009   2.89429
   R12        2.07094   0.00062   0.00000   0.00181   0.00181   2.07275
   R13        2.07293   0.00179   0.00000   0.00525   0.00525   2.07817
   R14        2.88439   0.00324   0.00000   0.01083   0.01083   2.89522
   R15        2.07290   0.00183   0.00000   0.00537   0.00537   2.07827
   R16        2.07103   0.00063   0.00000   0.00185   0.00185   2.07288
   R17        2.07094   0.00062   0.00000   0.00181   0.00181   2.07276
   R18        2.07299   0.00178   0.00000   0.00523   0.00523   2.07822
    A1        1.94842   0.00010   0.00000  -0.00362  -0.00365   1.94477
    A2        1.90936  -0.00013   0.00000  -0.00468  -0.00471   1.90464
    A3        1.91388   0.00020   0.00000   0.00868   0.00866   1.92254
    A4        1.90919  -0.00015   0.00000  -0.00470  -0.00473   1.90446
    A5        1.91433   0.00024   0.00000   0.00888   0.00886   1.92319
    A6        1.86685  -0.00027   0.00000  -0.00467  -0.00463   1.86221
    A7        1.94840   0.00007   0.00000  -0.00383  -0.00386   1.94453
    A8        1.91398   0.00023   0.00000   0.00910   0.00908   1.92306
    A9        1.90952  -0.00016   0.00000  -0.00522  -0.00526   1.90426
   A10        1.91431   0.00024   0.00000   0.00905   0.00903   1.92334
   A11        1.90927  -0.00014   0.00000  -0.00489  -0.00492   1.90435
   A12        1.86653  -0.00026   0.00000  -0.00430  -0.00426   1.86227
   A13        1.94833   0.00013   0.00000  -0.00349  -0.00352   1.94481
   A14        1.90936  -0.00017   0.00000  -0.00508  -0.00512   1.90424
   A15        1.91457   0.00019   0.00000   0.00858   0.00856   1.92313
   A16        1.90951  -0.00015   0.00000  -0.00494  -0.00497   1.90454
   A17        1.91390   0.00021   0.00000   0.00882   0.00880   1.92269
   A18        1.86635  -0.00023   0.00000  -0.00398  -0.00394   1.86241
   A19        1.94847   0.00009   0.00000  -0.00366  -0.00369   1.94478
   A20        1.91406   0.00026   0.00000   0.00911   0.00910   1.92316
   A21        1.90934  -0.00017   0.00000  -0.00493  -0.00496   1.90438
   A22        1.91409   0.00019   0.00000   0.00851   0.00849   1.92258
   A23        1.90920  -0.00011   0.00000  -0.00446  -0.00449   1.90471
   A24        1.86687  -0.00028   0.00000  -0.00469  -0.00466   1.86221
   A25        1.94844   0.00006   0.00000  -0.00390  -0.00394   1.94450
   A26        1.90925  -0.00015   0.00000  -0.00490  -0.00493   1.90432
   A27        1.91420   0.00023   0.00000   0.00892   0.00890   1.92310
   A28        1.90903  -0.00012   0.00000  -0.00462  -0.00465   1.90438
   A29        1.91421   0.00024   0.00000   0.00902   0.00900   1.92321
   A30        1.86690  -0.00028   0.00000  -0.00462  -0.00458   1.86232
   A31        1.94842   0.00011   0.00000  -0.00364  -0.00367   1.94475
   A32        1.91458   0.00016   0.00000   0.00819   0.00818   1.92276
   A33        1.90933  -0.00014   0.00000  -0.00472  -0.00476   1.90458
   A34        1.91391   0.00024   0.00000   0.00910   0.00909   1.92299
   A35        1.90907  -0.00015   0.00000  -0.00475  -0.00478   1.90429
   A36        1.86671  -0.00025   0.00000  -0.00428  -0.00425   1.86246
    D1        0.94717  -0.00029   0.00000   0.01047   0.01048   0.95765
    D2        3.07244   0.00021   0.00000   0.02563   0.02564   3.09808
    D3       -1.16868  -0.00006   0.00000   0.02265   0.02264  -1.14604
    D4       -1.16849  -0.00008   0.00000   0.02191   0.02191  -1.14658
    D5        0.95678   0.00043   0.00000   0.03707   0.03707   0.99384
    D6        2.99884   0.00016   0.00000   0.03410   0.03407   3.03291
    D7        3.07240   0.00021   0.00000   0.02526   0.02528   3.09768
    D8       -1.08552   0.00072   0.00000   0.04042   0.04043  -1.04509
    D9        0.95654   0.00045   0.00000   0.03745   0.03744   0.99398
   D10       -0.94701   0.00025   0.00000  -0.01084  -0.01085  -0.95786
   D11       -3.07219  -0.00024   0.00000  -0.02558  -0.02559  -3.09777
   D12        1.16848   0.00005   0.00000  -0.02239  -0.02238   1.14610
   D13        1.16874   0.00006   0.00000  -0.02227  -0.02227   1.14648
   D14       -0.95643  -0.00044   0.00000  -0.03701  -0.03700  -0.99343
   D15       -2.99895  -0.00015   0.00000  -0.03382  -0.03380  -3.03275
   D16       -3.07198  -0.00023   0.00000  -0.02552  -0.02553  -3.09751
   D17        1.08603  -0.00072   0.00000  -0.04025  -0.04027   1.04576
   D18       -0.95649  -0.00043   0.00000  -0.03707  -0.03706  -0.99355
   D19       -0.94720   0.00028   0.00000  -0.01037  -0.01037  -0.95757
   D20        1.16880   0.00006   0.00000  -0.02229  -0.02228   1.14652
   D21       -3.07229  -0.00020   0.00000  -0.02510  -0.02511  -3.09740
   D22       -3.07227  -0.00022   0.00000  -0.02555  -0.02556  -3.09783
   D23       -0.95627  -0.00044   0.00000  -0.03748  -0.03747  -0.99374
   D24        1.08583  -0.00071   0.00000  -0.04029  -0.04030   1.04552
   D25        1.16880   0.00003   0.00000  -0.02274  -0.02273   1.14607
   D26       -2.99838  -0.00019   0.00000  -0.03467  -0.03464  -3.03303
   D27       -0.95629  -0.00045   0.00000  -0.03748  -0.03747  -0.99376
   D28        0.94717  -0.00026   0.00000   0.01054   0.01055   0.95772
   D29        3.07225   0.00021   0.00000   0.02515   0.02516   3.09741
   D30       -1.16852  -0.00007   0.00000   0.02187   0.02187  -1.14665
   D31       -1.16874  -0.00003   0.00000   0.02256   0.02255  -1.14619
   D32        0.95634   0.00044   0.00000   0.03716   0.03716   0.99349
   D33        2.99875   0.00016   0.00000   0.03389   0.03386   3.03262
   D34        3.07265   0.00022   0.00000   0.02514   0.02515   3.09780
   D35       -1.08546   0.00069   0.00000   0.03974   0.03976  -1.04570
   D36        0.95696   0.00041   0.00000   0.03647   0.03647   0.99343
   D37       -0.94705   0.00028   0.00000  -0.01058  -0.01059  -0.95764
   D38        1.16834   0.00007   0.00000  -0.02225  -0.02224   1.14610
   D39       -3.07236  -0.00022   0.00000  -0.02553  -0.02554  -3.09790
   D40       -3.07212  -0.00023   0.00000  -0.02553  -0.02554  -3.09766
   D41       -0.95673  -0.00044   0.00000  -0.03720  -0.03719  -0.99392
   D42        1.08576  -0.00073   0.00000  -0.04048  -0.04049   1.04527
   D43        1.16871   0.00006   0.00000  -0.02218  -0.02217   1.14654
   D44       -2.99908  -0.00015   0.00000  -0.03385  -0.03383  -3.03291
   D45       -0.95659  -0.00044   0.00000  -0.03713  -0.03713  -0.99372
   D46        0.94695  -0.00026   0.00000   0.01077   0.01078   0.95773
   D47        3.07251   0.00019   0.00000   0.02497   0.02499   3.09750
   D48       -1.16869  -0.00006   0.00000   0.02230   0.02229  -1.14640
   D49       -1.16857  -0.00003   0.00000   0.02260   0.02259  -1.14598
   D50        0.95699   0.00041   0.00000   0.03681   0.03680   0.99379
   D51        2.99897   0.00017   0.00000   0.03413   0.03411   3.03308
   D52        3.07225   0.00024   0.00000   0.02566   0.02567   3.09792
   D53       -1.08537   0.00068   0.00000   0.03986   0.03988  -1.04549
   D54        0.95660   0.00044   0.00000   0.03719   0.03718   0.99379
         Item               Value     Threshold  Converged?
 Maximum Force            0.003280     0.000450     NO 
 RMS     Force            0.000909     0.000300     NO 
 Maximum Displacement     0.053367     0.001800     NO 
 RMS     Displacement     0.015820     0.001200     NO 
 Predicted change in Energy=-3.844851D-04
 GradGradGradGradGradGradGradGradGradGradGradGradGradGradGradGradGradGrad

                          Input orientation:                          
 ---------------------------------------------------------------------
 Center     Atomic      Atomic             Coordinates (Angstroms)
 Number     Number       Type             X           Y           Z
 ---------------------------------------------------------------------
      1          6           0        0.325875    0.230887   -1.424374
      2          6           0       -1.014361   -0.381861   -1.007104
      3          6           0       -1.422895    0.070714    0.398380
      4          6           0       -0.325870   -0.230837    1.424515
      5          6           0        1.014339    0.381921    1.007212
      6          6           0        1.422865   -0.070782   -0.398295
      7          1           0        0.210303    1.320484   -1.518251
      8          1           0        0.619928   -0.141198   -2.413395
      9          1           0       -1.793801   -0.116623   -1.731933
     10          1           0       -0.929054   -1.478222   -1.021757
     11          1           0       -1.616749    1.153168    0.385833
     12          1           0       -2.361123   -0.414258    0.694420
     13          1           0       -0.619988    0.141294    2.413504
     14          1           0       -0.210346   -1.320435    1.518440
     15          1           0        0.929068    1.478287    1.021823
     16          1           0        1.793844    0.116640    1.731943
     17          1           0        2.361126    0.414173   -0.694227
     18          1           0        1.616637   -1.153251   -0.385734
 ---------------------------------------------------------------------
                    Distance matrix (angstroms):
                    1          2          3          4          5
     1  C    0.000000
     2  C    1.531603   0.000000
     3  C    2.531065   1.532028   0.000000
     4  C    2.958738   2.531718   1.532106   0.000000
     5  C    2.531680   2.959131   2.531331   1.531592   0.000000
     6  C    1.532067   2.531302   2.958558   2.531072   1.532084
     7  H    1.099724   2.158484   2.811181   3.369562   2.811643
     8  H    1.096848   2.169441   3.481970   3.953747   3.482781
     9  H    2.169881   1.096930   2.170461   3.482963   3.954379
    10  H    2.158240   1.099773   2.158674   2.811414   3.369514
    11  H    2.810915   2.158578   1.099747   2.158866   2.811327
    12  H    3.482163   2.170253   1.096862   2.170008   3.482166
    13  H    3.953731   3.482783   2.170338   1.096853   2.169466
    14  H    3.369612   2.811713   2.158727   1.099723   2.158523
    15  H    2.811357   3.369512   2.810992   2.158271   1.099774
    16  H    3.482862   3.954352   3.482515   2.169894   1.096922
    17  H    2.170013   3.482165   3.953552   3.482104   2.170200
    18  H    2.158860   2.811280   3.369226   2.810904   2.158660
                    6          7          8          9         10
     6  C    0.000000
     7  H    2.158757   0.000000
     8  H    2.170321   1.762269   0.000000
     9  H    3.482475   2.475353   2.508203   0.000000
    10  H    2.810892   3.062254   2.474598   1.762410   0.000000
    11  H    3.369298   2.644173   3.809697   2.475611   3.062426
    12  H    3.953551   3.810180   4.315059   2.509507   2.475501
    13  H    3.482016   4.187907   4.991607   4.316133   3.810430
    14  H    2.811207   4.046343   4.187992   3.810697   2.644625
    15  H    2.158745   2.644522   3.810383   4.188189   4.045958
    16  H    2.170407   3.810591   4.316062   4.992399   4.188153
    17  H    1.096855   2.475168   2.509133   4.315321   3.809688
    18  H    1.099748   3.062635   2.475699   3.810241   2.643988
                   11         12         13         14         15
    11  H    0.000000
    12  H    1.762425   0.000000
    13  H    2.475656   2.509072   0.000000
    14  H    3.062594   2.475077   1.762270   0.000000
    15  H    2.644120   3.809760   2.474651   3.062309   0.000000
    16  H    3.810321   4.315328   2.508329   2.475388   1.762438
    17  H    4.187617   4.991420   4.315031   3.810148   2.475471
    18  H    4.045945   4.187531   3.809734   2.644182   3.062509
                   16         17         18
    16  H    0.000000
    17  H    2.509310   0.000000
    18  H    2.475598   1.762456   0.000000
 Stoichiometry    C6H12
 Framework group  C1[X(C6H12)]
 Deg. of freedom    48
 Full point group                 C1      NOp   1
 Largest Abelian subgroup         C1      NOp   1
 Largest concise Abelian subgroup C1      NOp   1
                         Standard orientation:                         
 ---------------------------------------------------------------------
 Center     Atomic      Atomic             Coordinates (Angstroms)
 Number     Number       Type             X           Y           Z
 ---------------------------------------------------------------------
      1          6           0       -1.140609    0.913671    0.229617
      2          6           0       -1.361928   -0.530629   -0.229536
      3          6           0       -0.221241   -1.444517    0.229542
      4          6           0        1.140648   -0.913658   -0.229584
      5          6           0        1.361927    0.530632    0.229583
      6          6           0        0.221207    1.444509   -0.229620
      7          1           0       -1.191574    0.954631    1.327396
      8          1           0       -1.944613    1.557482   -0.147425
      9          1           0       -2.321868   -0.904627    0.147155
     10          1           0       -1.422469   -0.554076   -1.327391
     11          1           0       -0.231290   -1.509006    1.327351
     12          1           0       -0.376824   -2.462688   -0.147591
     13          1           0        1.944600   -1.557511    0.147512
     14          1           0        1.191638   -0.954682   -1.327358
     15          1           0        1.422445    0.554130    1.327439
     16          1           0        2.321802    0.904725   -0.147155
     17          1           0        0.376899    2.462664    0.147488
     18          1           0        0.231233    1.508917   -1.327434
 ---------------------------------------------------------------------
 Rotational constants (GHZ):      4.3098539      4.3077149      2.4602341
 Standard basis: 6-31+G(d) (6D, 7F)
 There are   138 symmetry adapted cartesian basis functions of A   symmetry.
 There are   138 symmetry adapted basis functions of A   symmetry.
   138 basis functions,   240 primitive gaussians,   138 cartesian basis functions
    24 alpha electrons       24 beta electrons
       nuclear repulsion energy       255.6892794460 Hartrees.
 NAtoms=   18 NActive=   18 NUniq=   18 SFac= 1.00D+00 NAtFMM=   60 NAOKFM=F Big=F
 Integral buffers will be    131072 words long.
 Raffenetti 2 integral format.
 Two-electron integral symmetry is turned on.
 One-electron integrals computed using PRISM.
 NBasis=   138 RedAO= T EigKep=  6.40D-05  NBF=   138
 NBsUse=   138 1.00D-06 EigRej= -1.00D+00 NBFU=   138
 Initial guess from the checkpoint file:  "/srv/scratch/z5358697/gauss/Gau-1287422.chk"
 B after Tr=     0.000000    0.000000    0.000000
         Rot=    0.786214   -0.000001    0.000014   -0.617955 Ang= -76.33 deg.
 ExpMin= 4.38D-02 ExpMax= 3.05D+03 ExpMxC= 4.57D+02 IAcc=2 IRadAn=         4 AccDes= 0.00D+00
 Harris functional with IExCor= 1009 and IRadAn=       4 diagonalized for initial guess.
 HarFok:  IExCor= 1009 AccDes= 0.00D+00 IRadAn=         4 IDoV= 1 UseB2=F ITyADJ=14
 ICtDFT=  3500011 ScaDFX=  1.000000  1.000000  1.000000  1.000000
 FoFCou: FMM=F IPFlag=           0 FMFlag=      100000 FMFlg1=           0
         NFxFlg=           0 DoJE=T BraDBF=F KetDBF=T FulRan=T
         wScrn=  0.000000 ICntrl=     500 IOpCl=  0 I1Cent=   200000004 NGrid=           0
         NMat0=    1 NMatS0=      1 NMatT0=    0 NMatD0=    1 NMtDS0=    0 NMtDT0=    0
 Petite list used in FoFCou.
 Requested convergence on RMS density matrix=1.00D-08 within 128 cycles.
 Requested convergence on MAX density matrix=1.00D-06.
 Requested convergence on             energy=1.00D-06.
 No special actions if energy rises.
 SCF Done:  E(RM062X) =  -235.756582678     A.U. after    8 cycles
            NFock=  8  Conv=0.73D-08     -V/T= 2.0093
 Calling FoFJK, ICntrl=      2127 FMM=F ISym2X=0 I1Cent= 0 IOpClX= 0 NMat=1 NMatS=1 NMatT=0.
 ***** Axes restored to original set *****
 -------------------------------------------------------------------
 Center     Atomic                   Forces (Hartrees/Bohr)
 Number     Number              X              Y              Z
 -------------------------------------------------------------------
      1        6           0.000029160   -0.000154432    0.000135535
      2        6          -0.000154455    0.000103215    0.000233387
      3        6           0.000154399   -0.000080644   -0.000004074
      4        6          -0.000050757    0.000154401   -0.000148049
      5        6           0.000166680   -0.000134683   -0.000258137
      6        6          -0.000158706    0.000111906    0.000040475
      7        1          -0.000093809    0.000235516    0.000184587
      8        1           0.000015038    0.000287502    0.000121725
      9        1           0.000156974   -0.000251444    0.000214267
     10        1           0.000113432   -0.000189917    0.000174365
     11        1           0.000211683    0.000242500   -0.000057699
     12        1           0.000142702    0.000253106   -0.000071046
     13        1          -0.000013335   -0.000287829   -0.000125293
     14        1           0.000103668   -0.000234866   -0.000182274
     15        1          -0.000113179    0.000185566   -0.000176457
     16        1          -0.000159137    0.000256104   -0.000201719
     17        1          -0.000138327   -0.000256936    0.000059963
     18        1          -0.000212031   -0.000239067    0.000060443
 -------------------------------------------------------------------
 Cartesian Forces:  Max     0.000287829 RMS     0.000170542

 GradGradGradGradGradGradGradGradGradGradGradGradGradGradGradGradGradGrad
 Berny optimization.
 Using GEDIIS/GDIIS optimizer.
 FormGI is forming the generalized inverse of G from B-inverse, IUseBI=4.
 Internal  Forces:  Max     0.000581244 RMS     0.000151350
 Search for a local minimum.
 Step number   2 out of a maximum of  108
 All quantities printed in internal units (Hartrees-Bohrs-Radians)
 Mixed Optimization -- En-DIIS/RFO-DIIS
 Swapping is turned off.
 Update second derivatives using D2CorX and points    1    2
 DE= -3.09D-04 DEPred=-3.84D-04 R= 8.05D-01
 TightC=F SS=  1.41D+00  RLast= 2.23D-01 DXNew= 5.0454D-01 6.6987D-01
 Trust test= 8.05D-01 RLast= 2.23D-01 DXMaxT set to 5.05D-01
 ITU=  1  0
     Eigenvalues ---    0.00520   0.00601   0.00601   0.01950   0.01950
     Eigenvalues ---    0.03680   0.03948   0.03949   0.04525   0.04859
     Eigenvalues ---    0.04860   0.04906   0.05565   0.05566   0.06012
     Eigenvalues ---    0.06104   0.08058   0.08060   0.08160   0.08162
     Eigenvalues ---    0.08162   0.08167   0.08207   0.08210   0.12076
     Eigenvalues ---    0.12102   0.12103   0.16088   0.16090   0.21884
     Eigenvalues ---    0.28192   0.28435   0.28438   0.29725   0.29768
     Eigenvalues ---    0.32552   0.33541   0.34002   0.34007   0.34015
     Eigenvalues ---    0.34020   0.34023   0.34137   0.34140   0.34146
     Eigenvalues ---    0.34152   0.34159   0.35757
 En-DIIS/RFO-DIIS IScMMF=        0 using points:     2    1
 RFO step:  Lambda=-9.72487510D-06.
 DidBck=F Rises=F RFO-DIIS coefs:    1.16334   -0.16334
 Iteration  1 RMS(Cart)=  0.00984325 RMS(Int)=  0.00004877
 Iteration  2 RMS(Cart)=  0.00005357 RMS(Int)=  0.00001415
 Iteration  3 RMS(Cart)=  0.00000000 RMS(Int)=  0.00001415
 Variable       Old X    -DE/DX   Delta X   Delta X   Delta X     New X
                                 (Linear)    (Quad)   (Total)
    R1        2.89431  -0.00022   0.00163  -0.00164   0.00000   2.89431
    R2        2.89519  -0.00047   0.00179  -0.00267  -0.00088   2.89431
    R3        2.07818   0.00023   0.00083   0.00040   0.00123   2.07941
    R4        2.07274  -0.00020   0.00032  -0.00085  -0.00053   2.07221
    R5        2.89511  -0.00056   0.00176  -0.00302  -0.00126   2.89386
    R6        2.07290  -0.00032   0.00038  -0.00125  -0.00087   2.07202
    R7        2.07827   0.00020   0.00082   0.00030   0.00112   2.07939
    R8        2.89526  -0.00048   0.00180  -0.00273  -0.00094   2.89432
    R9        2.07822   0.00019   0.00081   0.00029   0.00109   2.07932
   R10        2.07277  -0.00025   0.00034  -0.00101  -0.00067   2.07210
   R11        2.89429  -0.00022   0.00165  -0.00164   0.00000   2.89429
   R12        2.07275  -0.00021   0.00030  -0.00085  -0.00055   2.07220
   R13        2.07817   0.00023   0.00086   0.00039   0.00125   2.07942
   R14        2.89522  -0.00058   0.00177  -0.00310  -0.00133   2.89389
   R15        2.07827   0.00020   0.00088   0.00026   0.00113   2.07941
   R16        2.07288  -0.00031   0.00030  -0.00120  -0.00090   2.07198
   R17        2.07276  -0.00024   0.00030  -0.00097  -0.00068   2.07208
   R18        2.07822   0.00019   0.00085   0.00025   0.00111   2.07933
    A1        1.94477  -0.00005  -0.00060  -0.00391  -0.00456   1.94021
    A2        1.90464   0.00002  -0.00077   0.00019  -0.00059   1.90406
    A3        1.92254   0.00008   0.00141   0.00227   0.00370   1.92624
    A4        1.90446   0.00004  -0.00077   0.00023  -0.00054   1.90392
    A5        1.92319  -0.00007   0.00145   0.00038   0.00185   1.92503
    A6        1.86221  -0.00001  -0.00076   0.00105   0.00030   1.86251
    A7        1.94453  -0.00005  -0.00063  -0.00419  -0.00487   1.93966
    A8        1.92306   0.00001   0.00148   0.00115   0.00265   1.92571
    A9        1.90426   0.00006  -0.00086   0.00099   0.00012   1.90439
   A10        1.92334  -0.00002   0.00147   0.00066   0.00215   1.92550
   A11        1.90435   0.00002  -0.00080   0.00041  -0.00040   1.90395
   A12        1.86227   0.00000  -0.00070   0.00123   0.00053   1.86280
   A13        1.94481  -0.00006  -0.00057  -0.00419  -0.00482   1.93999
   A14        1.90424   0.00005  -0.00084   0.00048  -0.00036   1.90389
   A15        1.92313  -0.00006   0.00140   0.00047   0.00189   1.92502
   A16        1.90454   0.00003  -0.00081   0.00050  -0.00032   1.90422
   A17        1.92269   0.00003   0.00144   0.00128   0.00274   1.92543
   A18        1.86241   0.00002  -0.00064   0.00171   0.00107   1.86347
   A19        1.94478  -0.00004  -0.00060  -0.00391  -0.00457   1.94021
   A20        1.92316  -0.00008   0.00149   0.00035   0.00186   1.92501
   A21        1.90438   0.00005  -0.00081   0.00035  -0.00046   1.90391
   A22        1.92258   0.00008   0.00139   0.00226   0.00367   1.92625
   A23        1.90471   0.00001  -0.00073   0.00009  -0.00064   1.90407
   A24        1.86221  -0.00001  -0.00076   0.00106   0.00030   1.86251
   A25        1.94450  -0.00005  -0.00064  -0.00413  -0.00483   1.93967
   A26        1.90432   0.00006  -0.00081   0.00090   0.00009   1.90441
   A27        1.92310   0.00000   0.00145   0.00115   0.00262   1.92572
   A28        1.90438   0.00001  -0.00076   0.00031  -0.00045   1.90393
   A29        1.92321  -0.00002   0.00147   0.00080   0.00229   1.92550
   A30        1.86232   0.00000  -0.00075   0.00121   0.00046   1.86278
   A31        1.94475  -0.00006  -0.00060  -0.00410  -0.00475   1.94000
   A32        1.92276   0.00002   0.00134   0.00130   0.00265   1.92541
   A33        1.90458   0.00003  -0.00078   0.00043  -0.00035   1.90423
   A34        1.92299  -0.00005   0.00148   0.00056   0.00207   1.92506
   A35        1.90429   0.00004  -0.00078   0.00036  -0.00042   1.90387
   A36        1.86246   0.00002  -0.00069   0.00169   0.00099   1.86345
    D1        0.95765   0.00015   0.00171   0.01156   0.01327   0.97092
    D2        3.09808   0.00009   0.00419   0.01033   0.01452   3.11259
    D3       -1.14604   0.00013   0.00370   0.01306   0.01676  -1.12928
    D4       -1.14658   0.00012   0.00358   0.01364   0.01721  -1.12937
    D5        0.99384   0.00006   0.00605   0.01241   0.01846   1.01230
    D6        3.03291   0.00010   0.00557   0.01513   0.02070   3.05361
    D7        3.09768   0.00008   0.00413   0.01095   0.01507   3.11274
    D8       -1.04509   0.00002   0.00660   0.00972   0.01632  -1.02877
    D9        0.99398   0.00005   0.00612   0.01244   0.01856   1.01254
   D10       -0.95786  -0.00015  -0.00177  -0.01146  -0.01322  -0.97109
   D11       -3.09777  -0.00006  -0.00418  -0.01027  -0.01444  -3.11222
   D12        1.14610  -0.00011  -0.00366  -0.01331  -0.01697   1.12913
   D13        1.14648  -0.00013  -0.00364  -0.01356  -0.01719   1.12929
   D14       -0.99343  -0.00004  -0.00604  -0.01237  -0.01841  -1.01184
   D15       -3.03275  -0.00009  -0.00552  -0.01541  -0.02094  -3.05369
   D16       -3.09751  -0.00016  -0.00417  -0.01193  -0.01609  -3.11360
   D17        1.04576  -0.00007  -0.00658  -0.01074  -0.01731   1.02845
   D18       -0.99355  -0.00012  -0.00605  -0.01378  -0.01984  -1.01339
   D19       -0.95757  -0.00015  -0.00169  -0.01154  -0.01323  -0.97080
   D20        1.14652  -0.00012  -0.00364  -0.01326  -0.01690   1.12962
   D21       -3.09740  -0.00010  -0.00410  -0.01063  -0.01473  -3.11213
   D22       -3.09783  -0.00010  -0.00418  -0.01060  -0.01477  -3.11260
   D23       -0.99374  -0.00008  -0.00612  -0.01231  -0.01843  -1.01218
   D24        1.04552  -0.00006  -0.00658  -0.00969  -0.01627   1.02926
   D25        1.14607  -0.00010  -0.00371  -0.01270  -0.01641   1.12966
   D26       -3.03303  -0.00007  -0.00566  -0.01442  -0.02008  -3.05310
   D27       -0.99376  -0.00005  -0.00612  -0.01179  -0.01791  -1.01167
   D28        0.95772   0.00015   0.00172   0.01166   0.01337   0.97110
   D29        3.09741   0.00016   0.00411   0.01210   0.01620   3.11361
   D30       -1.14665   0.00013   0.00357   0.01379   0.01736  -1.12929
   D31       -1.14619   0.00011   0.00368   0.01338   0.01706  -1.12913
   D32        0.99349   0.00012   0.00607   0.01382   0.01989   1.01339
   D33        3.03262   0.00009   0.00553   0.01552   0.02105   3.05367
   D34        3.09780   0.00005   0.00411   0.01028   0.01438   3.11219
   D35       -1.04570   0.00006   0.00649   0.01072   0.01721  -1.02848
   D36        0.99343   0.00004   0.00596   0.01242   0.01837   1.01180
   D37       -0.95764  -0.00015  -0.00173  -0.01153  -0.01325  -0.97089
   D38        1.14610  -0.00013  -0.00363  -0.01316  -0.01679   1.12931
   D39       -3.09790  -0.00010  -0.00417  -0.01051  -0.01468  -3.11257
   D40       -3.09766  -0.00008  -0.00417  -0.01087  -0.01503  -3.11269
   D41       -0.99392  -0.00005  -0.00608  -0.01251  -0.01858  -1.01250
   D42        1.04527  -0.00002  -0.00661  -0.00985  -0.01646   1.02881
   D43        1.14654  -0.00011  -0.00362  -0.01351  -0.01713   1.12940
   D44       -3.03291  -0.00009  -0.00553  -0.01515  -0.02068  -3.05359
   D45       -0.99372  -0.00006  -0.00606  -0.01250  -0.01856  -1.01228
   D46        0.95773   0.00014   0.00176   0.01129   0.01304   0.97077
   D47        3.09750   0.00010   0.00408   0.01052   0.01460   3.11210
   D48       -1.14640   0.00012   0.00364   0.01311   0.01674  -1.12966
   D49       -1.14598   0.00009   0.00369   0.01258   0.01627  -1.12971
   D50        0.99379   0.00005   0.00601   0.01181   0.01782   1.01162
   D51        3.03308   0.00007   0.00557   0.01440   0.01997   3.05304
   D52        3.09792   0.00010   0.00419   0.01047   0.01466   3.11258
   D53       -1.04549   0.00006   0.00651   0.00971   0.01622  -1.02928
   D54        0.99379   0.00008   0.00607   0.01229   0.01836   1.01215
         Item               Value     Threshold  Converged?
 Maximum Force            0.000581     0.000450     NO 
 RMS     Force            0.000151     0.000300     YES
 Maximum Displacement     0.028595     0.001800     NO 
 RMS     Displacement     0.009863     0.001200     NO 
 Predicted change in Energy=-4.453358D-05
 GradGradGradGradGradGradGradGradGradGradGradGradGradGradGradGradGradGrad

                          Input orientation:                          
 ---------------------------------------------------------------------
 Center     Atomic      Atomic             Coordinates (Angstroms)
 Number     Number       Type             X           Y           Z
 ---------------------------------------------------------------------
      1          6           0        0.324809    0.234330   -1.421667
      2          6           0       -1.012317   -0.385428   -1.004780
      3          6           0       -1.420834    0.074712    0.397525
      4          6           0       -0.324832   -0.234314    1.421785
      5          6           0        1.012298    0.385426    1.004909
      6          6           0        1.420816   -0.074689   -0.397423
      7          1           0        0.205999    1.325210   -1.503460
      8          1           0        0.619455   -0.126130   -2.414498
      9          1           0       -1.793099   -0.131360   -1.731463
     10          1           0       -0.918711   -1.481789   -1.010723
     11          1           0       -1.602994    1.159734    0.381308
     12          1           0       -2.363774   -0.399986    0.693929
     13          1           0       -0.619498    0.126163    2.414596
     14          1           0       -0.206046   -1.325203    1.503593
     15          1           0        0.918735    1.481799    1.010862
     16          1           0        1.793063    0.131344    1.731577
     17          1           0        2.363737    0.399998   -0.693864
     18          1           0        1.602995   -1.159716   -0.381205
 ---------------------------------------------------------------------
                    Distance matrix (angstroms):
                    1          2          3          4          5
     1  C    0.000000
     2  C    1.531600   0.000000
     3  C    2.526302   1.531363   0.000000
     4  C    2.954129   2.526597   1.531610   0.000000
     5  C    2.526607   2.955018   2.526973   1.531594   0.000000
     6  C    1.531601   2.526970   2.954528   2.526318   1.531380
     7  H    1.100375   2.158532   2.797154   3.357224   2.797361
     8  H    1.096569   2.171917   3.480027   3.952272   3.479707
     9  H    2.171459   1.096467   2.171091   3.479854   3.952854
    10  H    2.158768   1.100365   2.158236   2.797496   3.358282
    11  H    2.797055   2.158163   1.100327   2.158625   2.797890
    12  H    3.479451   2.170774   1.096508   2.171292   3.480151
    13  H    3.952256   3.479678   2.171028   1.096560   2.171910
    14  H    3.357245   2.797353   2.158439   1.100382   2.158541
    15  H    2.797521   3.358320   2.798153   2.158786   1.100374
    16  H    3.479845   3.952829   3.480235   2.171440   1.096447
    17  H    2.171260   3.480130   3.952204   3.479472   2.170813
    18  H    2.158631   2.797896   3.357644   2.797080   2.158170
                    6          7          8          9         10
     6  C    0.000000
     7  H    2.158429   0.000000
     8  H    2.171041   1.762761   0.000000
     9  H    3.480247   2.483943   2.507385   0.000000
    10  H    2.798115   3.063822   2.484824   1.762861   0.000000
    11  H    3.357626   2.617668   3.795953   2.483317   3.063272
    12  H    3.952213   3.795860   4.317056   2.506064   2.482809
    13  H    3.480039   4.179751   4.991874   4.316649   3.795766
    14  H    2.797199   4.029496   4.179793   3.795996   2.618052
    15  H    2.158241   2.618077   3.795800   4.180511   4.030616
    16  H    2.171095   3.795991   4.316664   4.992215   4.180445
    17  H    1.096497   2.483404   2.505975   4.317202   3.796839
    18  H    1.100334   3.063644   2.483935   3.796599   2.618974
                   11         12         13         14         15
    11  H    0.000000
    12  H    1.763305   0.000000
    13  H    2.483907   2.505998   0.000000
    14  H    3.063642   2.483420   1.762762   0.000000
    15  H    2.619004   3.796897   2.484830   3.063850   0.000000
    16  H    3.796579   4.317212   2.507387   2.483936   1.762840
    17  H    4.179492   4.991524   4.317083   3.795909   2.482824
    18  H    4.029844   4.179516   3.795979   2.617723   3.063276
                   16         17         18
    16  H    0.000000
    17  H    2.506114   0.000000
    18  H    2.483305   1.763291   0.000000
 Stoichiometry    C6H12
 Framework group  C1[X(C6H12)]
 Deg. of freedom    48
 Full point group                 C1      NOp   1
 Largest Abelian subgroup         C1      NOp   1
 Largest concise Abelian subgroup C1      NOp   1
                         Standard orientation:                         
 ---------------------------------------------------------------------
 Center     Atomic      Atomic             Coordinates (Angstroms)
 Number     Number       Type             X           Y           Z
 ---------------------------------------------------------------------
      1          6           0       -0.181981    1.447153    0.233124
      2          6           0       -1.344707    0.566028   -0.233231
      3          6           0       -1.162544   -0.881087    0.233405
      4          6           0        0.181981   -1.447157   -0.233120
      5          6           0        1.344713   -0.566041    0.233216
      6          6           0        1.162543    0.881100   -0.233394
      7          1           0       -0.188414    1.499612    1.332230
      8          1           0       -0.310166    2.473058   -0.132320
      9          1           0       -2.297327    0.967090    0.132698
     10          1           0       -1.393798    0.586233   -1.332314
     11          1           0       -1.204729   -0.912709    1.332468
     12          1           0       -1.986216   -1.505363   -0.132894
     13          1           0        0.310142   -2.473049    0.132344
     14          1           0        0.188395   -1.499639   -1.332231
     15          1           0        1.393848   -0.586240    1.332307
     16          1           0        2.297309   -0.967096   -0.132723
     17          1           0        1.986182    1.505404    0.132898
     18          1           0        1.204745    0.912727   -1.332464
 ---------------------------------------------------------------------
 Rotational constants (GHZ):      4.3185019      4.3164148      2.4701514
 Standard basis: 6-31+G(d) (6D, 7F)
 There are   138 symmetry adapted cartesian basis functions of A   symmetry.
 There are   138 symmetry adapted basis functions of A   symmetry.
   138 basis functions,   240 primitive gaussians,   138 cartesian basis functions
    24 alpha electrons       24 beta electrons
       nuclear repulsion energy       255.9166023370 Hartrees.
 NAtoms=   18 NActive=   18 NUniq=   18 SFac= 1.00D+00 NAtFMM=   60 NAOKFM=F Big=F
 Integral buffers will be    131072 words long.
 Raffenetti 2 integral format.
 Two-electron integral symmetry is turned on.
 One-electron integrals computed using PRISM.
 NBasis=   138 RedAO= T EigKep=  6.35D-05  NBF=   138
 NBsUse=   138 1.00D-06 EigRej= -1.00D+00 NBFU=   138
 Initial guess from the checkpoint file:  "/srv/scratch/z5358697/gauss/Gau-1287422.chk"
 B after Tr=     0.000000    0.000000    0.000000
         Rot=    0.926754    0.000038   -0.000033    0.375668 Ang=  44.13 deg.
 ExpMin= 4.38D-02 ExpMax= 3.05D+03 ExpMxC= 4.57D+02 IAcc=2 IRadAn=         4 AccDes= 0.00D+00
 Harris functional with IExCor= 1009 and IRadAn=       4 diagonalized for initial guess.
 HarFok:  IExCor= 1009 AccDes= 0.00D+00 IRadAn=         4 IDoV= 1 UseB2=F ITyADJ=14
 ICtDFT=  3500011 ScaDFX=  1.000000  1.000000  1.000000  1.000000
 FoFCou: FMM=F IPFlag=           0 FMFlag=      100000 FMFlg1=           0
         NFxFlg=           0 DoJE=T BraDBF=F KetDBF=T FulRan=T
         wScrn=  0.000000 ICntrl=     500 IOpCl=  0 I1Cent=   200000004 NGrid=           0
         NMat0=    1 NMatS0=      1 NMatT0=    0 NMatD0=    1 NMtDS0=    0 NMtDT0=    0
 Petite list used in FoFCou.
 Requested convergence on RMS density matrix=1.00D-08 within 128 cycles.
 Requested convergence on MAX density matrix=1.00D-06.
 Requested convergence on             energy=1.00D-06.
 No special actions if energy rises.
 SCF Done:  E(RM062X) =  -235.756682404     A.U. after    9 cycles
            NFock=  9  Conv=0.13D-08     -V/T= 2.0093
 Calling FoFJK, ICntrl=      2127 FMM=F ISym2X=0 I1Cent= 0 IOpClX= 0 NMat=1 NMatS=1 NMatT=0.
 ***** Axes restored to original set *****
 -------------------------------------------------------------------
 Center     Atomic                   Forces (Hartrees/Bohr)
 Number     Number              X              Y              Z
 -------------------------------------------------------------------
      1        6           0.000111256   -0.000018925   -0.000150151
      2        6           0.000086768    0.000065636   -0.000115222
      3        6          -0.000039780   -0.000195104   -0.000278475
      4        6          -0.000118502    0.000013283    0.000143919
      5        6          -0.000087412   -0.000054254    0.000098103
      6        6           0.000036005    0.000184271    0.000286526
      7        1          -0.000009323   -0.000184639    0.000117226
      8        1          -0.000087918   -0.000040987    0.000061303
      9        1           0.000030815    0.000011125    0.000010861
     10        1           0.000058298    0.000200037   -0.000030704
     11        1           0.000013866   -0.000166419    0.000004593
     12        1          -0.000034702    0.000110682    0.000047915
     13        1           0.000088350    0.000042289   -0.000055661
     14        1           0.000009889    0.000189513   -0.000117750
     15        1          -0.000061004   -0.000205664    0.000031424
     16        1          -0.000021435   -0.000015349   -0.000003389
     17        1           0.000040827   -0.000105700   -0.000044629
     18        1          -0.000015997    0.000170204   -0.000005888
 -------------------------------------------------------------------
 Cartesian Forces:  Max     0.000286526 RMS     0.000110114

 GradGradGradGradGradGradGradGradGradGradGradGradGradGradGradGradGradGrad
 Berny optimization.
 Using GEDIIS/GDIIS optimizer.
 FormGI is forming the generalized inverse of G from B-inverse, IUseBI=4.
 Internal  Forces:  Max     0.000198371 RMS     0.000064128
 Search for a local minimum.
 Step number   3 out of a maximum of  108
 All quantities printed in internal units (Hartrees-Bohrs-Radians)
 Mixed Optimization -- En-DIIS/RFO-DIIS
 Swapping is turned off.
 Update second derivatives using D2CorX and points    1    2    3
 DE= -9.97D-05 DEPred=-4.45D-05 R= 2.24D+00
 TightC=F SS=  1.41D+00  RLast= 1.26D-01 DXNew= 8.4853D-01 3.7650D-01
 Trust test= 2.24D+00 RLast= 1.26D-01 DXMaxT set to 5.05D-01
 ITU=  1  1  0
     Eigenvalues ---    0.00498   0.00607   0.00607   0.01952   0.01958
     Eigenvalues ---    0.03703   0.03968   0.03970   0.04562   0.04871
     Eigenvalues ---    0.04900   0.04914   0.05593   0.05594   0.06060
     Eigenvalues ---    0.06148   0.08001   0.08005   0.08115   0.08118
     Eigenvalues ---    0.08125   0.08130   0.08169   0.08297   0.12071
     Eigenvalues ---    0.12073   0.12134   0.16008   0.16012   0.21878
     Eigenvalues ---    0.28140   0.28430   0.28432   0.29740   0.29861
     Eigenvalues ---    0.32543   0.34000   0.34007   0.34015   0.34019
     Eigenvalues ---    0.34023   0.34127   0.34137   0.34145   0.34148
     Eigenvalues ---    0.34159   0.34440   0.35829
 En-DIIS/RFO-DIIS IScMMF=        0 using points:     3    2    1
 RFO step:  Lambda=-1.07760528D-06.
 DidBck=F Rises=F RFO-DIIS coefs:    0.94451    0.06675   -0.01127
 Iteration  1 RMS(Cart)=  0.00051607 RMS(Int)=  0.00000068
 Iteration  2 RMS(Cart)=  0.00000029 RMS(Int)=  0.00000064
 Variable       Old X    -DE/DX   Delta X   Delta X   Delta X     New X
                                 (Linear)    (Quad)   (Total)
    R1        2.89431  -0.00015   0.00011  -0.00060  -0.00049   2.89382
    R2        2.89431   0.00004   0.00017  -0.00007   0.00010   2.89441
    R3        2.07941  -0.00019  -0.00001  -0.00050  -0.00051   2.07890
    R4        2.07221  -0.00006   0.00005  -0.00024  -0.00019   2.07202
    R5        2.89386  -0.00006   0.00019  -0.00043  -0.00024   2.89362
    R6        2.07202  -0.00003   0.00007  -0.00017  -0.00010   2.07192
    R7        2.07939  -0.00019  -0.00001  -0.00050  -0.00051   2.07888
    R8        2.89432   0.00004   0.00018  -0.00009   0.00009   2.89441
    R9        2.07932  -0.00017  -0.00001  -0.00043  -0.00044   2.07888
   R10        2.07210  -0.00001   0.00006  -0.00009  -0.00003   2.07207
   R11        2.89429  -0.00015   0.00011  -0.00060  -0.00048   2.89381
   R12        2.07220  -0.00006   0.00005  -0.00023  -0.00018   2.07202
   R13        2.07942  -0.00020  -0.00001  -0.00051  -0.00052   2.07890
   R14        2.89389  -0.00007   0.00020  -0.00046  -0.00027   2.89362
   R15        2.07941  -0.00020   0.00000  -0.00052  -0.00052   2.07888
   R16        2.07198  -0.00002   0.00007  -0.00014  -0.00006   2.07192
   R17        2.07208   0.00000   0.00006  -0.00007  -0.00001   2.07207
   R18        2.07933  -0.00017   0.00000  -0.00045  -0.00045   2.07888
    A1        1.94021   0.00004   0.00021   0.00006   0.00028   1.94048
    A2        1.90406  -0.00004  -0.00002  -0.00075  -0.00077   1.90329
    A3        1.92624  -0.00010  -0.00011  -0.00064  -0.00075   1.92549
    A4        1.90392  -0.00004  -0.00002  -0.00034  -0.00036   1.90355
    A5        1.92503   0.00008   0.00000   0.00088   0.00088   1.92591
    A6        1.86251   0.00005  -0.00007   0.00079   0.00072   1.86323
    A7        1.93966   0.00001   0.00023  -0.00004   0.00019   1.93985
    A8        1.92571   0.00004  -0.00005   0.00036   0.00031   1.92602
    A9        1.90439  -0.00006  -0.00007  -0.00051  -0.00058   1.90381
   A10        1.92550  -0.00002  -0.00002  -0.00010  -0.00012   1.92537
   A11        1.90395   0.00002  -0.00003   0.00004   0.00001   1.90395
   A12        1.86280   0.00001  -0.00008   0.00026   0.00019   1.86298
   A13        1.93999   0.00001   0.00023   0.00018   0.00041   1.94040
   A14        1.90389  -0.00001  -0.00004  -0.00038  -0.00042   1.90347
   A15        1.92502   0.00009  -0.00001   0.00129   0.00128   1.92630
   A16        1.90422  -0.00003  -0.00004  -0.00070  -0.00074   1.90348
   A17        1.92543  -0.00002  -0.00005   0.00014   0.00009   1.92552
   A18        1.86347  -0.00003  -0.00010  -0.00059  -0.00069   1.86278
   A19        1.94021   0.00004   0.00021   0.00006   0.00028   1.94048
   A20        1.92501   0.00008   0.00000   0.00090   0.00090   1.92591
   A21        1.90391  -0.00004  -0.00003  -0.00033  -0.00036   1.90355
   A22        1.92625  -0.00010  -0.00011  -0.00065  -0.00076   1.92549
   A23        1.90407  -0.00004  -0.00001  -0.00076  -0.00078   1.90329
   A24        1.86251   0.00005  -0.00007   0.00079   0.00072   1.86323
   A25        1.93967   0.00001   0.00022  -0.00004   0.00018   1.93985
   A26        1.90441  -0.00006  -0.00006  -0.00054  -0.00060   1.90381
   A27        1.92572   0.00004  -0.00004   0.00036   0.00031   1.92603
   A28        1.90393   0.00002  -0.00003   0.00005   0.00003   1.90395
   A29        1.92550  -0.00003  -0.00003  -0.00010  -0.00013   1.92537
[...]
 8324407,0.06428988,-0.08071003,-0.26246387,0.00171456,-0.00283341,-0.0
 0678241,0.00178381,0.00154990,0.00113764,-0.00027927,-0.00020278,0.000
 70294,-0.00474587,0.00208315,-0.00126542,0.00622114,-0.00786421,-0.019
 30333,-0.00096472,0.00044061,0.00274406,-0.06895265,0.08769970,0.28523
 338,-0.02040120,0.00819526,-0.01975319,-0.18291064,0.04615693,-0.12525
 512,0.00811619,-0.00292893,0.00746931,-0.00004058,0.00066349,0.0019633
 7,0.00011201,0.00016707,0.00061920,-0.00428640,-0.00384649,0.00377869,
 0.00107255,-0.00031547,-0.00019589,0.00062697,0.00069974,0.00029379,0.
 19963527,-0.01129592,0.00288204,-0.01037147,0.04690322,-0.06652135,0.0
 4312755,-0.00844583,0.00187952,-0.00814042,0.00102470,-0.00037434,-0.0
 0148694,0.00010444,0.00007589,0.00014727,-0.00191524,-0.00100405,0.001
 36408,0.00043472,0.00045062,-0.00054383,0.00079311,0.00024236,0.000048
 94,-0.04931151,0.06794995,0.00794285,-0.00305628,0.00759432,-0.1250644
 9,0.04243303,-0.16420090,-0.02252054,0.00854256,-0.01976274,0.00406724
 ,-0.00322213,-0.00518251,0.00063603,0.00021972,0.00010708,0.00193959,0
 .00092654,-0.00009103,-0.00056495,-0.00028955,0.00016504,-0.00050766,-
 0.00045185,0.00051876,0.13443196,-0.04601510,0.17941931,0.00123782,-0.
 03100718,0.00031311,-0.05091270,0.02334362,-0.00232483,-0.00165295,0.0
 1071424,0.00070852,0.00005264,-0.00080551,-0.00068663,-0.00015876,0.00
 002480,-0.00000526,0.00171303,-0.00105881,0.00038542,-0.00518082,-0.00
 287028,0.00145557,0.00124629,0.00073457,-0.00015830,-0.00206776,0.0236
 0149,0.00069074,0.05541152,0.00076548,-0.01476139,0.00080274,0.0231866
 6,-0.30059075,-0.00003143,0.00173459,-0.01072679,-0.00025378,-0.000093
 28,0.00026321,0.00078203,-0.00019482,0.00019910,-0.00015555,0.00108941
 ,0.00037355,-0.00001998,-0.00275131,0.00025187,0.00092745,-0.00011675,
 0.00054889,0.00034843,0.00092561,-0.00758722,0.00027976,-0.02418214,0.
 32899293,-0.00046872,0.01087810,-0.00072302,-0.00225226,0.00023024,-0.
 04861543,0.00330818,-0.03235704,-0.00147858,0.00047098,-0.00117789,0.0
 0165870,-0.00004269,0.00004300,-0.00018151,-0.00053505,-0.00070165,0.0
 0001907,0.00227237,0.00072017,0.00025659,-0.00044269,0.00012459,0.0000
 1707,-0.00125129,0.02207186,0.00007979,-0.00242502,0.00073439,0.053430
 25,0.00016172,0.00114828,-0.00041503,-0.00196265,0.00843307,0.00021475
 ,-0.05683938,0.03842827,0.00049188,-0.00487251,0.02442212,-0.00106948,
 0.00116606,0.00158460,0.00040731,-0.00022708,-0.00014512,-0.00000494,-
 0.00004039,-0.00021928,0.00025431,0.00012426,-0.00022049,-0.00005387,0
 .00022214,-0.00053461,-0.00020654,0.00028158,0.00066942,0.00154174,0.0
 5899298,-0.00044608,0.00053199,0.00086871,0.00116916,-0.01118982,-0.00
 060116,0.03908269,-0.29681020,0.00454774,0.00085908,-0.00744741,0.0007
 9823,-0.00052777,0.00040791,-0.00040174,0.00014186,0.00022411,-0.00004
 613,0.00073143,0.00050285,-0.00021400,-0.00006542,0.00035916,-0.000079
 04,-0.00028280,0.00039601,-0.00037078,0.00038810,0.00081830,-0.0022204
 1,-0.04472377,0.32406035,-0.00105292,-0.00081693,0.00154660,0.00549942
 ,-0.03264358,-0.00133098,0.00049379,0.00458393,-0.04699496,-0.00456086
 ,0.02432371,-0.00154368,0.00128958,0.00012233,0.00053661,0.00000252,0.
 00002276,-0.00016807,0.00028482,0.00079847,-0.00008825,-0.00044331,0.0
 0031101,0.00007821,-0.00060888,0.00037306,0.00119012,0.00233146,-0.002
 03577,-0.00577123,0.00188105,-0.00399637,0.05543815,0.00106471,0.00139
 525,0.00177000,-0.00650653,-0.00343123,0.00192138,-0.24104126,-0.09928
 615,0.06104706,-0.01979771,-0.01096330,0.00681370,-0.00191166,0.002428
 59,-0.00478626,0.00070577,-0.00012244,-0.00035012,0.00004849,-0.000105
 74,-0.00004344,-0.00047960,-0.00034156,0.00004564,0.00052951,0.0000912
 0,0.00024266,-0.00004290,0.00030296,-0.00008849,0.00531928,0.00209276,
 -0.00183655,0.26204044,0.00017187,-0.00038210,-0.00173408,0.01092901,0
 .00445160,-0.00359867,-0.10039720,-0.10188132,0.03169683,0.00816309,0.
 00290694,-0.00217724,0.00063345,0.00008631,0.00084546,-0.00003193,0.00
 000524,-0.00001920,0.00030408,0.00039890,-0.00021254,0.00031628,0.0004
 9261,-0.00026475,-0.00033691,0.00008987,0.00070490,0.00016425,0.000546
 55,0.00058171,-0.02816967,-0.01416557,0.00880966,0.10837088,0.10620204
 ,0.00016602,-0.00354054,-0.00612369,0.02729079,0.01513429,-0.00808713,
 0.06128148,0.03140971,-0.06651672,-0.02077716,-0.01149494,0.00697495,-
 0.00299790,0.00178373,-0.00363353,-0.00034744,-0.00000131,-0.00043037,
 -0.00042289,-0.00007415,0.00012516,0.00206782,0.00061159,-0.00055550,-
 0.00057004,0.00070929,0.00080178,-0.00036934,-0.00024108,0.00125560,0.
 00005779,0.00026425,-0.00073157,-0.06574413,-0.03380138,0.07482846,-0.
 00044609,-0.00001737,-0.00030514,-0.00413264,0.00178206,-0.00274157,0.
 00744929,-0.00945739,-0.02350952,-0.06671688,0.02447010,0.06418952,-0.
 00753948,0.01156789,0.02738467,-0.00563291,-0.00397103,0.00011414,0.00
 010353,-0.00001056,0.00004230,0.00022316,0.00004456,0.00006279,0.00041
 520,-0.00026538,-0.00165405,-0.00010381,-0.00001007,0.00024553,0.00080
 195,0.00006209,0.00078227,0.00080477,-0.00053715,0.00070199,0.07481071
 ,-0.00003858,0.00002410,-0.00013445,0.00092609,0.00008152,0.00049032,-
 0.00201920,0.00187125,0.00817122,0.02468826,-0.08070996,-0.08166766,-0
 .00431214,0.00450432,0.01460380,-0.00239049,-0.00107367,0.00009653,0.0
 0002135,-0.00002703,-0.00001428,0.00004456,-0.00003814,-0.00002977,0.0
 0003141,0.00044855,0.00019021,-0.00006732,0.00039269,0.00043989,-0.000
 55066,0.00042023,0.00002769,-0.00029054,-0.00006318,-0.00054433,-0.025
 75024,0.08324757,-0.00027926,-0.00020278,0.00070294,-0.00474593,0.0020
 8321,-0.00126570,0.00622122,-0.00786477,-0.01930414,0.06429796,-0.0807
 1797,-0.26247099,0.00171449,-0.00283324,-0.00678203,0.00178366,0.00154
 978,0.00113768,0.00002375,0.00009799,-0.00003469,0.00006278,-0.0000297
 7,0.00000123,0.00053022,-0.00037210,-0.00140778,-0.00002533,-0.0000630
 8,0.00026688,0.00035898,0.00049462,0.00042059,-0.00014456,-0.00034421,
 0.00069228,-0.06896019,0.08770774,0.28524039,-0.00016328,-0.00002183,0
 .00001491,0.00060621,0.00011794,0.00135669,-0.00420742,0.02596681,-0.0
 0227956,-0.04956886,0.02809609,-0.00077075,0.00170823,-0.03147492,0.00
 252281,0.00151296,-0.00052112,-0.00117184,-0.00017245,0.00003289,-0.00
 004096,0.00010353,0.00002134,0.00002375,-0.00008470,-0.00028297,0.0002
 6939,0.00036915,-0.00063237,-0.00034097,-0.00316332,0.00092268,-0.0041
 2926,0.00047158,-0.00010488,0.00080483,-0.00155494,0.00883525,-0.00096
 507,0.05824353,-0.00008979,0.00021273,0.00019335,-0.00048453,0.0003391
 4,-0.00047465,0.00131814,-0.00725657,0.00010987,0.02830093,-0.29836153
 ,0.01646480,0.00056796,-0.01496329,0.00058862,0.00097035,0.00047540,-0
 .00061174,0.00003290,-0.00000099,-0.00022050,-0.00001055,-0.00002703,0
 .00009799,0.00000548,0.00035530,0.00005624,-0.00022890,0.00038589,0.00
 080613,0.00116938,0.00115860,0.00086772,0.00046795,0.00050770,0.000095
 12,0.00116526,-0.01072118,0.00044096,-0.02967398,0.32629139,0.00001900
 ,-0.00010768,-0.00022091,0.00021195,0.00147439,0.00109917,-0.00301909,
 0.02286130,-0.00245987,-0.00077973,0.01614321,-0.05143254,-0.00061150,
 0.00858192,-0.00123750,-0.00052393,0.00116447,0.00047670,-0.00004097,-
 0.00022050,0.00009878,0.00004231,-0.00001428,-0.00003469,-0.00000470,-
 0.00035987,0.00029020,-0.00001827,-0.00060962,-0.00037335,-0.00338147,
 0.00119076,-0.00269176,0.00052609,-0.00055987,0.00075132,0.00297314,-0
 .02993231,0.00274481,0.00313668,-0.01956888,0.05253087,0.00005256,-0.0
 0080548,-0.00068653,-0.00015877,0.00002481,-0.00000527,0.00171301,-0.0
 0105869,0.00038540,0.00123795,-0.03100696,0.00031251,-0.05091356,0.023
 33223,-0.00232477,-0.00165269,0.01071398,0.00070881,0.00036915,-0.0002
 2888,-0.00001830,-0.00010378,-0.00006729,-0.00002531,0.00003726,0.0000
 1933,-0.00006962,-0.00007160,0.00015300,0.00011445,-0.00038715,0.00067
 049,-0.00017334,0.00022906,0.00040622,0.00025649,0.00124636,0.00073455
 ,-0.00015828,-0.00518087,-0.00287009,0.00145552,0.05541133,-0.00009327
 ,0.00026317,0.00078198,-0.00019479,0.00019912,-0.00015552,0.00108926,0
 .00037343,-0.00001994,0.00076553,-0.01476013,0.00080257,0.02317607,-0.
 30057606,-0.00003341,0.00173477,-0.01072685,-0.00025439,-0.00063236,0.
 00038585,-0.00060955,-0.00001010,0.00039267,-0.00006311,-0.00006440,-0
 .00003620,-0.00007651,0.00015300,0.00004657,0.00016692,-0.00070582,0.0
 0045092,-0.00061537,-0.00007616,0.00043179,0.00006040,-0.00011682,0.00
 054891,0.00034846,-0.00275116,0.00025208,0.00092734,-0.02417174,0.3289
 7908,0.00047102,-0.00117779,0.00165875,-0.00004266,0.00004300,-0.00018
 151,-0.00053499,-0.00070163,0.00001901,-0.00046870,0.01087755,-0.00072
 318,-0.00225217,0.00022708,-0.04861662,0.00330776,-0.03235691,-0.00147
 976,-0.00034097,0.00080610,-0.00037319,0.00024551,0.00043992,0.0002668
 5,-0.00007693,0.00000608,0.00003719,0.00011446,0.00016692,-0.00005122,
 0.00000715,-0.00030417,0.00028501,-0.00003641,-0.00004187,-0.00011189,
 -0.00044264,0.00012462,0.00001712,0.00227229,0.00072012,0.00025663,-0.
 00242508,0.00073736,0.05343203,-0.00004082,0.00066352,0.00196350,0.000
 11200,0.00016707,0.00061919,-0.00428650,-0.00384642,0.00377866,-0.0204
 0183,0.00819589,-0.01975357,-0.18292732,0.04616673,-0.12527440,0.00811
 670,-0.00292922,0.00746971,-0.00008472,0.00000547,-0.00000471,0.000415
 27,0.00003141,0.00053027,0.00010125,0.00004143,-0.00013682,0.00003726,
 -0.00006440,-0.00007694,0.00032963,0.00003407,0.00027926,-0.00140665,0
 .00016605,-0.00151293,0.00062699,0.00069972,0.00029380,0.00107267,-0.0
 0031546,-0.00019590,-0.00206700,0.00092568,-0.00125086,0.19965158,0.00
 102472,-0.00037438,-0.00148700,0.00010443,0.00007589,0.00014730,-0.001
 91532,-0.00100397,0.00136404,-0.01129627,0.00288227,-0.01037140,0.0469
 1335,-0.06652074,0.04313724,-0.00844586,0.00187954,-0.00814041,-0.0002
 8298,0.00035529,-0.00035985,-0.00026541,0.00044854,-0.00037212,0.00004
 143,-0.00003488,0.00001531,0.00001934,-0.00003621,0.00000609,-0.000365
 23,0.00034650,-0.00019565,-0.00059697,0.00044144,-0.00037809,0.0007930
 9,0.00024230,0.00004898,0.00043471,0.00045067,-0.00054384,0.02360208,-
 0.00758923,0.02207228,-0.04932177,0.06795111,0.00406720,-0.00322198,-0
 .00518257,0.00063600,0.00021972,0.00010709,0.00193964,0.00092652,-0.00
 009109,0.00794311,-0.00305649,0.00759453,-0.12508430,0.04244262,-0.164
 21548,-0.02252022,0.00854319,-0.01976188,0.00026940,0.00005622,0.00029
 019,-0.00165404,0.00019020,-0.00140772,-0.00013681,0.00001531,0.000120
 35,-0.00006962,-0.00007650,0.00003719,-0.00005592,0.00003980,-0.000114
 89,0.00056012,0.00007413,0.00043593,-0.00050772,-0.00045186,0.00051866
 ,-0.00056495,-0.00028952,0.00016509,0.00069112,0.00027965,0.00008033,0
 .13445081,-0.04602519,0.17943238,-0.01979944,-0.01096422,0.00681386,-0
 .00191188,0.00242859,-0.00478638,0.00070573,-0.00012244,-0.00035014,0.
 00106466,0.00139506,0.00176958,-0.00650463,-0.00343035,0.00192027,-0.2
 4105028,-0.09929279,0.06105878,0.00047168,0.00046793,0.00052617,0.0008
 0481,-0.00029056,-0.00014459,-0.00140670,-0.00059697,0.00056012,0.0002
 2910,-0.00007612,-0.00003642,-0.00003878,0.00009272,0.00003515,0.00001
 148,-0.00002824,0.00006816,-0.00047947,-0.00034153,0.00004561,0.000048
 44,-0.00010575,-0.00004341,-0.00004287,0.00030298,-0.00008839,0.000529
 30,0.00009123,0.00024274,0.26204941,0.00816299,0.00290698,-0.00217696,
 0.00063336,0.00008632,0.00084539,-0.00003195,0.00000524,-0.00001920,0.
 00017184,-0.00038219,-0.00173424,0.01092933,0.00445152,-0.00359838,-0.
 10040385,-0.10188188,0.03170207,-0.00010486,0.00050771,-0.00055987,-0.
 00053713,-0.00006316,-0.00034417,0.00016601,0.00044144,0.00007413,0.00
 040622,0.00043183,-0.00004189,-0.00001920,-0.00001860,0.00001362,-0.00
 002824,-0.00005022,0.00002749,0.00031635,0.00049261,-0.00026476,0.0003
 0408,0.00039886,-0.00021254,0.00016423,0.00054655,0.00058174,-0.000336
 97,0.00008986,0.00070493,0.10837751,0.10620389,-0.02077779,-0.01149509
 ,0.00697503,-0.00299800,0.00178367,-0.00363336,-0.00034749,-0.00000129
 ,-0.00043033,0.00016575,-0.00354048,-0.00612368,0.02728902,0.01513437,
 -0.00808571,0.06129460,0.03141560,-0.06652139,0.00080486,0.00009512,0.
 00075126,0.00070194,-0.00054431,0.00069224,-0.00151293,-0.00037808,0.0
 0043588,0.00025651,0.00006044,-0.00011192,0.00004646,-0.00002004,0.000
 09986,0.00006815,0.00002750,0.00022507,0.00206780,0.00061161,-0.000555
 42,-0.00042282,-0.00007409,0.00012514,-0.00036928,-0.00024107,0.001255
 66,-0.00057015,0.00070929,0.00080173,-0.06575439,-0.03380756,0.0748312
 6,-0.00487276,0.02442266,-0.00106902,0.00116612,0.00158468,0.00040728,
 -0.00022707,-0.00014513,-0.00000492,0.00016172,0.00114817,-0.00041508,
 -0.00196249,0.00843263,0.00021506,-0.05684217,0.03842965,0.00049174,-0
 .00316348,0.00116933,-0.00338153,0.00080196,-0.00055068,0.00035894,0.0
 0032964,-0.00036522,-0.00005590,-0.00038711,-0.00070587,0.00000726,0.0
 0013164,-0.00020130,-0.00007417,-0.00003878,-0.00001920,0.00004646,0.0
 0012425,-0.00022050,-0.00005384,-0.00004044,-0.00021931,0.00025429,0.0
 0028162,0.00066933,0.00154161,0.00022220,-0.00053459,-0.00020657,0.005
 31945,-0.02816973,0.00005776,0.05899569,0.00085903,-0.00744722,0.00079
 816,-0.00052788,0.00040793,-0.00040172,0.00014183,0.00022412,-0.000046
 13,-0.00044598,0.00053187,0.00086862,0.00116918,-0.01118968,-0.0006016
 2,0.03908355,-0.29679558,0.00454772,0.00092265,0.00115865,0.00119079,0
 .00006213,0.00042023,0.00049468,0.00003407,0.00034651,0.00003980,0.000
 67051,0.00045096,-0.00030420,-0.00020130,-0.00004534,0.00004972,0.0000
 9272,-0.00001860,-0.00002005,-0.00006537,0.00035914,-0.00007906,0.0007
 3142,0.00050282,-0.00021401,0.00038821,0.00081835,-0.00222039,-0.00028
 281,0.00039601,-0.00037077,0.00209293,-0.01416679,0.00026442,-0.044724
 90,0.32404659,-0.00456073,0.02432331,-0.00154334,0.00128962,0.00012233
 ,0.00053656,0.00000251,0.00002276,-0.00016807,-0.00105293,-0.00081677,
 0.00154662,0.00549963,-0.03264325,-0.00133187,0.00049383,0.00458304,-0
 .04699639,-0.00412925,0.00086763,-0.00269167,0.00078224,0.00002767,0.0
 0042057,0.00027925,-0.00019563,-0.00011487,-0.00017321,-0.00061537,0.0
 0028511,-0.00007417,0.00004971,-0.00015975,0.00003514,0.00001361,0.000
 09986,-0.00044329,0.00031104,0.00007818,0.00028481,0.00079846,-0.00008
 809,0.00233148,-0.00203581,-0.00577124,-0.00060891,0.00037303,0.001190
 18,-0.00183670,0.00881021,-0.00073131,0.00188066,-0.00399597,0.0554395
 3\\-0.00011126,0.00001893,0.00015015,-0.00008677,-0.00006564,0.0001152
 2,0.00003978,0.00019510,0.00027847,0.00011850,-0.00001328,-0.00014392,
 0.00008741,0.00005425,-0.00009810,-0.00003600,-0.00018427,-0.00028653,
 0.00000932,0.00018464,-0.00011723,0.00008792,0.00004099,-0.00006130,-0
 .00003082,-0.00001112,-0.00001086,-0.00005830,-0.00020004,0.00003070,-
 0.00001387,0.00016642,-0.00000459,0.00003470,-0.00011068,-0.00004791,-
 0.00008835,-0.00004229,0.00005566,-0.00000989,-0.00018951,0.00011775,0
 .00006100,0.00020566,-0.00003142,0.00002144,0.00001535,0.00000339,-0.0
 0004083,0.00010570,0.00004463,0.00001600,-0.00017020,0.00000589\\\@


                                                                                    A
                                                                                  AA
                                                                                 AAA
                                                                                AAAA
                                                                               AAAAA
                                                                              AAAAAA   KKKKKKKK
                                                                             AAAAAAA   KKKKKKKK
                                                                            AAAAAAAA   KKKKKKKK
                                       ZZZZZZZZZZZZZZZZZZZZ                AAAA  AAA   KKKKKKKK
                                       ZZZZZZZZZZZZZZZZZZZ                AAAA   AAA   KKKKKKKK          K
                                       ZZZZZZZZZZZZZZZZZZ                AAAA    AAA   KKKKKKKK         KKK
                                       ZZZZZZZZZZZZZZZZZ                AAAA     AAA   KKKKKKKK        KKKKK
                                       ZZZZZZZZZZZZZZZZ                AAAA      AAA   KKKKKKKK       KKKKKKK
                                                ZZZZZZ                AAAA       AAA   KKKKKKKK      KKKKKKK
                                               ZZZZZZ                AAAA        AAA   KKKKKKKK     KKKKKKK
                                              ZZZZZZ                AAAA         AAA   KKKKKKKK    KKKKKKK
                                             ZZZZZZ                AAAA          AAA   KKKKKKKK   KKKKKKK
                                            ZZZZZZ                AAAAAAAAAAAAAAAAAA   KKKKKKKK  KKKKKKK
                                           ZZZZZZ                AAAAAAAAAAAAAAAAAAA   KKKKKKKK KKKKKKK
                                          ZZZZZZ                AAAAAAAAAAAAAAAAAAAA   KKKKKKKKKKKKKKK
                                         ZZZZZZ                AAAAAAAAAAAAAAAAAAAAA   KKKKKKKKKKKKKK
                                        ZZZZZZ                AAAAAA        AAAAAAAA   KKKKKKKKKKKKK
                                       ZZZZZZ                AAAAAA         AAAAAAAA   KKKKKKKKKKKK
                                      ZZZZZZ                AAAAAA          AAAAAAAA   KKKKKKKKKKK
                                     ZZZZZZ                AAAAAA           AAAAAAAA   KKKKKKKKKKKK
                                    ZZZZZZ                AAAAAA            AAAAAAAA   KKKKKKKKKKKKK
                                   ZZZZZZ                AAAAAA             AAAAAAAA   KKKKKKKKKKKKKK
                                  ZZZZZZ                AAAAAA              AAAAAAAA   KKKKKKKKKKKKKKK
                                 ZZZZZZ                AAAAAA               AAAAAAAA   KKKKK KKKKKKKKKK
                                ZZZZZZ                AAAAAA                AAAAAAAA   KKKKK  KKKKKKKKKK
                               ZZZZZZ                AAAAAA                            KKKKK   KKKKKKKKKK
                              ZZZZZZ                AAAAAA                             KKKKK    KKKKKKKKKK
                             ZZZZZZ                                                    KKKKK     KKKKKKKKKK
                            ZZZZZZ                                                     KKKKK      KKKKKKKKKK
                           ZZZZZZ                                                      KKKKK       KKKKKKKKKK
                          ZZZZZZ                                                       KKKKK        KKKKKKKKKK
                         ZZZZZZZZZZZZZZZZZZZZZZZZZZZZZZZZZZZZZZZZ                      KKKKK         KKKKKKKKKK
                        ZZZZZZZZZZZZZZZZZZZZZZZZZZZZZZZZZZZZZZZZZ                      KKKKK          KKKKKKKKKK
                       ZZZZZZZZZZZZZZZZZZZZZZZZZZZZZZZZZZZZZZZZZZ                      KKKKK           KKKKKKKKKK
                       ZZZZZZZZZZZZZZZZZZZZZZZZZZZZZZZZZZZZZZZZZZ                      KKKKK            KKKKKKKKKK
                       ZZZZZZZZZZZZZZZZZZZZZZZZZZZZZZZZZZZZZZZZZZ                      KKKKK             KKKKKKKKKK
                       ZZZZZZZZZZZZZZZZZZZZZZZZZZZZZZZZZZZZZZZZZZ                      KKKKK              KKKKKKKKKK
                       ZZZZZZZZZZZZZZZZZZZZZZZZZZZZZZZZZZZZZZZZZZ                      KKKKK               KKKKKKKKKK
                       ZZZZZZZZZZZZZZZZZZZZZZZZZZZZZZZZZZZZZZZZZZ                      KKKKK                KKKKKKKKKK
                       ZZZZZZZZZZZZZZZZZZZZZZZZZZZZZZZZZZZZZZZZZZ                      KKKKK
                                                                                       KKKKK
                                                                                          (J.P.)
 Job cpu time:       0 days  0 hours  4 minutes 57.2 seconds.
 File lengths (MBytes):  RWF=    133 Int=      0 D2E=      0 Chk=      3 Scr=      2
 Normal termination of Gaussian 09 at Wed Mar 19 12:05:51 2025.
