 Entering Gaussian System, Link 0=g09
 Initial command:
 /apps/z_install_tree/linux-rocky8-ivybridge/gcc-12.2.0/gaussian-09-D.01-wczn3gur5lpur3omlkzwa2l5ecyxp5ef/g09/l1.exe "/srv/scratch/z5358697/gauss/Gau-989795.inp" -scrdir="/srv/scratch/z5358697/gauss/"
 Entering Link 1 = /apps/z_install_tree/linux-rocky8-ivybridge/gcc-12.2.0/gaussian-09-D.01-wczn3gur5lpur3omlkzwa2l5ecyxp5ef/g09/l1.exe PID=    989796.
  
 Copyright (c) 1988,1990,1992,1993,1995,1998,2003,2009,2013,
            Gaussian, Inc.  All Rights Reserved.
  
 This is part of the Gaussian(R) 09 program.  It is based on
 the Gaussian(R) 03 system (copyright 2003, Gaussian, Inc.),
 the Gaussian(R) 98 system (copyright 1998, Gaussian, Inc.),
 the Gaussian(R) 94 system (copyright 1995, Gaussian, Inc.),
 the Gaussian 92(TM) system (copyright 1992, Gaussian, Inc.),
 the Gaussian 90(TM) system (copyright 1990, Gaussian, Inc.),
 the Gaussian 88(TM) system (copyright 1988, Gaussian, Inc.),
 the Gaussian 86(TM) system (copyright 1986, Carnegie Mellon
 University), and the Gaussian 82(TM) system (copyright 1983,
 Carnegie Mellon University). Gaussian is a federally registered
 trademark of Gaussian, Inc.
  
 This software contains proprietary and confidential information,
 including trade secrets, belonging to Gaussian, Inc.
  
 This software is provided under written license and may be
 used, copied, transmitted, or stored only in accord with that
 written license.
  
 The following legend is applicable only to US Government
 contracts under FAR:
  
                    RESTRICTED RIGHTS LEGEND
  
 Use, reproduction and disclosure by the US Government is
 subject to restrictions as set forth in subparagraphs (a)
 and (c) of the Commercial Computer Software - Restricted
 Rights clause in FAR 52.227-19.
  
 Gaussian, Inc.
 340 Quinnipiac St., Bldg. 40, Wallingford CT 06492
  
  
 ---------------------------------------------------------------
 Warning -- This program may not be used in any manner that
 competes with the business of Gaussian, Inc. or will provide
 assistance to any competitor of Gaussian, Inc.  The licensee
 of this program is prohibited from giving any competitor of
 Gaussian, Inc. access to this program.  By using this program,
 the user acknowledges that Gaussian, Inc. is engaged in the
 business of creating and licensing software in the field of
 computational chemistry and represents and warrants to the
 licensee that it is not a competitor of Gaussian, Inc. and that
 it will not use this program in any manner prohibited above.
 ---------------------------------------------------------------
  

 Cite this work as:
 Gaussian 09, Revision D.01,
 M. J. Frisch, G. W. Trucks, H. B. Schlegel, G. E. Scuseria, 
 M. A. Robb, J. R. Cheeseman, G. Scalmani, V. Barone, B. Mennucci, 
 G. A. Petersson, H. Nakatsuji, M. Caricato, X. Li, H. P. Hratchian, 
 A. F. Izmaylov, J. Bloino, G. Zheng, J. L. Sonnenberg, M. Hada, 
 M. Ehara, K. Toyota, R. Fukuda, J. Hasegawa, M. Ishida, T. Nakajima, 
 Y. Honda, O. Kitao, H. Nakai, T. Vreven, J. A. Montgomery, Jr., 
 J. E. Peralta, F. Ogliaro, M. Bearpark, J. J. Heyd, E. Brothers, 
 K. N. Kudin, V. N. Staroverov, T. Keith, R. Kobayashi, J. Normand, 
 K. Raghavachari, A. Rendell, J. C. Burant, S. S. Iyengar, J. Tomasi, 
 M. Cossi, N. Rega, J. M. Millam, M. Klene, J. E. Knox, J. B. Cross, 
 V. Bakken, C. Adamo, J. Jaramillo, R. Gomperts, R. E. Stratmann, 
 O. Yazyev, A. J. Austin, R. Cammi, C. Pomelli, J. W. Ochterski, 
 R. L. Martin, K. Morokuma, V. G. Zakrzewski, G. A. Voth, 
 P. Salvador, J. J. Dannenberg, S. Dapprich, A. D. Daniels, 
 O. Farkas, J. B. Foresman, J. V. Ortiz, J. Cioslowski, 
 and D. J. Fox, Gaussian, Inc., Wallingford CT, 2013.
 
 ******************************************
 Gaussian 09:  ES64L-G09RevD.01 24-Apr-2013
                15-Mar-2025 
 ******************************************
 ---------------------------------
 #m062X/6-31+G(d) OPT Freq=noraman
 ---------------------------------
 1/14=-1,18=20,19=15,26=3,38=1/1,3;
 2/9=110,12=2,17=6,18=5,40=1/2;
 3/5=1,6=6,7=11,11=2,16=1,25=1,30=1,71=1,74=-55/1,2,3;
 4//1;
 5/5=2,38=5/2;
 6/7=2,8=2,9=2,10=2,28=1/1;
 7//1,2,3,16;
 1/14=-1,18=20,19=15,26=3/3(2);
 2/9=110/2;
 99//99;
 2/9=110/2;
 3/5=1,6=6,7=11,11=2,16=1,25=1,30=1,71=1,74=-55/1,2,3;
 4/5=5,16=3,69=1/1;
 5/5=2,38=5/2;
 7//1,2,3,16;
 1/14=-1,18=20,19=15,26=3/3(-5);
 2/9=110/2;
 6/7=2,8=2,9=2,10=2,19=2,28=1/1;
 99/9=1/99;
 -------
 pyrrole
 -------
 Symbolic Z-matrix:
 Charge =  0 Multiplicity = 1
 C                     0.2891    0.0196    1.0414 
 C                     1.5204    0.4727    1.5759 
 C                     1.4575    0.3171    2.9431 
 N                     0.2315   -0.2133    3.2493 
 C                    -0.4888   -0.399     2.0983 
 H                    -0.001     0.0003    0.0004 
 H                     2.3613    0.8687    1.0241 
 H                     2.1729    0.5363    3.7231 
 H                    -0.0916   -0.4341    4.1811 
 H                    -1.4869   -0.8126    2.1334 
 

 GradGradGradGradGradGradGradGradGradGradGradGradGradGradGradGradGradGrad
 Berny optimization.
 Initialization pass.
                           ----------------------------
                           !    Initial Parameters    !
                           ! (Angstroms and Degrees)  !
 --------------------------                            --------------------------
 ! Name  Definition              Value          Derivative Info.                !
 --------------------------------------------------------------------------------
 ! R1    R(1,2)                  1.4167         estimate D2E/DX2                !
 ! R2    R(1,5)                  1.3775         estimate D2E/DX2                !
 ! R3    R(1,6)                  1.0808         estimate D2E/DX2                !
 ! R4    R(2,3)                  1.3775         estimate D2E/DX2                !
 ! R5    R(2,7)                  1.0809         estimate D2E/DX2                !
 ! R6    R(3,4)                  1.3705         estimate D2E/DX2                !
 ! R7    R(3,8)                  1.0809         estimate D2E/DX2                !
 ! R8    R(4,5)                  1.3704         estimate D2E/DX2                !
 ! R9    R(4,9)                  1.0106         estimate D2E/DX2                !
 ! R10   R(5,10)                 1.081          estimate D2E/DX2                !
 ! A1    A(2,1,5)              107.3697         estimate D2E/DX2                !
 ! A2    A(2,1,6)              127.0391         estimate D2E/DX2                !
 ! A3    A(5,1,6)              125.5912         estimate D2E/DX2                !
 ! A4    A(1,2,3)              107.3768         estimate D2E/DX2                !
 ! A5    A(1,2,7)              126.9198         estimate D2E/DX2                !
 ! A6    A(3,2,7)              125.7034         estimate D2E/DX2                !
 ! A7    A(2,3,4)              107.8384         estimate D2E/DX2                !
 ! A8    A(2,3,8)              131.5399         estimate D2E/DX2                !
 ! A9    A(4,3,8)              120.6217         estimate D2E/DX2                !
 ! A10   A(3,4,5)              109.5716         estimate D2E/DX2                !
 ! A11   A(3,4,9)              125.2084         estimate D2E/DX2                !
 ! A12   A(5,4,9)              125.22           estimate D2E/DX2                !
 ! A13   A(1,5,4)              107.8436         estimate D2E/DX2                !
 ! A14   A(1,5,10)             131.5008         estimate D2E/DX2                !
 ! A15   A(4,5,10)             120.6556         estimate D2E/DX2                !
 ! D1    D(5,1,2,3)              0.0047         estimate D2E/DX2                !
 ! D2    D(5,1,2,7)            179.9728         estimate D2E/DX2                !
 ! D3    D(6,1,2,3)            179.9671         estimate D2E/DX2                !
 ! D4    D(6,1,2,7)             -0.0647         estimate D2E/DX2                !
 ! D5    D(2,1,5,4)              0.0079         estimate D2E/DX2                !
 ! D6    D(2,1,5,10)          -179.8782         estimate D2E/DX2                !
 ! D7    D(6,1,5,4)           -179.9552         estimate D2E/DX2                !
 ! D8    D(6,1,5,10)             0.1586         estimate D2E/DX2                !
 ! D9    D(1,2,3,4)             -0.0155         estimate D2E/DX2                !
 ! D10   D(1,2,3,8)           -179.9652         estimate D2E/DX2                !
 ! D11   D(7,2,3,4)           -179.9841         estimate D2E/DX2                !
 ! D12   D(7,2,3,8)              0.0662         estimate D2E/DX2                !
 ! D13   D(2,3,4,5)              0.0209         estimate D2E/DX2                !
 ! D14   D(2,3,4,9)            179.9894         estimate D2E/DX2                !
 ! D15   D(8,3,4,5)            179.9771         estimate D2E/DX2                !
 ! D16   D(8,3,4,9)             -0.0544         estimate D2E/DX2                !
 ! D17   D(3,4,5,1)             -0.0179         estimate D2E/DX2                !
 ! D18   D(3,4,5,10)           179.883          estimate D2E/DX2                !
 ! D19   D(9,4,5,1)           -179.9864         estimate D2E/DX2                !
 ! D20   D(9,4,5,10)            -0.0855         estimate D2E/DX2                !
 --------------------------------------------------------------------------------
 Trust Radius=3.00D-01 FncErr=1.00D-07 GrdErr=1.00D-06
 Number of steps in this run=     55 maximum allowed number of steps=    100.
 GradGradGradGradGradGradGradGradGradGradGradGradGradGradGradGradGradGrad

                          Input orientation:                          
 ---------------------------------------------------------------------
 Center     Atomic      Atomic             Coordinates (Angstroms)
 Number     Number       Type             X           Y           Z
 ---------------------------------------------------------------------
      1          6           0        0.289100    0.019600    1.041400
      2          6           0        1.520400    0.472700    1.575900
      3          6           0        1.457500    0.317100    2.943100
      4          7           0        0.231500   -0.213300    3.249300
      5          6           0       -0.488800   -0.399000    2.098300
      6          1           0       -0.001000    0.000300    0.000400
      7          1           0        2.361300    0.868700    1.024100
      8          1           0        2.172900    0.536300    3.723100
      9          1           0       -0.091600   -0.434100    4.181100
     10          1           0       -1.486900   -0.812600    2.133400
 ---------------------------------------------------------------------
                    Distance matrix (angstroms):
                    1          2          3          4          5
     1  C    0.000000
     2  C    1.416718   0.000000
     3  C    2.251694   1.377463   0.000000
     4  N    2.220897   2.220839   1.370459   0.000000
     5  C    1.377459   2.251588   2.239324   1.370444   0.000000
     6  H    1.080838   2.240540   3.299556   3.264205   2.190565
     7  H    2.239483   1.080931   2.191729   3.264703   3.299097
     8  H    3.317709   2.245054   1.080854   2.134343   3.255673
     9  H    3.195073   3.194980   2.120532   1.010642   2.120626
    10  H    2.244816   3.317628   3.255968   2.134781   1.080972
                    6          7          8          9         10
     6  H    0.000000
     7  H    2.717083   0.000000
     8  H    4.344149   2.725910   0.000000
     9  H    4.204184   4.204837   2.505873   0.000000
    10  H    2.723673   4.343496   4.211984   2.506631   0.000000
 Stoichiometry    C4H5N
 Framework group  C1[X(C4H5N)]
 Deg. of freedom    24
 Full point group                 C1      NOp   1
 Largest Abelian subgroup         C1      NOp   1
 Largest concise Abelian subgroup C1      NOp   1
                         Standard orientation:                         
 ---------------------------------------------------------------------
 Center     Atomic      Atomic             Coordinates (Angstroms)
 Number     Number       Type             X           Y           Z
 ---------------------------------------------------------------------
      1          6           0        0.987131   -0.703511   -0.000062
      2          6           0        0.980164    0.713190    0.000035
      3          6           0       -0.336440    1.118106    0.000168
      4          7           0       -1.121199   -0.005421   -0.000199
      5          6           0       -0.325476   -1.121190   -0.000093
      6          1           0        1.853073   -1.350314   -0.000670
      7          1           0        1.841141    1.366743    0.000492
      8          1           0       -0.783717    2.102072   -0.000221
      9          1           0       -2.131829   -0.010271   -0.000048
     10          1           0       -0.762549   -2.109859    0.001558
 ---------------------------------------------------------------------
 Rotational constants (GHZ):      9.2239413      9.0058478      4.5567953
 Standard basis: 6-31+G(d) (6D, 7F)
 There are   105 symmetry adapted cartesian basis functions of A   symmetry.
 There are   105 symmetry adapted basis functions of A   symmetry.
   105 basis functions,   180 primitive gaussians,   105 cartesian basis functions
    18 alpha electrons       18 beta electrons
       nuclear repulsion energy       161.1001136654 Hartrees.
 NAtoms=   10 NActive=   10 NUniq=   10 SFac= 1.00D+00 NAtFMM=   60 NAOKFM=F Big=F
 Integral buffers will be    131072 words long.
 Raffenetti 2 integral format.
 Two-electron integral symmetry is turned on.
 One-electron integrals computed using PRISM.
 NBasis=   105 RedAO= T EigKep=  2.52D-05  NBF=   105
 NBsUse=   105 1.00D-06 EigRej= -1.00D+00 NBFU=   105
 ExpMin= 4.38D-02 ExpMax= 4.17D+03 ExpMxC= 6.27D+02 IAcc=2 IRadAn=         4 AccDes= 0.00D+00
 Harris functional with IExCor= 1009 and IRadAn=       4 diagonalized for initial guess.
 HarFok:  IExCor= 1009 AccDes= 0.00D+00 IRadAn=         4 IDoV= 1 UseB2=F ITyADJ=14
 ICtDFT=  3500011 ScaDFX=  1.000000  1.000000  1.000000  1.000000
 FoFCou: FMM=F IPFlag=           0 FMFlag=      100000 FMFlg1=           0
         NFxFlg=           0 DoJE=T BraDBF=F KetDBF=T FulRan=T
         wScrn=  0.000000 ICntrl=     500 IOpCl=  0 I1Cent=   200000004 NGrid=           0
         NMat0=    1 NMatS0=      1 NMatT0=    0 NMatD0=    1 NMtDS0=    0 NMtDT0=    0
 Petite list used in FoFCou.
 Keep R1 ints in memory in canonical form, NReq=16468428.
 Requested convergence on RMS density matrix=1.00D-08 within 128 cycles.
 Requested convergence on MAX density matrix=1.00D-06.
 Requested convergence on             energy=1.00D-06.
 No special actions if energy rises.
 SCF Done:  E(RM062X) =  -210.081337376     A.U. after   11 cycles
            NFock= 11  Conv=0.92D-08     -V/T= 2.0089

 **********************************************************************

            Population analysis using the SCF density.

 **********************************************************************

 Orbital symmetries:
       Occupied  (A) (A) (A) (A) (A) (A) (A) (A) (A) (A) (A) (A)
                 (A) (A) (A) (A) (A) (A)
       Virtual   (A) (A) (A) (A) (A) (A) (A) (A) (A) (A) (A) (A)
                 (A) (A) (A) (A) (A) (A) (A) (A) (A) (A) (A) (A)
                 (A) (A) (A) (A) (A) (A) (A) (A) (A) (A) (A) (A)
                 (A) (A) (A) (A) (A) (A) (A) (A) (A) (A) (A) (A)
                 (A) (A) (A) (A) (A) (A) (A) (A) (A) (A) (A) (A)
                 (A) (A) (A) (A) (A) (A) (A) (A) (A) (A) (A) (A)
                 (A) (A) (A) (A) (A) (A) (A) (A) (A) (A) (A) (A)
                 (A) (A) (A)
 The electronic state is 1-A.
 Alpha  occ. eigenvalues --  -14.81152 -10.56893 -10.56889 -10.53031 -10.52964
 Alpha  occ. eigenvalues --   -1.08865  -0.86951  -0.81390  -0.67109  -0.64345
 Alpha  occ. eigenvalues --   -0.62140  -0.49620  -0.48672  -0.48090  -0.45035
 Alpha  occ. eigenvalues --   -0.43559  -0.30000  -0.26388
 Alpha virt. eigenvalues --    0.01288   0.03606   0.04423   0.05349   0.05395
 Alpha virt. eigenvalues --    0.06468   0.08838   0.09319   0.09495   0.10372
 Alpha virt. eigenvalues --    0.11185   0.12162   0.12400   0.15891   0.16848
 Alpha virt. eigenvalues --    0.17318   0.18708   0.18807   0.21433   0.22812
 Alpha virt. eigenvalues --    0.24898   0.25402   0.25921   0.29304   0.30752
 Alpha virt. eigenvalues --    0.32260   0.32626   0.33406   0.35074   0.45770
 Alpha virt. eigenvalues --    0.50161   0.54882   0.72433   0.73490   0.76183
 Alpha virt. eigenvalues --    0.76264   0.77756   0.77947   0.80071   0.81963
 Alpha virt. eigenvalues --    0.92214   0.94239   0.96963   0.99374   1.00053
 Alpha virt. eigenvalues --    1.02454   1.02561   1.07833   1.09128   1.12243
 Alpha virt. eigenvalues --    1.18402   1.24929   1.26086   1.30424   1.36599
 Alpha virt. eigenvalues --    1.39711   1.41449   1.44238   1.56106   1.59510
 Alpha virt. eigenvalues --    1.60013   1.60015   1.86432   1.94217   2.07025
 Alpha virt. eigenvalues --    2.09525   2.14034   2.18076   2.25383   2.27489
 Alpha virt. eigenvalues --    2.35554   2.35700   2.38006   2.38840   2.58365
 Alpha virt. eigenvalues --    2.70486   2.71036   2.73323   2.75196   2.99605
 Alpha virt. eigenvalues --    3.05642   3.07149   4.05057   4.29903   4.33227
 Alpha virt. eigenvalues --    4.43133   4.53599
          Condensed to atoms (all electrons):
               1          2          3          4          5          6
     1  C    4.856671   0.540235  -0.017792  -0.166464   0.627250   0.337527
     2  C    0.540235   4.856799   0.627080  -0.166287  -0.017959  -0.014953
     3  C   -0.017792   0.627080   5.170743   0.362078  -0.233976   0.010254
     4  N   -0.166464  -0.166287   0.362078   6.865854   0.362248   0.011539
     5  C    0.627250  -0.017959  -0.233976   0.362248   5.170540  -0.031807
     6  H    0.337527  -0.014953   0.010254   0.011539  -0.031807   0.485546
     7  H   -0.015090   0.337574  -0.031752   0.011513   0.010303  -0.002539
     8  H    0.001652  -0.006247   0.354981  -0.051153   0.015204  -0.000101
     9  H    0.012022   0.012068  -0.030565   0.289846  -0.030495  -0.000092
    10  H   -0.006187   0.001614   0.015237  -0.051109   0.354845  -0.001471
               7          8          9         10
     1  C   -0.015090   0.001652   0.012022  -0.006187
     2  C    0.337574  -0.006247   0.012068   0.001614
     3  C   -0.031752   0.354981  -0.030565   0.015237
     4  N    0.011513  -0.051153   0.289846  -0.051109
     5  C    0.010303   0.015204  -0.030495   0.354845
     6  H   -0.002539  -0.000101  -0.000092  -0.001471
     7  H    0.485516  -0.001463  -0.000092  -0.000101
     8  H   -0.001463   0.478382  -0.003005  -0.000054
     9  H   -0.000092  -0.003005   0.328876  -0.003002
    10  H   -0.000101  -0.000054  -0.003002   0.478442
 Mulliken charges:
               1
     1  C   -0.169825
     2  C   -0.169925
     3  C   -0.226288
     4  N   -0.468067
     5  C   -0.226152
     6  H    0.206097
     7  H    0.206129
     8  H    0.211804
     9  H    0.424438
    10  H    0.211787
 Sum of Mulliken charges =   0.00000
 Mulliken charges with hydrogens summed into heavy atoms:
               1
     1  C    0.036272
     2  C    0.036205
     3  C   -0.014484
     4  N   -0.043628
     5  C   -0.014365
 Electronic spatial extent (au):  <R**2>=            306.0381
 Charge=              0.0000 electrons
 Dipole moment (field-independent basis, Debye):
    X=             -1.9823    Y=             -0.0104    Z=              0.0013  Tot=              1.9823
 Quadrupole moment (field-independent basis, Debye-Ang):
   XX=            -23.6055   YY=            -27.0473   ZZ=            -34.7646
   XY=              0.0139   XZ=             -0.0019   YZ=             -0.0034
 Traceless Quadrupole moment (field-independent basis, Debye-Ang):
   XX=              4.8670   YY=              1.4251   ZZ=             -6.2921
   XY=              0.0139   XZ=             -0.0019   YZ=             -0.0034
 Octapole moment (field-independent basis, Debye-Ang**2):
  XXX=            -13.0122  YYY=             -0.0540  ZZZ=              0.0012  XYY=             -2.8992
  XXY=             -0.0314  XXZ=              0.0004  XZZ=             -2.3681  YZZ=             -0.0116
  YYZ=              0.0081  XYZ=              0.0077
 Hexadecapole moment (field-independent basis, Debye-Ang**3):
 XXXX=           -151.1999 YYYY=           -179.5790 ZZZZ=            -44.2728 XXXY=              0.0986
 XXXZ=             -0.0038 YYYX=              0.0324 YYYZ=             -0.0230 ZZZX=             -0.0020
 ZZZY=             -0.0057 XXYY=            -56.5471 XXZZ=            -43.4489 YYZZ=            -46.7597
 XXYZ=              0.0021 YYXZ=             -0.0064 ZZXY=              0.0179
 N-N= 1.611001136654D+02 E-N=-8.092371696023D+02  KE= 2.082331412209D+02
 Calling FoFJK, ICntrl=      2127 FMM=F ISym2X=0 I1Cent= 0 IOpClX= 0 NMat=1 NMatS=1 NMatT=0.
 ***** Axes restored to original set *****
 -------------------------------------------------------------------
 Center     Atomic                   Forces (Hartrees/Bohr)
 Number     Number              X              Y              Z
 -------------------------------------------------------------------
      1        6          -0.004859365   -0.001898375   -0.000595327
      2        6           0.003961218    0.001317755    0.002894079
      3        6           0.000966354    0.000280523    0.001901928
      4        7           0.000304739    0.000153827   -0.000882883
      5        6          -0.001952637   -0.000913697    0.000655803
      6        1           0.000071187   -0.000003449   -0.000111416
      7        1           0.000059728    0.000043078    0.000091901
      8        1           0.000299698    0.000198919   -0.000942676
      9        1           0.000742711    0.000503035   -0.002163257
     10        1           0.000406367    0.000318384   -0.000848153
 -------------------------------------------------------------------
 Cartesian Forces:  Max     0.004859365 RMS     0.001543786

 GradGradGradGradGradGradGradGradGradGradGradGradGradGradGradGradGradGrad
 Berny optimization.
 FormGI is forming the generalized inverse of G from B-inverse, IUseBI=4.
 Internal  Forces:  Max     0.004966838 RMS     0.001040720
 Search for a local minimum.
 Step number   1 out of a maximum of   55
 All quantities printed in internal units (Hartrees-Bohrs-Radians)
 Mixed Optimization -- RFO/linear search
 Second derivative matrix not updated -- first step.
 ITU=  0
     Eigenvalues ---    0.02037   0.02083   0.02105   0.02156   0.02223
     Eigenvalues ---    0.02262   0.02290   0.16000   0.16000   0.16000
     Eigenvalues ---    0.16000   0.16000   0.22000   0.22000   0.35877
     Eigenvalues ---    0.35882   0.35891   0.35893   0.39801   0.43483
     Eigenvalues ---    0.45865   0.47751   0.49797   0.50574
 RFO step:  Lambda=-1.49131301D-04 EMin= 2.03670617D-02
 Linear search not attempted -- first point.
 Iteration  1 RMS(Cart)=  0.00416245 RMS(Int)=  0.00000687
 Iteration  2 RMS(Cart)=  0.00000892 RMS(Int)=  0.00000221
 Iteration  3 RMS(Cart)=  0.00000000 RMS(Int)=  0.00000221
 Variable       Old X    -DE/DX   Delta X   Delta X   Delta X     New X
                                 (Linear)    (Quad)   (Total)
    R1        2.67721   0.00497   0.00000   0.01196   0.01196   2.68917
    R2        2.60302  -0.00117   0.00000  -0.00225  -0.00225   2.60077
    R3        2.04249   0.00009   0.00000   0.00025   0.00025   2.04273
    R4        2.60303  -0.00123   0.00000  -0.00238  -0.00238   2.60064
    R5        2.04266   0.00002   0.00000   0.00004   0.00004   2.04271
    R6        2.58979   0.00045   0.00000   0.00060   0.00060   2.59040
    R7        2.04252  -0.00044   0.00000  -0.00123  -0.00123   2.04129
    R8        2.58976   0.00042   0.00000   0.00054   0.00055   2.59031
    R9        1.90984  -0.00234   0.00000  -0.00510  -0.00510   1.90473
   R10        2.04274  -0.00052   0.00000  -0.00146  -0.00146   2.04128
    A1        1.87395  -0.00001   0.00000   0.00092   0.00092   1.87487
    A2        2.21725  -0.00009   0.00000  -0.00102  -0.00102   2.21623
    A3        2.19198   0.00009   0.00000   0.00010   0.00010   2.19208
    A4        1.87408  -0.00004   0.00000   0.00074   0.00074   1.87482
    A5        2.21517   0.00014   0.00000   0.00034   0.00034   2.21551
    A6        2.19394  -0.00009   0.00000  -0.00108  -0.00108   2.19286
    A7        1.88213  -0.00110   0.00000  -0.00537  -0.00537   1.87677
    A8        2.29580  -0.00038   0.00000  -0.00312  -0.00312   2.29269
    A9        2.10525   0.00148   0.00000   0.00849   0.00849   2.11373
   A10        1.91238   0.00229   0.00000   0.00923   0.00924   1.92162
   A11        2.18530  -0.00114   0.00000  -0.00457  -0.00458   2.18072
   A12        2.18550  -0.00115   0.00000  -0.00466  -0.00466   2.18084
   A13        1.88223  -0.00114   0.00000  -0.00553  -0.00553   1.87670
   A14        2.29512  -0.00029   0.00000  -0.00258  -0.00258   2.29254
   A15        2.10584   0.00143   0.00000   0.00811   0.00811   2.11395
    D1        0.00008   0.00001   0.00000   0.00036   0.00036   0.00044
    D2        3.14112   0.00001   0.00000   0.00072   0.00072  -3.14134
    D3        3.14102   0.00001   0.00000   0.00026   0.00026   3.14128
    D4       -0.00113   0.00001   0.00000   0.00062   0.00063  -0.00050
    D5        0.00014  -0.00002   0.00000  -0.00088  -0.00088  -0.00074
    D6       -3.13947  -0.00003   0.00000  -0.00134  -0.00134  -3.14081
    D7       -3.14081  -0.00002   0.00000  -0.00078  -0.00078  -3.14159
    D8        0.00277  -0.00003   0.00000  -0.00125  -0.00124   0.00152
    D9       -0.00027   0.00001   0.00000   0.00030   0.00030   0.00003
   D10       -3.14099  -0.00001   0.00000  -0.00021  -0.00021  -3.14119
   D11       -3.14132   0.00000   0.00000  -0.00006  -0.00006  -3.14137
   D12        0.00116  -0.00001   0.00000  -0.00057  -0.00057   0.00059
   D13        0.00036  -0.00002   0.00000  -0.00086  -0.00087  -0.00050
   D14        3.14141   0.00000   0.00000   0.00000   0.00000   3.14141
   D15        3.14119  -0.00001   0.00000  -0.00042  -0.00042   3.14077
   D16       -0.00095   0.00001   0.00000   0.00044   0.00044  -0.00051
   D17       -0.00031   0.00002   0.00000   0.00109   0.00109   0.00078
   D18        3.13955   0.00003   0.00000   0.00148   0.00149   3.14104
   D19       -3.14136   0.00000   0.00000   0.00023   0.00023  -3.14113
   D20       -0.00149   0.00001   0.00000   0.00062   0.00062  -0.00087
         Item               Value     Threshold  Converged?
 Maximum Force            0.004967     0.000450     NO 
 RMS     Force            0.001041     0.000300     NO 
 Maximum Displacement     0.010915     0.001800     NO 
 RMS     Displacement     0.004160     0.001200     NO 
 Predicted change in Energy=-7.461270D-05
 GradGradGradGradGradGradGradGradGradGradGradGradGradGradGradGradGradGrad

                          Input orientation:                          
 ---------------------------------------------------------------------
 Center     Atomic      Atomic             Coordinates (Angstroms)
 Number     Number       Type             X           Y           Z
 ---------------------------------------------------------------------
      1          6           0        0.285342    0.017582    1.042974
      2          6           0        1.522066    0.473046    1.579751
      3          6           0        1.460255    0.318128    2.945808
      4          7           0        0.232738   -0.213019    3.246000
      5          6           0       -0.492857   -0.400558    2.098284
      6          1           0       -0.003772   -0.001701    0.001564
      7          1           0        2.362941    0.869503    1.028196
      8          1           0        2.177964    0.538672    3.722399
      9          1           0       -0.089423   -0.433282    4.175324
     10          1           0       -1.490854   -0.812671    2.129800
 ---------------------------------------------------------------------
                    Distance matrix (angstroms):
                    1          2          3          4          5
     1  C    0.000000
     2  C    1.423048   0.000000
     3  C    2.256441   1.376202   0.000000
     4  N    2.215688   2.215726   1.370778   0.000000
     5  C    1.376269   2.256540   2.247099   1.370733   0.000000
     6  H    1.080968   2.245939   3.303670   3.259902   2.189641
     7  H    2.245530   1.080954   2.189998   3.260103   3.303592
     8  H    3.321577   2.241751   1.080203   2.139135   3.263921
     9  H    3.186745   3.186742   2.116088   1.007941   2.116110
    10  H    2.241737   3.321643   3.263989   2.139219   1.080199
                    6          7          8          9         10
     6  H    0.000000
     7  H    2.722921   0.000000
     8  H    4.347020   2.720734   0.000000
     9  H    4.196888   4.197112   2.508162   0.000000
    10  H    2.720013   4.346835   4.221697   2.508409   0.000000
 Stoichiometry    C4H5N
 Framework group  C1[X(C4H5N)]
 Deg. of freedom    24
 Full point group                 C1      NOp   1
 Largest Abelian subgroup         C1      NOp   1
 Largest concise Abelian subgroup C1      NOp   1
                         Standard orientation:                         
 ---------------------------------------------------------------------
 Center     Atomic      Atomic             Coordinates (Angstroms)
 Number     Number       Type             X           Y           Z
 ---------------------------------------------------------------------
      1          6           0        0.980901   -0.712046    0.000169
      2          6           0        0.981729    0.711001   -0.000004
      3          6           0       -0.331120    1.123745   -0.000032
      4          7           0       -1.117039    0.000641    0.000157
      5          6           0       -0.332470   -1.123353   -0.000339
      6          1           0        1.844039   -1.362803   -0.000036
      7          1           0        1.846084    1.360117    0.000069
      8          1           0       -0.768907    2.111258   -0.000467
      9          1           0       -2.124980    0.001295    0.000338
     10          1           0       -0.771207   -2.110439    0.000231
 ---------------------------------------------------------------------
 Rotational constants (GHZ):      9.1613335      9.0514203      4.5530228
 Standard basis: 6-31+G(d) (6D, 7F)
 There are   105 symmetry adapted cartesian basis functions of A   symmetry.
 There are   105 symmetry adapted basis functions of A   symmetry.
   105 basis functions,   180 primitive gaussians,   105 cartesian basis functions
    18 alpha electrons       18 beta electrons
       nuclear repulsion energy       161.0477375272 Hartrees.
 NAtoms=   10 NActive=   10 NUniq=   10 SFac= 1.00D+00 NAtFMM=   60 NAOKFM=F Big=F
 Integral buffers will be    131072 words long.
 Raffenetti 2 integral format.
 Two-electron integral symmetry is turned on.
 One-electron integrals computed using PRISM.
 NBasis=   105 RedAO= T EigKep=  2.55D-05  NBF=   105
 NBsUse=   105 1.00D-06 EigRej= -1.00D+00 NBFU=   105
 Initial guess from the checkpoint file:  "/srv/scratch/z5358697/gauss/Gau-989796.chk"
 B after Tr=     0.000000    0.000000    0.000000
         Rot=    0.999996    0.000000    0.000000    0.002714 Ang=   0.31 deg.
 Keep R1 ints in memory in canonical form, NReq=16468428.
 Requested convergence on RMS density matrix=1.00D-08 within 128 cycles.
 Requested convergence on MAX density matrix=1.00D-06.
 Requested convergence on             energy=1.00D-06.
 No special actions if energy rises.
 SCF Done:  E(RM062X) =  -210.081396441     A.U. after   10 cycles
            NFock= 10  Conv=0.17D-08     -V/T= 2.0089
 Calling FoFJK, ICntrl=      2127 FMM=F ISym2X=0 I1Cent= 0 IOpClX= 0 NMat=1 NMatS=1 NMatT=0.
 ***** Axes restored to original set *****
 -------------------------------------------------------------------
 Center     Atomic                   Forces (Hartrees/Bohr)
 Number     Number              X              Y              Z
 -------------------------------------------------------------------
      1        6          -0.000649245   -0.000118788   -0.000584873
      2        6           0.000751183    0.000295662   -0.000127123
      3        6          -0.001220369   -0.000464079   -0.000519994
      4        7          -0.000342175   -0.000160650    0.000979603
      5        6           0.001320072    0.000357595    0.000468767
      6        1           0.000247021    0.000096490   -0.000073627
      7        1          -0.000092611   -0.000013111   -0.000175205
      8        1          -0.000005273   -0.000005121   -0.000160187
      9        1          -0.000104743   -0.000056169    0.000282623
     10        1           0.000096140    0.000068170   -0.000089983
 -------------------------------------------------------------------
 Cartesian Forces:  Max     0.001320072 RMS     0.000478548

 GradGradGradGradGradGradGradGradGradGradGradGradGradGradGradGradGradGrad
 Berny optimization.
 Using GEDIIS/GDIIS optimizer.
 FormGI is forming the generalized inverse of G from B-inverse, IUseBI=4.
 Internal  Forces:  Max     0.000948098 RMS     0.000320248
 Search for a local minimum.
 Step number   2 out of a maximum of   55
 All quantities printed in internal units (Hartrees-Bohrs-Radians)
 Mixed Optimization -- En-DIIS/RFO-DIIS
 Update second derivatives using D2CorX and points    1    2
 DE= -5.91D-05 DEPred=-7.46D-05 R= 7.92D-01
 TightC=F SS=  1.41D+00  RLast= 2.33D-02 DXNew= 5.0454D-01 6.9762D-02
 Trust test= 7.92D-01 RLast= 2.33D-02 DXMaxT set to 3.00D-01
 ITU=  1  0
 Use linear search instead of GDIIS.
     Eigenvalues ---    0.02037   0.02083   0.02107   0.02156   0.02224
     Eigenvalues ---    0.02259   0.02288   0.14859   0.16000   0.16000
     Eigenvalues ---    0.16000   0.16126   0.22000   0.28018   0.35569
     Eigenvalues ---    0.35882   0.35885   0.35894   0.38457   0.43537
     Eigenvalues ---    0.46162   0.49319   0.50357   0.50622
 RFO step:  Lambda=-1.00218577D-05 EMin= 2.03657160D-02
 Quartic linear search produced a step of -0.17027.
 Iteration  1 RMS(Cart)=  0.00123630 RMS(Int)=  0.00000107
 Iteration  2 RMS(Cart)=  0.00000124 RMS(Int)=  0.00000046
 Iteration  3 RMS(Cart)=  0.00000000 RMS(Int)=  0.00000046
 Variable       Old X    -DE/DX   Delta X   Delta X   Delta X     New X
                                 (Linear)    (Quad)   (Total)
    R1        2.68917  -0.00014  -0.00204   0.00262   0.00058   2.68975
    R2        2.60077   0.00025   0.00038  -0.00010   0.00028   2.60106
    R3        2.04273   0.00000  -0.00004   0.00007   0.00002   2.04276
    R4        2.60064   0.00030   0.00041  -0.00005   0.00036   2.60100
    R5        2.04271   0.00001  -0.00001   0.00004   0.00003   2.04274
    R6        2.59040  -0.00027  -0.00010  -0.00033  -0.00043   2.58996
    R7        2.04129  -0.00012   0.00021  -0.00057  -0.00036   2.04093
    R8        2.59031  -0.00023  -0.00009  -0.00029  -0.00038   2.58993
    R9        1.90473   0.00031   0.00087  -0.00065   0.00022   1.90495
   R10        2.04128  -0.00012   0.00025  -0.00062  -0.00037   2.04091
    A1        1.87487  -0.00038  -0.00016  -0.00109  -0.00125   1.87362
    A2        2.21623  -0.00009   0.00017  -0.00104  -0.00087   2.21536
    A3        2.19208   0.00047  -0.00002   0.00214   0.00212   2.19420
    A4        1.87482  -0.00037  -0.00013  -0.00108  -0.00120   1.87362
    A5        2.21551  -0.00002  -0.00006  -0.00034  -0.00040   2.21511
    A6        2.19286   0.00038   0.00018   0.00142   0.00160   2.19446
    A7        1.87677   0.00084   0.00091   0.00185   0.00277   1.87953
    A8        2.29269  -0.00053   0.00053  -0.00284  -0.00231   2.29038
    A9        2.11373  -0.00031  -0.00144   0.00099  -0.00046   2.11327
   A10        1.92162  -0.00095  -0.00157  -0.00156  -0.00313   1.91849
   A11        2.18072   0.00048   0.00078   0.00080   0.00158   2.18230
   A12        2.18084   0.00047   0.00079   0.00075   0.00155   2.18239
   A13        1.87670   0.00086   0.00094   0.00188   0.00282   1.87951
   A14        2.29254  -0.00052   0.00044  -0.00266  -0.00222   2.29032
   A15        2.11395  -0.00034  -0.00138   0.00078  -0.00060   2.11335
    D1        0.00044  -0.00002  -0.00006  -0.00064  -0.00070  -0.00026
    D2       -3.14134  -0.00001  -0.00012  -0.00034  -0.00047   3.14137
    D3        3.14128   0.00000  -0.00004   0.00013   0.00009   3.14137
    D4       -0.00050   0.00001  -0.00011   0.00043   0.00032  -0.00018
    D5       -0.00074   0.00003   0.00015   0.00114   0.00129   0.00055
    D6       -3.14081   0.00000   0.00023  -0.00034  -0.00011  -3.14091
    D7       -3.14159   0.00001   0.00013   0.00038   0.00051  -3.14108
    D8        0.00152  -0.00002   0.00021  -0.00110  -0.00088   0.00064
    D9        0.00003   0.00000  -0.00005  -0.00011  -0.00016  -0.00013
   D10       -3.14119   0.00000   0.00004  -0.00002   0.00002  -3.14118
   D11       -3.14137  -0.00001   0.00001  -0.00040  -0.00039   3.14142
   D12        0.00059  -0.00001   0.00010  -0.00031  -0.00021   0.00037
   D13       -0.00050   0.00003   0.00015   0.00083   0.00098   0.00048
   D14        3.14141   0.00001   0.00000   0.00031   0.00031  -3.14147
   D15        3.14077   0.00002   0.00007   0.00075   0.00083  -3.14159
   D16       -0.00051   0.00000  -0.00007   0.00023   0.00016  -0.00035
   D17        0.00078  -0.00004  -0.00019  -0.00124  -0.00143  -0.00065
   D18        3.14104  -0.00001  -0.00025   0.00005  -0.00020   3.14083
   D19       -3.14113  -0.00002  -0.00004  -0.00072  -0.00076   3.14130
   D20       -0.00087   0.00001  -0.00011   0.00057   0.00046  -0.00040
         Item               Value     Threshold  Converged?
 Maximum Force            0.000948     0.000450     NO 
 RMS     Force            0.000320     0.000300     NO 
 Maximum Displacement     0.003564     0.001800     NO 
 RMS     Displacement     0.001236     0.001200     NO 
 Predicted change in Energy=-7.564848D-06
 GradGradGradGradGradGradGradGradGradGradGradGradGradGradGradGradGradGrad

                          Input orientation:                          
 ---------------------------------------------------------------------
 Center     Atomic      Atomic             Coordinates (Angstroms)
 Number     Number       Type             X           Y           Z
 ---------------------------------------------------------------------
      1          6           0        0.285157    0.017858    1.042521
      2          6           0        1.522286    0.473112    1.579357
      3          6           0        1.458996    0.317488    2.945457
      4          7           0        0.232015   -0.213117    3.247752
      5          6           0       -0.491535   -0.400660    2.098988
      6          1           0       -0.003176   -0.001003    0.000874
      7          1           0        2.362929    0.869556    1.027406
      8          1           0        2.177445    0.538193    3.721054
      9          1           0       -0.090298   -0.433115    4.177210
     10          1           0       -1.489420   -0.812612    2.129481
 ---------------------------------------------------------------------
                    Distance matrix (angstroms):
                    1          2          3          4          5
     1  C    0.000000
     2  C    1.423354   0.000000
     3  C    2.255846   1.376392   0.000000
     4  N    2.217930   2.217939   1.370550   0.000000
     5  C    1.376419   2.255874   2.244286   1.370531   0.000000
     6  H    1.080981   2.245757   3.303022   3.262287   2.190959
     7  H    2.245607   1.080971   2.191071   3.262347   3.302983
     8  H    3.320548   2.240611   1.080014   2.138500   3.261288
     9  H    3.189140   3.189124   2.116821   1.008056   2.116849
    10  H    2.240600   3.320557   3.261304   2.138518   1.080004
                    6          7          8          9         10
     6  H    0.000000
     7  H    2.722148   0.000000
     8  H    4.345754   2.720284   0.000000
     9  H    4.199534   4.199587   2.508819   0.000000
    10  H    2.720036   4.345670   4.219441   2.508935   0.000000
 Stoichiometry    C4H5N
 Framework group  C1[X(C4H5N)]
 Deg. of freedom    24
 Full point group                 C1      NOp   1
 Largest Abelian subgroup         C1      NOp   1
 Largest concise Abelian subgroup C1      NOp   1
                         Standard orientation:                         
 ---------------------------------------------------------------------
 Center     Atomic      Atomic             Coordinates (Angstroms)
 Number     Number       Type             X           Y           Z
 ---------------------------------------------------------------------
      1          6           0        0.982108   -0.711522   -0.000143
      2          6           0        0.981901    0.711832    0.000066
      3          6           0       -0.331925    1.122097    0.000139
      4          7           0       -1.118650   -0.000164   -0.000185
      5          6           0       -0.331621   -1.122188    0.000155
      6          1           0        1.846294   -1.360908   -0.000439
      7          1           0        1.846057    1.361240    0.000115
      8          1           0       -0.769264    2.109602   -0.000050
      9          1           0       -2.126706   -0.000262   -0.000316
     10          1           0       -0.768605   -2.109839    0.000680
 ---------------------------------------------------------------------
 Rotational constants (GHZ):      9.1750192      9.0360858      4.5525114
 Standard basis: 6-31+G(d) (6D, 7F)
 There are   105 symmetry adapted cartesian basis functions of A   symmetry.
 There are   105 symmetry adapted basis functions of A   symmetry.
   105 basis functions,   180 primitive gaussians,   105 cartesian basis functions
    18 alpha electrons       18 beta electrons
       nuclear repulsion energy       161.0416482255 Hartrees.
 NAtoms=   10 NActive=   10 NUniq=   10 SFac= 1.00D+00 NAtFMM=   60 NAOKFM=F Big=F
 Integral buffers will be    131072 words long.
 Raffenetti 2 integral format.
 Two-electron integral symmetry is turned on.
 One-electron integrals computed using PRISM.
 NBasis=   105 RedAO= T EigKep=  2.55D-05  NBF=   105
 NBsUse=   105 1.00D-06 EigRej= -1.00D+00 NBFU=   105
 Initial guess from the checkpoint file:  "/srv/scratch/z5358697/gauss/Gau-989796.chk"
 B after Tr=     0.000000    0.000000    0.000000
         Rot=    1.000000    0.000000    0.000000   -0.000367 Ang=  -0.04 deg.
 Keep R1 ints in memory in canonical form, NReq=16468428.
 Requested convergence on RMS density matrix=1.00D-08 within 128 cycles.
 Requested convergence on MAX density matrix=1.00D-06.
 Requested convergence on             energy=1.00D-06.
 No special actions if energy rises.
 SCF Done:  E(RM062X) =  -210.081404459     A.U. after    8 cycles
            NFock=  8  Conv=0.67D-08     -V/T= 2.0089
 Calling FoFJK, ICntrl=      2127 FMM=F ISym2X=0 I1Cent= 0 IOpClX= 0 NMat=1 NMatS=1 NMatT=0.
 ***** Axes restored to original set *****
 -------------------------------------------------------------------
 Center     Atomic                   Forces (Hartrees/Bohr)
 Number     Number              X              Y              Z
 -------------------------------------------------------------------
      1        6          -0.000239115   -0.000144707    0.000074227
      2        6           0.000113203    0.000040661    0.000195263
      3        6          -0.000226784   -0.000021629   -0.000195760
      4        7           0.000079555   -0.000027480   -0.000125798
      5        6           0.000273988    0.000170257   -0.000010810
      6        1           0.000076450    0.000009029    0.000018079
      7        1          -0.000045920   -0.000013495   -0.000018542
      8        1           0.000094582    0.000033183    0.000007738
      9        1          -0.000037959   -0.000040269    0.000111741
     10        1          -0.000088000   -0.000005550   -0.000056138
 -------------------------------------------------------------------
 Cartesian Forces:  Max     0.000273988 RMS     0.000115325

 GradGradGradGradGradGradGradGradGradGradGradGradGradGradGradGradGradGrad
 Berny optimization.
 Using GEDIIS/GDIIS optimizer.
 FormGI is forming the generalized inverse of G from B-inverse, IUseBI=4.
 Internal  Forces:  Max     0.000191158 RMS     0.000057126
 Search for a local minimum.
 Step number   3 out of a maximum of   55
 All quantities printed in internal units (Hartrees-Bohrs-Radians)
 Mixed Optimization -- En-DIIS/RFO-DIIS
 Swapping is turned off.
 Update second derivatives using D2CorX and points    1    2    3
 DE= -8.02D-06 DEPred=-7.56D-06 R= 1.06D+00
 TightC=F SS=  1.41D+00  RLast= 7.85D-03 DXNew= 5.0454D-01 2.3556D-02
 Trust test= 1.06D+00 RLast= 7.85D-03 DXMaxT set to 3.00D-01
 ITU=  1  1  0
     Eigenvalues ---    0.02037   0.02083   0.02119   0.02169   0.02250
     Eigenvalues ---    0.02265   0.02288   0.13324   0.16000   0.16000
     Eigenvalues ---    0.16000   0.16088   0.22000   0.26722   0.35852
     Eigenvalues ---    0.35885   0.35888   0.36174   0.38453   0.43520
     Eigenvalues ---    0.46058   0.48813   0.50573   0.52798
 En-DIIS/RFO-DIIS IScMMF=        0 using points:     3    2
 RFO step:  Lambda=-3.01349015D-07.
 DidBck=F Rises=F RFO-DIIS coefs:    1.06062   -0.06062
 Iteration  1 RMS(Cart)=  0.00059340 RMS(Int)=  0.00000030
 Iteration  2 RMS(Cart)=  0.00000030 RMS(Int)=  0.00000018
 Variable       Old X    -DE/DX   Delta X   Delta X   Delta X     New X
                                 (Linear)    (Quad)   (Total)
    R1        2.68975   0.00001   0.00004   0.00017   0.00021   2.68996
    R2        2.60106  -0.00019   0.00002  -0.00044  -0.00043   2.60063
    R3        2.04276  -0.00004   0.00000  -0.00011  -0.00011   2.04265
    R4        2.60100  -0.00017   0.00002  -0.00040  -0.00038   2.60062
    R5        2.04274  -0.00003   0.00000  -0.00009  -0.00009   2.04265
    R6        2.58996  -0.00006  -0.00003  -0.00011  -0.00014   2.58983
    R7        2.04093   0.00008  -0.00002   0.00021   0.00019   2.04112
    R8        2.58993  -0.00004  -0.00002  -0.00009  -0.00011   2.58982
    R9        1.90495   0.00012   0.00001   0.00023   0.00025   1.90520
   R10        2.04091   0.00008  -0.00002   0.00023   0.00021   2.04112
    A1        1.87362  -0.00001  -0.00008  -0.00007  -0.00014   1.87348
    A2        2.21536  -0.00006  -0.00005  -0.00043  -0.00048   2.21488
    A3        2.19420   0.00008   0.00013   0.00050   0.00063   2.19482
    A4        1.87362  -0.00001  -0.00007  -0.00006  -0.00013   1.87349
    A5        2.21511  -0.00004  -0.00002  -0.00024  -0.00027   2.21484
    A6        2.19446   0.00005   0.00010   0.00030   0.00040   2.19486
    A7        1.87953   0.00004   0.00017   0.00013   0.00029   1.87983
    A8        2.29038  -0.00009  -0.00014  -0.00059  -0.00073   2.28965
    A9        2.11327   0.00005  -0.00003   0.00046   0.00043   2.11371
   A10        1.91849  -0.00005  -0.00019  -0.00015  -0.00034   1.91816
   A11        2.18230   0.00003   0.00010   0.00010   0.00019   2.18250
   A12        2.18239   0.00002   0.00009   0.00005   0.00014   2.18253
   A13        1.87951   0.00004   0.00017   0.00014   0.00031   1.87983
   A14        2.29032  -0.00008  -0.00013  -0.00055  -0.00068   2.28964
   A15        2.11335   0.00004  -0.00004   0.00041   0.00037   2.11372
    D1       -0.00026   0.00002  -0.00004   0.00090   0.00085   0.00059
    D2        3.14137   0.00001  -0.00003   0.00063   0.00060  -3.14121
    D3        3.14137   0.00001   0.00001   0.00029   0.00030  -3.14152
    D4       -0.00018   0.00000   0.00002   0.00003   0.00005  -0.00013
    D5        0.00055  -0.00003   0.00008  -0.00166  -0.00158  -0.00103
    D6       -3.14091  -0.00001  -0.00001  -0.00071  -0.00072   3.14155
    D7       -3.14108  -0.00002   0.00003  -0.00106  -0.00103   3.14107
    D8        0.00064   0.00000  -0.00005  -0.00012  -0.00017   0.00047
    D9       -0.00013   0.00000  -0.00001   0.00021   0.00020   0.00008
   D10       -3.14118  -0.00001   0.00000  -0.00046  -0.00046   3.14155
   D11        3.14142   0.00001  -0.00002   0.00048   0.00045  -3.14131
   D12        0.00037   0.00000  -0.00001  -0.00020  -0.00021   0.00017
   D13        0.00048  -0.00003   0.00006  -0.00127  -0.00121  -0.00073
   D14       -3.14147  -0.00001   0.00002  -0.00033  -0.00031   3.14141
   D15       -3.14159  -0.00001   0.00005  -0.00068  -0.00063   3.14097
   D16       -0.00035   0.00001   0.00001   0.00026   0.00027  -0.00009
   D17       -0.00065   0.00004  -0.00009   0.00184   0.00175   0.00110
   D18        3.14083   0.00002  -0.00001   0.00101   0.00100  -3.14135
   D19        3.14130   0.00002  -0.00005   0.00090   0.00085  -3.14103
   D20       -0.00040   0.00000   0.00003   0.00007   0.00010  -0.00030
         Item               Value     Threshold  Converged?
 Maximum Force            0.000191     0.000450     YES
 RMS     Force            0.000057     0.000300     YES
 Maximum Displacement     0.001903     0.001800     NO 
 RMS     Displacement     0.000593     0.001200     YES
 Predicted change in Energy=-4.053608D-07
 GradGradGradGradGradGradGradGradGradGradGradGradGradGradGradGradGradGrad

                          Input orientation:                          
 ---------------------------------------------------------------------
 Center     Atomic      Atomic             Coordinates (Angstroms)
 Number     Number       Type             X           Y           Z
 ---------------------------------------------------------------------
      1          6           0        0.285151    0.017445    1.042638
      2          6           0        1.522169    0.473257    1.579546
      3          6           0        1.458713    0.317666    2.945439
      4          7           0        0.232143   -0.213611    3.247888
      5          6           0       -0.491587   -0.400149    2.099144
      6          1           0       -0.002543   -0.001640    0.000879
      7          1           0        2.362584    0.869734    1.027368
      8          1           0        2.177658    0.538600    3.720652
      9          1           0       -0.090078   -0.433998    4.177427
     10          1           0       -1.489811   -0.811604    2.129119
 ---------------------------------------------------------------------
                    Distance matrix (angstroms):
                    1          2          3          4          5
     1  C    0.000000
     2  C    1.423464   0.000000
     3  C    2.255667   1.376190   0.000000
     4  N    2.217955   2.217954   1.370477   0.000000
     5  C    1.376194   2.255666   2.243913   1.370473   0.000000
     6  H    1.080923   2.245543   3.302675   3.262373   2.191047
     7  H    2.245520   1.080922   2.191063   3.262381   3.302665
     8  H    3.320383   2.240149   1.080115   2.138774   3.261197
     9  H    3.189278   3.189269   2.116967   1.008186   2.116983
    10  H    2.240145   3.320380   3.261200   2.138777   1.080114
                    6          7          8          9         10
     6  H    0.000000
     7  H    2.721544   0.000000
     8  H    4.345324   2.719857   0.000000
     9  H    4.199779   4.199779   2.509426   0.000000
    10  H    2.719819   4.345308   4.219758   2.509463   0.000000
 Stoichiometry    C4H5N
 Framework group  C1[X(C4H5N)]
 Deg. of freedom    24
 Full point group                 C1      NOp   1
 Largest Abelian subgroup         C1      NOp   1
 Largest concise Abelian subgroup C1      NOp   1
                         Standard orientation:                         
 ---------------------------------------------------------------------
 Center     Atomic      Atomic             Coordinates (Angstroms)
 Number     Number       Type             X           Y           Z
 ---------------------------------------------------------------------
      1          6           0        0.982043   -0.711549    0.000246
      2          6           0        0.981777    0.711915   -0.000079
      3          6           0       -0.331925    1.121896   -0.000118
      4          7           0       -1.118746   -0.000208    0.000270
      5          6           0       -0.331511   -1.122017   -0.000382
      6          1           0        1.846524   -1.360445    0.000423
      7          1           0        1.846042    1.361098   -0.000084
      8          1           0       -0.768755    2.109736   -0.000292
      9          1           0       -2.126932   -0.000376    0.000490
     10          1           0       -0.767963   -2.110022   -0.000432
 ---------------------------------------------------------------------
 Rotational constants (GHZ):      9.1764299      9.0364553      4.5529527
 Standard basis: 6-31+G(d) (6D, 7F)
 There are   105 symmetry adapted cartesian basis functions of A   symmetry.
 There are   105 symmetry adapted basis functions of A   symmetry.
   105 basis functions,   180 primitive gaussians,   105 cartesian basis functions
    18 alpha electrons       18 beta electrons
       nuclear repulsion energy       161.0486948918 Hartrees.
 NAtoms=   10 NActive=   10 NUniq=   10 SFac= 1.00D+00 NAtFMM=   60 NAOKFM=F Big=F
 Integral buffers will be    131072 words long.
 Raffenetti 2 integral format.
 Two-electron integral symmetry is turned on.
 One-electron integrals computed using PRISM.
 NBasis=   105 RedAO= T EigKep=  2.55D-05  NBF=   105
 NBsUse=   105 1.00D-06 EigRej= -1.00D+00 NBFU=   105
 Initial guess from the checkpoint file:  "/srv/scratch/z5358697/gauss/Gau-989796.chk"
 B after Tr=     0.000000    0.000000    0.000000
         Rot=    1.000000    0.000000    0.000000   -0.000024 Ang=   0.00 deg.
 Keep R1 ints in memory in canonical form, NReq=16468428.
 Requested convergence on RMS density matrix=1.00D-08 within 128 cycles.
 Requested convergence on MAX density matrix=1.00D-06.
 Requested convergence on             energy=1.00D-06.
 No special actions if energy rises.
 SCF Done:  E(RM062X) =  -210.081404669     A.U. after    8 cycles
            NFock=  8  Conv=0.64D-08     -V/T= 2.0089
 Calling FoFJK, ICntrl=      2127 FMM=F ISym2X=0 I1Cent= 0 IOpClX= 0 NMat=1 NMatS=1 NMatT=0.
 ***** Axes restored to original set *****
 -------------------------------------------------------------------
 Center     Atomic                   Forces (Hartrees/Bohr)
 Number     Number              X              Y              Z
 -------------------------------------------------------------------
      1        6          -0.000054924    0.000074453    0.000030447
      2        6           0.000013400   -0.000031683    0.000021044
      3        6           0.000045311   -0.000027533    0.000001775
      4        7          -0.000029211    0.000100195   -0.000006050
      5        6           0.000025878   -0.000135047   -0.000033734
      6        1           0.000003668    0.000014726   -0.000002575
      7        1          -0.000002493    0.000001269   -0.000005675
      8        1           0.000013795   -0.000004247    0.000002534
      9        1          -0.000007968    0.000018253   -0.000002714
     10        1          -0.000007457   -0.000010385   -0.000005053
 -------------------------------------------------------------------
 Cartesian Forces:  Max     0.000135047 RMS     0.000039152

 GradGradGradGradGradGradGradGradGradGradGradGradGradGradGradGradGradGrad
 Berny optimization.
 Using GEDIIS/GDIIS optimizer.
 FormGI is forming the generalized inverse of G from B-inverse, IUseBI=4.
 Internal  Forces:  Max     0.000058760 RMS     0.000020201
 Search for a local minimum.
 Step number   4 out of a maximum of   55
 All quantities printed in internal units (Hartrees-Bohrs-Radians)
 Mixed Optimization -- En-DIIS/RFO-DIIS
 Swapping is turned off.
 Update second derivatives using D2CorX and points    1    2    3    4
 DE= -2.11D-07 DEPred=-4.05D-07 R= 5.20D-01
 Trust test= 5.20D-01 RLast= 3.97D-03 DXMaxT set to 3.00D-01
 ITU=  0  1  1  0
     Eigenvalues ---    0.02039   0.02083   0.02128   0.02170   0.02216
     Eigenvalues ---    0.02286   0.03952   0.10913   0.16000   0.16000
     Eigenvalues ---    0.16001   0.16075   0.22000   0.26455   0.35875
     Eigenvalues ---    0.35885   0.35889   0.36313   0.38677   0.43515
     Eigenvalues ---    0.45744   0.49155   0.50530   0.51154
 En-DIIS/RFO-DIIS IScMMF=        0 using points:     4    3    2
 RFO step:  Lambda=-7.36005765D-08.
 DidBck=T Rises=F RFO-DIIS coefs:    0.64201    0.40418   -0.04619
 Iteration  1 RMS(Cart)=  0.00036819 RMS(Int)=  0.00000014
 Iteration  2 RMS(Cart)=  0.00000014 RMS(Int)=  0.00000009
 Variable       Old X    -DE/DX   Delta X   Delta X   Delta X     New X
                                 (Linear)    (Quad)   (Total)
    R1        2.68996   0.00002  -0.00005   0.00012   0.00007   2.69002
    R2        2.60063  -0.00002   0.00017  -0.00028  -0.00011   2.60052
    R3        2.04265   0.00000   0.00004  -0.00006  -0.00002   2.04263
    R4        2.60062  -0.00002   0.00015  -0.00025  -0.00010   2.60052
    R5        2.04265   0.00000   0.00003  -0.00005  -0.00002   2.04263
    R6        2.58983   0.00002   0.00003  -0.00003   0.00000   2.58982
    R7        2.04112   0.00001  -0.00008   0.00014   0.00006   2.04118
    R8        2.58982   0.00002   0.00002  -0.00001   0.00001   2.58983
    R9        1.90520   0.00000  -0.00008   0.00012   0.00004   1.90524
   R10        2.04112   0.00001  -0.00009   0.00015   0.00006   2.04118
    A1        1.87348   0.00001  -0.00001   0.00001   0.00000   1.87348
    A2        2.21488  -0.00002   0.00013  -0.00029  -0.00015   2.21473
    A3        2.19482   0.00000  -0.00013   0.00028   0.00015   2.19497
    A4        1.87349   0.00001  -0.00001   0.00001   0.00000   1.87349
    A5        2.21484  -0.00001   0.00008  -0.00017  -0.00009   2.21475
    A6        2.19486   0.00000  -0.00007   0.00016   0.00009   2.19495
    A7        1.87983  -0.00002   0.00002  -0.00003  -0.00001   1.87982
    A8        2.28965   0.00001   0.00015  -0.00029  -0.00014   2.28951
    A9        2.11371   0.00002  -0.00018   0.00032   0.00015   2.11385
   A10        1.91816   0.00002  -0.00002   0.00003   0.00001   1.91816
   A11        2.18250  -0.00001   0.00000   0.00001   0.00001   2.18250
   A12        2.18253  -0.00001   0.00002  -0.00004  -0.00002   2.18252
   A13        1.87983  -0.00002   0.00002  -0.00002   0.00000   1.87982
   A14        2.28964   0.00001   0.00014  -0.00027  -0.00013   2.28952
   A15        2.11372   0.00002  -0.00016   0.00029   0.00013   2.11385
    D1        0.00059  -0.00003  -0.00034  -0.00042  -0.00076  -0.00017
    D2       -3.14121  -0.00002  -0.00024  -0.00026  -0.00049   3.14148
    D3       -3.14152  -0.00001  -0.00010  -0.00002  -0.00012   3.14155
    D4       -0.00013   0.00001   0.00000   0.00014   0.00014   0.00001
    D5       -0.00103   0.00005   0.00062   0.00066   0.00128   0.00026
    D6        3.14155   0.00001   0.00025  -0.00004   0.00021  -3.14142
    D7        3.14107   0.00003   0.00039   0.00027   0.00066  -3.14145
    D8        0.00047  -0.00001   0.00002  -0.00043  -0.00041   0.00005
    D9        0.00008   0.00000  -0.00008   0.00002  -0.00007   0.00001
   D10        3.14155   0.00001   0.00016   0.00001   0.00017  -3.14146
   D11       -3.14131  -0.00002  -0.00018  -0.00014  -0.00032   3.14155
   D12        0.00017   0.00000   0.00006  -0.00015  -0.00009   0.00008
   D13       -0.00073   0.00004   0.00048   0.00040   0.00088   0.00015
   D14        3.14141   0.00001   0.00013   0.00010   0.00023  -3.14155
   D15        3.14097   0.00003   0.00026   0.00041   0.00067  -3.14155
   D16       -0.00009   0.00000  -0.00009   0.00011   0.00002  -0.00007
   D17        0.00110  -0.00006  -0.00069  -0.00067  -0.00136  -0.00026
   D18       -3.14135  -0.00002  -0.00037  -0.00005  -0.00042   3.14141
   D19       -3.14103  -0.00003  -0.00034  -0.00037  -0.00071   3.14145
   D20       -0.00030   0.00001  -0.00002   0.00025   0.00023  -0.00007
         Item               Value     Threshold  Converged?
 Maximum Force            0.000059     0.000450     YES
 RMS     Force            0.000020     0.000300     YES
 Maximum Displacement     0.001147     0.001800     YES
 RMS     Displacement     0.000368     0.001200     YES
 Predicted change in Energy=-1.693472D-07
 Optimization completed.
    -- Stationary point found.
                           ----------------------------
                           !   Optimized Parameters   !
                           ! (Angstroms and Degrees)  !
 --------------------------                            --------------------------
 ! Name  Definition              Value          Derivative Info.                !
 --------------------------------------------------------------------------------
 ! R1    R(1,2)                  1.4235         -DE/DX =    0.0                 !
 ! R2    R(1,5)                  1.3762         -DE/DX =    0.0                 !
 ! R3    R(1,6)                  1.0809         -DE/DX =    0.0                 !
 ! R4    R(2,3)                  1.3762         -DE/DX =    0.0                 !
 ! R5    R(2,7)                  1.0809         -DE/DX =    0.0                 !
 ! R6    R(3,4)                  1.3705         -DE/DX =    0.0                 !
 ! R7    R(3,8)                  1.0801         -DE/DX =    0.0                 !
 ! R8    R(4,5)                  1.3705         -DE/DX =    0.0                 !
 ! R9    R(4,9)                  1.0082         -DE/DX =    0.0                 !
 ! R10   R(5,10)                 1.0801         -DE/DX =    0.0                 !
 ! A1    A(2,1,5)              107.3426         -DE/DX =    0.0                 !
 ! A2    A(2,1,6)              126.9033         -DE/DX =    0.0                 !
 ! A3    A(5,1,6)              125.7541         -DE/DX =    0.0                 !
 ! A4    A(1,2,3)              107.3429         -DE/DX =    0.0                 !
 ! A5    A(1,2,7)              126.9009         -DE/DX =    0.0                 !
 ! A6    A(3,2,7)              125.7562         -DE/DX =    0.0                 !
 ! A7    A(2,3,4)              107.7061         -DE/DX =    0.0                 !
 ! A8    A(2,3,8)              131.1875         -DE/DX =    0.0                 !
 ! A9    A(4,3,8)              121.1064         -DE/DX =    0.0                 !
 ! A10   A(3,4,5)              109.9023         -DE/DX =    0.0                 !
 ! A11   A(3,4,9)              125.0478         -DE/DX =    0.0                 !
 ! A12   A(5,4,9)              125.0499         -DE/DX =    0.0                 !
 ! A13   A(1,5,4)              107.7061         -DE/DX =    0.0                 !
 ! A14   A(1,5,10)             131.1868         -DE/DX =    0.0                 !
 ! A15   A(4,5,10)             121.107          -DE/DX =    0.0                 !
 ! D1    D(5,1,2,3)              0.0339         -DE/DX =    0.0                 !
 ! D2    D(5,1,2,7)            180.022          -DE/DX =    0.0                 !
 ! D3    D(6,1,2,3)            180.0043         -DE/DX =    0.0                 !
 ! D4    D(6,1,2,7)             -0.0076         -DE/DX =    0.0                 !
 ! D5    D(2,1,5,4)             -0.0589         -DE/DX =    0.0001              !
 ! D6    D(2,1,5,10)          -180.0025         -DE/DX =    0.0                 !
 ! D7    D(6,1,5,4)           -180.0297         -DE/DX =    0.0                 !
 ! D8    D(6,1,5,10)             0.0267         -DE/DX =    0.0                 !
 ! D9    D(1,2,3,4)              0.0043         -DE/DX =    0.0                 !
 ! D10   D(1,2,3,8)           -180.0023         -DE/DX =    0.0                 !
 ! D11   D(7,2,3,4)            180.0161         -DE/DX =    0.0                 !
 ! D12   D(7,2,3,8)              0.0095         -DE/DX =    0.0                 !
 ! D13   D(2,3,4,5)             -0.0418         -DE/DX =    0.0                 !
 ! D14   D(2,3,4,9)           -180.0107         -DE/DX =    0.0                 !
 ! D15   D(8,3,4,5)           -180.0359         -DE/DX =    0.0                 !
 ! D16   D(8,3,4,9)             -0.0049         -DE/DX =    0.0                 !
 ! D17   D(3,4,5,1)              0.0633         -DE/DX =   -0.0001              !
 ! D18   D(3,4,5,10)           180.0137         -DE/DX =    0.0                 !
 ! D19   D(9,4,5,1)            180.0323         -DE/DX =    0.0                 !
 ! D20   D(9,4,5,10)            -0.0173         -DE/DX =    0.0                 !
 --------------------------------------------------------------------------------
 GradGradGradGradGradGradGradGradGradGradGradGradGradGradGradGradGradGrad

                          Input orientation:                          
 ---------------------------------------------------------------------
 Center     Atomic      Atomic             Coordinates (Angstroms)
 Number     Number       Type             X           Y           Z
 ---------------------------------------------------------------------
      1          6           0        0.285151    0.017445    1.042638
      2          6           0        1.522169    0.473257    1.579546
      3          6           0        1.458713    0.317666    2.945439
      4          7           0        0.232143   -0.213611    3.247888
      5          6           0       -0.491587   -0.400149    2.099144
      6          1           0       -0.002543   -0.001640    0.000879
      7          1           0        2.362584    0.869734    1.027368
      8          1           0        2.177658    0.538600    3.720652
      9          1           0       -0.090078   -0.433998    4.177427
     10          1           0       -1.489811   -0.811604    2.129119
 ---------------------------------------------------------------------
                    Distance matrix (angstroms):
                    1          2          3          4          5
     1  C    0.000000
     2  C    1.423464   0.000000
     3  C    2.255667   1.376190   0.000000
     4  N    2.217955   2.217954   1.370477   0.000000
     5  C    1.376194   2.255666   2.243913   1.370473   0.000000
     6  H    1.080923   2.245543   3.302675   3.262373   2.191047
     7  H    2.245520   1.080922   2.191063   3.262381   3.302665
     8  H    3.320383   2.240149   1.080115   2.138774   3.261197
     9  H    3.189278   3.189269   2.116967   1.008186   2.116983
    10  H    2.240145   3.320380   3.261200   2.138777   1.080114
                    6          7          8          9         10
     6  H    0.000000
     7  H    2.721544   0.000000
     8  H    4.345324   2.719857   0.000000
     9  H    4.199779   4.199779   2.509426   0.000000
    10  H    2.719819   4.345308   4.219758   2.509463   0.000000
 Stoichiometry    C4H5N
 Framework group  C1[X(C4H5N)]
 Deg. of freedom    24
 Full point group                 C1      NOp   1
 Largest Abelian subgroup         C1      NOp   1
 Largest concise Abelian subgroup C1      NOp   1
                         Standard orientation:                         
 ---------------------------------------------------------------------
 Center     Atomic      Atomic             Coordinates (Angstroms)
 Number     Number       Type             X           Y           Z
 ---------------------------------------------------------------------
      1          6           0        0.982043   -0.711549    0.000246
      2          6           0        0.981777    0.711915   -0.000079
      3          6           0       -0.331925    1.121896   -0.000118
      4          7           0       -1.118746   -0.000208    0.000270
      5          6           0       -0.331511   -1.122017   -0.000382
      6          1           0        1.846524   -1.360445    0.000423
      7          1           0        1.846042    1.361098   -0.000084
      8          1           0       -0.768755    2.109736   -0.000292
      9          1           0       -2.126932   -0.000376    0.000490
     10          1           0       -0.767963   -2.110022   -0.000432
 ---------------------------------------------------------------------
 Rotational constants (GHZ):      9.1764299      9.0364553      4.5529527

 **********************************************************************

            Population analysis using the SCF density.

 **********************************************************************

 Orbital symmetries:
       Occupied  (A) (A) (A) (A) (A) (A) (A) (A) (A) (A) (A) (A)
                 (A) (A) (A) (A) (A) (A)
       Virtual   (A) (A) (A) (A) (A) (A) (A) (A) (A) (A) (A) (A)
                 (A) (A) (A) (A) (A) (A) (A) (A) (A) (A) (A) (A)
                 (A) (A) (A) (A) (A) (A) (A) (A) (A) (A) (A) (A)
                 (A) (A) (A) (A) (A) (A) (A) (A) (A) (A) (A) (A)
                 (A) (A) (A) (A) (A) (A) (A) (A) (A) (A) (A) (A)
                 (A) (A) (A) (A) (A) (A) (A) (A) (A) (A) (A) (A)
                 (A) (A) (A) (A) (A) (A) (A) (A) (A) (A) (A) (A)
                 (A) (A) (A)
 The electronic state is 1-A.
 Alpha  occ. eigenvalues --  -14.81111 -10.56903 -10.56901 -10.53056 -10.52992
 Alpha  occ. eigenvalues --   -1.08860  -0.86856  -0.81477  -0.67042  -0.64352
 Alpha  occ. eigenvalues --   -0.62212  -0.49517  -0.48825  -0.48079  -0.45099
 Alpha  occ. eigenvalues --   -0.43435  -0.29897  -0.26473
 Alpha virt. eigenvalues --    0.01303   0.03601   0.04429   0.05352   0.05393
 Alpha virt. eigenvalues --    0.06452   0.08839   0.09281   0.09497   0.10360
 Alpha virt. eigenvalues --    0.11174   0.12166   0.12438   0.15879   0.16897
 Alpha virt. eigenvalues --    0.17299   0.18667   0.18813   0.21449   0.22819
 Alpha virt. eigenvalues --    0.24963   0.25330   0.25967   0.29253   0.30710
 Alpha virt. eigenvalues --    0.32324   0.32512   0.33360   0.35200   0.45867
 Alpha virt. eigenvalues --    0.50085   0.54812   0.72352   0.73479   0.76168
 Alpha virt. eigenvalues --    0.76179   0.77546   0.77992   0.80197   0.81945
 Alpha virt. eigenvalues --    0.92190   0.94268   0.96972   0.99340   1.00059
 Alpha virt. eigenvalues --    1.02378   1.02619   1.08111   1.09133   1.12247
 Alpha virt. eigenvalues --    1.18423   1.25079   1.25944   1.30245   1.36611
 Alpha virt. eigenvalues --    1.39752   1.41398   1.44304   1.55839   1.59406
 Alpha virt. eigenvalues --    1.59841   1.60119   1.86774   1.94023   2.06866
 Alpha virt. eigenvalues --    2.09528   2.13978   2.18275   2.25133   2.27561
 Alpha virt. eigenvalues --    2.35348   2.35772   2.37849   2.38838   2.58248
 Alpha virt. eigenvalues --    2.70241   2.71210   2.73284   2.75092   2.99513
 Alpha virt. eigenvalues --    3.05163   3.07519   4.05170   4.29966   4.33070
 Alpha virt. eigenvalues --    4.43168   4.53572
          Condensed to atoms (all electrons):
               1          2          3          4          5          6
     1  C    4.859391   0.539396  -0.017822  -0.167963   0.628001   0.337458
     2  C    0.539396   4.859385   0.628001  -0.167959  -0.017825  -0.015154
     3  C   -0.017822   0.628001   5.165213   0.362353  -0.231315   0.010210
     4  N   -0.167963  -0.167959   0.362353   6.870178   0.362359   0.011538
     5  C    0.628001  -0.017825  -0.231315   0.362359   5.165207  -0.031291
     6  H    0.337458  -0.015154   0.010210   0.011538  -0.031291   0.485550
     7  H   -0.015157   0.337459  -0.031291   0.011538   0.010211  -0.002490
     8  H    0.001743  -0.006397   0.354605  -0.050642   0.014937  -0.000100
     9  H    0.012241   0.012242  -0.030908   0.290252  -0.030905  -0.000095
    10  H   -0.006398   0.001744   0.014937  -0.050642   0.354606  -0.001479
               7          8          9         10
     1  C   -0.015157   0.001743   0.012241  -0.006398
     2  C    0.337459  -0.006397   0.012242   0.001744
     3  C   -0.031291   0.354605  -0.030908   0.014937
     4  N    0.011538  -0.050642   0.290252  -0.050642
     5  C    0.010211   0.014937  -0.030905   0.354606
     6  H   -0.002490  -0.000100  -0.000095  -0.001479
     7  H    0.485550  -0.001479  -0.000095  -0.000100
     8  H   -0.001479   0.477840  -0.002989  -0.000050
     9  H   -0.000095  -0.002989   0.329250  -0.002989
    10  H   -0.000100  -0.000050  -0.002989   0.477841
 Mulliken charges:
               1
     1  C   -0.170889
     2  C   -0.170893
     3  C   -0.223984
     4  N   -0.471012
     5  C   -0.223985
     6  H    0.205853
     7  H    0.205853
     8  H    0.212531
     9  H    0.423995
    10  H    0.212531
 Sum of Mulliken charges =   0.00000
 Mulliken charges with hydrogens summed into heavy atoms:
               1
     1  C    0.034964
     2  C    0.034960
     3  C   -0.011452
     4  N   -0.047018
     5  C   -0.011454
 Electronic spatial extent (au):  <R**2>=            306.2091
 Charge=              0.0000 electrons
 Dipole moment (field-independent basis, Debye):
    X=             -1.9792    Y=             -0.0004    Z=              0.0002  Tot=              1.9792
 Quadrupole moment (field-independent basis, Debye-Ang):
   XX=            -23.6721   YY=            -26.9755   ZZ=            -34.7680
   XY=              0.0005   XZ=             -0.0003   YZ=             -0.0005
 Traceless Quadrupole moment (field-independent basis, Debye-Ang):
   XX=              4.7998   YY=              1.4963   ZZ=             -6.2961
   XY=              0.0005   XZ=             -0.0003   YZ=             -0.0005
 Octapole moment (field-independent basis, Debye-Ang**2):
  XXX=            -12.9087  YYY=             -0.0018  ZZZ=              0.0016  XYY=             -2.9211
  XXY=             -0.0011  XXZ=              0.0058  XZZ=             -2.3957  YZZ=             -0.0004
  YYZ=             -0.0026  XYZ=             -0.0016
 Hexadecapole moment (field-independent basis, Debye-Ang**3):
 XXXX=           -151.1701 YYYY=           -179.7840 ZZZZ=            -44.2915 XXXY=              0.0033
 XXXZ=             -0.0066 YYYX=              0.0016 YYYZ=             -0.0018 ZZZX=             -0.0006
 ZZZY=             -0.0009 XXYY=            -56.6201 XXZZ=            -43.3796 YYZZ=            -46.8698
 XXYZ=             -0.0021 YYXZ=              0.0023 ZZXY=              0.0007
 N-N= 1.610486948918D+02 E-N=-8.091318334371D+02  KE= 2.082300940841D+02
 1\1\GINC-KATANA1\FOpt\RM062X\6-31+G(d)\C4H5N1\Z5358697\15-Mar-2025\0\\
 #m062X/6-31+G(d) OPT Freq=noraman\\pyrrole\\0,1\C,0.2851507219,0.01744
 49468,1.0426382131\C,1.5221691411,0.473256575,1.5795463443\C,1.4587134
 937,0.31766622,2.9454392448\N,0.2321427622,-0.213610721,3.2478881722\C
 ,-0.4915866455,-0.4001489487,2.099143575\H,-0.0025428502,-0.001639895,
 0.0008790297\H,2.3625844146,0.8697339281,1.027368128\H,2.1776580766,0.
 5386000114,3.7206517615\H,-0.0900783096,-0.43399764,4.1774267339\H,-1.
 4898108047,-0.8116044765,2.1291187976\\Version=ES64L-G09RevD.01\State=
 1-A\HF=-210.0814047\RMSD=6.359e-09\RMSF=3.915e-05\Dipole=-0.2489158,-0
 .1701414,0.7179419\Quadrupole=0.5379332,-3.6939399,3.1560067,2.1875429
 ,-0.5325016,-0.9620148\PG=C01 [X(C4H5N1)]\\@


 GETTING A SIMPLE ANSWER FROM A PROFESSOR IS LIKE
 GETTING A THIMBLE OF WATER FROM A FIRE HYDRANT.
     -- PROF. LEN SHAPIRO, NDSU
 Job cpu time:       0 days  0 hours  0 minutes 47.4 seconds.
 File lengths (MBytes):  RWF=    132 Int=      0 D2E=      0 Chk=      3 Scr=      2
 Normal termination of Gaussian 09 at Sat Mar 15 12:36:43 2025.
 Link1:  Proceeding to internal job step number  2.
 ---------------------------------------------------------------------
 #N Geom=AllCheck Guess=TCheck SCRF=Check GenChk RM062X/6-31+G(d) Freq
 ---------------------------------------------------------------------
 1/10=4,29=7,30=1,38=1,40=1/1,3;
 2/12=2,40=1/2;
 3/5=1,6=6,7=11,11=2,14=-4,16=1,25=1,30=1,70=2,71=2,74=-55,116=1,140=1/1,2,3;
 4/5=101/1;
 5/5=2,98=1/2;
 8/6=4,10=90,11=11/1;
 11/6=1,8=1,9=11,15=111,16=1/1,2,10;
 10/6=1/2;
 6/7=2,8=2,9=2,10=2,18=1,28=1/1;
 7/8=1,10=1,25=1/1,2,3,16;
 1/10=4,30=1/3;
 99//99;
 Structure from the checkpoint file:  "/srv/scratch/z5358697/gauss/Gau-989796.chk"
 -------
 pyrrole
 -------
 Charge =  0 Multiplicity = 1
 Redundant internal coordinates found in file.
 C,0,0.2851507219,0.0174449468,1.0426382131
 C,0,1.5221691411,0.473256575,1.5795463443
 C,0,1.4587134937,0.31766622,2.9454392448
 N,0,0.2321427622,-0.213610721,3.2478881722
 C,0,-0.4915866455,-0.4001489487,2.099143575
 H,0,-0.0025428502,-0.001639895,0.0008790297
 H,0,2.3625844146,0.8697339281,1.027368128
 H,0,2.1776580766,0.5386000114,3.7206517615
 H,0,-0.0900783096,-0.43399764,4.1774267339
 H,0,-1.4898108047,-0.8116044765,2.1291187976
 Recover connectivity data from disk.

 GradGradGradGradGradGradGradGradGradGradGradGradGradGradGradGradGradGrad
 Berny optimization.
 Initialization pass.
                           ----------------------------
                           !    Initial Parameters    !
                           ! (Angstroms and Degrees)  !
 --------------------------                            --------------------------
 ! Name  Definition              Value          Derivative Info.                !
 --------------------------------------------------------------------------------
 ! R1    R(1,2)                  1.4235         calculate D2E/DX2 analytically  !
 ! R2    R(1,5)                  1.3762         calculate D2E/DX2 analytically  !
 ! R3    R(1,6)                  1.0809         calculate D2E/DX2 analytically  !
 ! R4    R(2,3)                  1.3762         calculate D2E/DX2 analytically  !
 ! R5    R(2,7)                  1.0809         calculate D2E/DX2 analytically  !
 ! R6    R(3,4)                  1.3705         calculate D2E/DX2 analytically  !
 ! R7    R(3,8)                  1.0801         calculate D2E/DX2 analytically  !
 ! R8    R(4,5)                  1.3705         calculate D2E/DX2 analytically  !
 ! R9    R(4,9)                  1.0082         calculate D2E/DX2 analytically  !
 ! R10   R(5,10)                 1.0801         calculate D2E/DX2 analytically  !
 ! A1    A(2,1,5)              107.3426         calculate D2E/DX2 analytically  !
 ! A2    A(2,1,6)              126.9033         calculate D2E/DX2 analytically  !
 ! A3    A(5,1,6)              125.7541         calculate D2E/DX2 analytically  !
 ! A4    A(1,2,3)              107.3429         calculate D2E/DX2 analytically  !
 ! A5    A(1,2,7)              126.9009         calculate D2E/DX2 analytically  !
 ! A6    A(3,2,7)              125.7562         calculate D2E/DX2 analytically  !
 ! A7    A(2,3,4)              107.7061         calculate D2E/DX2 analytically  !
 ! A8    A(2,3,8)              131.1875         calculate D2E/DX2 analytically  !
 ! A9    A(4,3,8)              121.1064         calculate D2E/DX2 analytically  !
 ! A10   A(3,4,5)              109.9023         calculate D2E/DX2 analytically  !
 ! A11   A(3,4,9)              125.0478         calculate D2E/DX2 analytically  !
 ! A12   A(5,4,9)              125.0499         calculate D2E/DX2 analytically  !
 ! A13   A(1,5,4)              107.7061         calculate D2E/DX2 analytically  !
 ! A14   A(1,5,10)             131.1868         calculate D2E/DX2 analytically  !
 ! A15   A(4,5,10)             121.107          calculate D2E/DX2 analytically  !
 ! D1    D(5,1,2,3)              0.0339         calculate D2E/DX2 analytically  !
 ! D2    D(5,1,2,7)           -179.978          calculate D2E/DX2 analytically  !
 ! D3    D(6,1,2,3)           -179.9957         calculate D2E/DX2 analytically  !
 ! D4    D(6,1,2,7)             -0.0076         calculate D2E/DX2 analytically  !
 ! D5    D(2,1,5,4)             -0.0589         calculate D2E/DX2 analytically  !
 ! D6    D(2,1,5,10)           179.9975         calculate D2E/DX2 analytically  !
 ! D7    D(6,1,5,4)            179.9703         calculate D2E/DX2 analytically  !
 ! D8    D(6,1,5,10)             0.0267         calculate D2E/DX2 analytically  !
 ! D9    D(1,2,3,4)              0.0043         calculate D2E/DX2 analytically  !
[...]
 Thermal correction to Enthalpy=                  0.088321
 Thermal correction to Gibbs Free Energy=         0.057089
 Sum of electronic and zero-point Energies=           -209.997947
 Sum of electronic and thermal Energies=              -209.994028
 Sum of electronic and thermal Enthalpies=            -209.993084
 Sum of electronic and thermal Free Energies=         -210.024316
 
                     E (Thermal)             CV                S
                      KCal/Mol        Cal/Mol-Kelvin    Cal/Mol-Kelvin
 Total                   54.830             14.516             65.733
 Electronic               0.000              0.000              0.000
 Translational            0.889              2.981             38.526
 Rotational               0.889              2.981             24.258
 Vibrational             53.052              8.555              2.949
 Vibration     1          0.859              1.241              0.648
                       Q            Log10(Q)             Ln(Q)
 Total Bot       0.550779D-26        -26.259023        -60.463634
 Total V=0       0.134532D+13         12.128826         27.927655
 Vib (Bot)       0.571496D-38        -38.242987        -88.057731
 Vib (Bot)    1  0.324749D+00         -0.488452         -1.124702
 Vib (V=0)       0.139593D+01          0.144862          0.333558
 Vib (V=0)    1  0.109621D+01          0.039892          0.091856
 Electronic      0.100000D+01          0.000000          0.000000
 Translational   0.215763D+08          7.333978         16.887107
 Rotational      0.446670D+05          4.649986         10.706989
 ***** Axes restored to original set *****
 -------------------------------------------------------------------
 Center     Atomic                   Forces (Hartrees/Bohr)
 Number     Number              X              Y              Z
 -------------------------------------------------------------------
      1        6          -0.000054938    0.000074449    0.000030446
      2        6           0.000013408   -0.000031679    0.000021031
      3        6           0.000045303   -0.000027538    0.000001779
      4        7          -0.000029226    0.000100192   -0.000006048
      5        6           0.000025897   -0.000135041   -0.000033733
      6        1           0.000003670    0.000014726   -0.000002571
      7        1          -0.000002494    0.000001267   -0.000005673
      8        1           0.000013801   -0.000004245    0.000002537
      9        1          -0.000007965    0.000018255   -0.000002715
     10        1          -0.000007457   -0.000010386   -0.000005054
 -------------------------------------------------------------------
 Cartesian Forces:  Max     0.000135041 RMS     0.000039152
 FormGI is forming the generalized inverse of G from B-inverse, IUseBI=4.

 GradGradGradGradGradGradGradGradGradGradGradGradGradGradGradGradGradGrad
 Berny optimization.
 Internal  Forces:  Max     0.000058761 RMS     0.000020201
 Search for a local minimum.
 Step number   1 out of a maximum of    2
 All quantities printed in internal units (Hartrees-Bohrs-Radians)
 Second derivative matrix not updated -- analytic derivatives used.
 ITU=  0
     Eigenvalues ---    0.00513   0.01083   0.01289   0.01337   0.02431
     Eigenvalues ---    0.05357   0.05567   0.09445   0.10120   0.10355
     Eigenvalues ---    0.11306   0.11381   0.22241   0.23505   0.35387
     Eigenvalues ---    0.37583   0.37780   0.38199   0.38319   0.40948
     Eigenvalues ---    0.42457   0.46963   0.48638   0.55755
 Angle between quadratic step and forces=  28.34 degrees.
 Linear search not attempted -- first point.
 Iteration  1 RMS(Cart)=  0.00028612 RMS(Int)=  0.00000009
 Iteration  2 RMS(Cart)=  0.00000009 RMS(Int)=  0.00000006
 Variable       Old X    -DE/DX   Delta X   Delta X   Delta X     New X
                                 (Linear)    (Quad)   (Total)
    R1        2.68996   0.00002   0.00000   0.00003   0.00003   2.68998
    R2        2.60063  -0.00002   0.00000  -0.00003  -0.00003   2.60060
    R3        2.04265   0.00000   0.00000   0.00001   0.00001   2.04265
    R4        2.60062  -0.00002   0.00000  -0.00003  -0.00003   2.60060
    R5        2.04265   0.00000   0.00000   0.00001   0.00001   2.04265
    R6        2.58983   0.00002   0.00000   0.00004   0.00004   2.58987
    R7        2.04112   0.00001   0.00000   0.00002   0.00002   2.04114
    R8        2.58982   0.00002   0.00000   0.00005   0.00005   2.58987
    R9        1.90520   0.00000   0.00000   0.00000   0.00000   1.90519
   R10        2.04112   0.00001   0.00000   0.00002   0.00002   2.04114
    A1        1.87348   0.00001   0.00000   0.00004   0.00004   1.87352
    A2        2.21488  -0.00002   0.00000  -0.00014  -0.00014   2.21474
    A3        2.19482   0.00000   0.00000   0.00010   0.00010   2.19492
    A4        1.87349   0.00001   0.00000   0.00004   0.00004   1.87352
    A5        2.21484  -0.00001   0.00000  -0.00010  -0.00010   2.21474
    A6        2.19486   0.00000   0.00000   0.00007   0.00007   2.19493
    A7        1.87983  -0.00002   0.00000  -0.00008  -0.00008   1.87975
    A8        2.28965   0.00001   0.00000   0.00001   0.00001   2.28967
    A9        2.11371   0.00002   0.00000   0.00006   0.00006   2.11377
   A10        1.91816   0.00002   0.00000   0.00008   0.00008   1.91824
   A11        2.18250  -0.00001   0.00000  -0.00002  -0.00002   2.18247
   A12        2.18253  -0.00001   0.00000  -0.00006  -0.00006   2.18247
   A13        1.87983  -0.00002   0.00000  -0.00008  -0.00008   1.87975
   A14        2.28964   0.00001   0.00000   0.00003   0.00003   2.28967
   A15        2.11372   0.00002   0.00000   0.00005   0.00005   2.11377
    D1        0.00059  -0.00003   0.00000  -0.00059  -0.00059   0.00000
    D2       -3.14121  -0.00002   0.00000  -0.00038  -0.00038  -3.14159
    D3       -3.14152  -0.00001   0.00000  -0.00008  -0.00008   3.14159
    D4       -0.00013   0.00001   0.00000   0.00013   0.00013   0.00000
    D5       -0.00103   0.00005   0.00000   0.00103   0.00103   0.00000
    D6        3.14155   0.00001   0.00000   0.00005   0.00005  -3.14159
    D7        3.14107   0.00003   0.00000   0.00052   0.00052  -3.14159
    D8        0.00047  -0.00001   0.00000  -0.00046  -0.00046   0.00000
    D9        0.00008   0.00000   0.00000  -0.00008  -0.00008   0.00000
   D10        3.14155   0.00001   0.00000   0.00004   0.00004  -3.14159
   D11       -3.14131  -0.00002   0.00000  -0.00028  -0.00028   3.14159
   D12        0.00017   0.00000   0.00000  -0.00016  -0.00016   0.00000
   D13       -0.00073   0.00004   0.00000   0.00073   0.00073   0.00000
   D14        3.14141   0.00001   0.00000   0.00019   0.00019   3.14159
   D15        3.14097   0.00003   0.00000   0.00063   0.00063   3.14159
   D16       -0.00009   0.00000   0.00000   0.00008   0.00008   0.00000
   D17        0.00110  -0.00006   0.00000  -0.00110  -0.00110   0.00000
   D18       -3.14135  -0.00002   0.00000  -0.00024  -0.00024   3.14159
   D19       -3.14103  -0.00003   0.00000  -0.00056  -0.00056  -3.14159
   D20       -0.00030   0.00001   0.00000   0.00030   0.00030   0.00000
         Item               Value     Threshold  Converged?
 Maximum Force            0.000059     0.000450     YES
 RMS     Force            0.000020     0.000300     YES
 Maximum Displacement     0.000886     0.001800     YES
 RMS     Displacement     0.000286     0.001200     YES
 Predicted change in Energy=-1.320856D-07
 Optimization completed.
    -- Stationary point found.
                           ----------------------------
                           !   Optimized Parameters   !
                           ! (Angstroms and Degrees)  !
 --------------------------                            --------------------------
 ! Name  Definition              Value          Derivative Info.                !
 --------------------------------------------------------------------------------
 ! R1    R(1,2)                  1.4235         -DE/DX =    0.0                 !
 ! R2    R(1,5)                  1.3762         -DE/DX =    0.0                 !
 ! R3    R(1,6)                  1.0809         -DE/DX =    0.0                 !
 ! R4    R(2,3)                  1.3762         -DE/DX =    0.0                 !
 ! R5    R(2,7)                  1.0809         -DE/DX =    0.0                 !
 ! R6    R(3,4)                  1.3705         -DE/DX =    0.0                 !
 ! R7    R(3,8)                  1.0801         -DE/DX =    0.0                 !
 ! R8    R(4,5)                  1.3705         -DE/DX =    0.0                 !
 ! R9    R(4,9)                  1.0082         -DE/DX =    0.0                 !
 ! R10   R(5,10)                 1.0801         -DE/DX =    0.0                 !
 ! A1    A(2,1,5)              107.3426         -DE/DX =    0.0                 !
 ! A2    A(2,1,6)              126.9033         -DE/DX =    0.0                 !
 ! A3    A(5,1,6)              125.7541         -DE/DX =    0.0                 !
 ! A4    A(1,2,3)              107.3429         -DE/DX =    0.0                 !
 ! A5    A(1,2,7)              126.9009         -DE/DX =    0.0                 !
 ! A6    A(3,2,7)              125.7562         -DE/DX =    0.0                 !
 ! A7    A(2,3,4)              107.7061         -DE/DX =    0.0                 !
 ! A8    A(2,3,8)              131.1875         -DE/DX =    0.0                 !
 ! A9    A(4,3,8)              121.1064         -DE/DX =    0.0                 !
 ! A10   A(3,4,5)              109.9023         -DE/DX =    0.0                 !
 ! A11   A(3,4,9)              125.0478         -DE/DX =    0.0                 !
 ! A12   A(5,4,9)              125.0499         -DE/DX =    0.0                 !
 ! A13   A(1,5,4)              107.7061         -DE/DX =    0.0                 !
 ! A14   A(1,5,10)             131.1868         -DE/DX =    0.0                 !
 ! A15   A(4,5,10)             121.107          -DE/DX =    0.0                 !
 ! D1    D(5,1,2,3)              0.0339         -DE/DX =    0.0                 !
 ! D2    D(5,1,2,7)           -179.978          -DE/DX =    0.0                 !
 ! D3    D(6,1,2,3)            180.0043         -DE/DX =    0.0                 !
 ! D4    D(6,1,2,7)             -0.0076         -DE/DX =    0.0                 !
 ! D5    D(2,1,5,4)             -0.0589         -DE/DX =    0.0001              !
 ! D6    D(2,1,5,10)          -180.0025         -DE/DX =    0.0                 !
 ! D7    D(6,1,5,4)           -180.0297         -DE/DX =    0.0                 !
 ! D8    D(6,1,5,10)             0.0267         -DE/DX =    0.0                 !
 ! D9    D(1,2,3,4)              0.0043         -DE/DX =    0.0                 !
 ! D10   D(1,2,3,8)           -180.0023         -DE/DX =    0.0                 !
 ! D11   D(7,2,3,4)            180.0161         -DE/DX =    0.0                 !
 ! D12   D(7,2,3,8)              0.0095         -DE/DX =    0.0                 !
 ! D13   D(2,3,4,5)             -0.0418         -DE/DX =    0.0                 !
 ! D14   D(2,3,4,9)            179.9893         -DE/DX =    0.0                 !
 ! D15   D(8,3,4,5)            179.9641         -DE/DX =    0.0                 !
 ! D16   D(8,3,4,9)             -0.0049         -DE/DX =    0.0                 !
 ! D17   D(3,4,5,1)              0.0633         -DE/DX =   -0.0001              !
 ! D18   D(3,4,5,10)           180.0137         -DE/DX =    0.0                 !
 ! D19   D(9,4,5,1)           -179.9677         -DE/DX =    0.0                 !
 ! D20   D(9,4,5,10)            -0.0173         -DE/DX =    0.0                 !
 --------------------------------------------------------------------------------
 GradGradGradGradGradGradGradGradGradGradGradGradGradGradGradGradGradGrad

 1\1\GINC-KATANA1\Freq\RM062X\6-31+G(d)\C4H5N1\Z5358697\15-Mar-2025\0\\
 #N Geom=AllCheck Guess=TCheck SCRF=Check GenChk RM062X/6-31+G(d) Freq\
 \pyrrole\\0,1\C,0.2851507219,0.0174449468,1.0426382131\C,1.5221691411,
 0.473256575,1.5795463443\C,1.4587134937,0.31766622,2.9454392448\N,0.23
 21427622,-0.213610721,3.2478881722\C,-0.4915866455,-0.4001489487,2.099
 143575\H,-0.0025428502,-0.001639895,0.0008790297\H,2.3625844146,0.8697
 339281,1.027368128\H,2.1776580766,0.5386000114,3.7206517615\H,-0.09007
 83096,-0.43399764,4.1774267339\H,-1.4898108047,-0.8116044765,2.1291187
 976\\Version=ES64L-G09RevD.01\State=1-A\HF=-210.0814047\RMSD=1.561e-09
 \RMSF=3.915e-05\ZeroPoint=0.0834578\Thermal=0.0873765\Dipole=-0.248916
 ,-0.1701413,0.7179419\DipoleDeriv=-0.0415492,0.0767909,0.0787182,0.077
 8417,-0.2172264,0.0167027,0.0663012,0.0118172,-0.0846408,-0.0114911,0.
 0938276,0.029443,0.0926109,-0.2095795,0.0002306,0.0417885,0.005288,-0.
 1223097,0.0173145,0.1011383,-0.2761789,0.0929587,-0.1130537,-0.1452992
 ,-0.1919685,-0.1106939,0.1727553,-0.1730368,0.0226397,0.2203521,0.0224
 907,-0.2830166,0.1294149,0.2205654,0.1288736,-0.6867082,-0.151385,0.00
 4123,0.0147212,0.0127996,-0.1553937,-0.0463814,-0.0695927,-0.0806674,0
 .3838078,0.0824809,-0.0357113,-0.0544969,-0.0360457,0.1677332,-0.00120
 92,-0.0507182,0.0002476,-0.0394819,0.0004856,-0.0792083,0.0497637,-0.0
 788279,0.1470816,0.0316212,0.0460057,0.0301314,0.0631725,0.0592537,-0.
 0548912,-0.0446239,-0.0535862,0.181605,0.0001691,-0.0583549,-0.0054304
 ,0.0091999,0.2094656,-0.048494,-0.0215989,-0.0484592,0.3130732,0.00072
 58,-0.0216204,0.0007993,0.2313971,0.0084618,-0.0802148,0.0039004,-0.08
 17827,0.168777,0.0140256,0.0175939,0.0196347,0.072808\Polar=54.5756956
 ,8.2616739,37.6544558,1.1947761,-1.6621469,56.7925407\PG=C01 [X(C4H5N1
 )]\NImag=0\\0.52561139,0.16116353,0.19278211,0.04333374,-0.05340833,0.
 87325477,-0.24442454,-0.06756665,-0.07790103,0.65355864,-0.07050545,-0
 .08793815,-0.02469807,0.22853929,0.22507527,-0.04707231,-0.01208687,-0
 .13737881,-0.11348286,-0.10253139,0.71294081,0.00226694,-0.00253274,-0
 .01489754,-0.09877134,-0.01434648,0.00578853,0.63341521,0.00277447,0.0
 1321471,-0.00160724,-0.01606076,-0.07488662,0.03412987,0.19882928,0.19
 780777,-0.07084832,-0.02450551,-0.03545840,0.02375660,0.04148117,-0.39
 978732,0.13985038,-0.00843775,0.80785356,-0.00069787,-0.00419670,-0.01
 520979,-0.02544406,-0.02138974,0.05907222,-0.28719769,-0.09921959,0.03
 896906,0.61508619,-0.00839536,0.00930788,0.00343854,-0.01718312,0.0030
 9588,0.03094711,-0.09913756,-0.09676861,0.02220084,0.22521809,0.185365
 68,0.02877409,0.02147958,-0.08886850,0.01508876,0.01292001,-0.05790881
 ,0.03834746,0.02195271,-0.11971605,-0.07548192,-0.11196047,0.93419265,
 -0.19199685,-0.06496247,0.13790313,-0.04872044,-0.02401523,-0.00838272
 ,-0.06812954,-0.03287814,-0.01260365,-0.17066846,-0.03782966,-0.103890
 13,0.77412436,-0.06325414,-0.09824197,0.07706150,-0.02935062,0.0003868
 7,-0.00497377,-0.03024475,0.00291637,-0.00146079,-0.03777504,-0.067368
 63,-0.02235631,0.27251793,0.23298057,0.11994406,0.06968055,-0.28324224
 ,0.04756711,0.01791257,0.02836248,-0.04046198,-0.01283557,-0.02405331,
 -0.10450962,-0.02261022,-0.26565322,-0.03229688,-0.06222380,0.63202152
 ,-0.07562189,-0.01156734,-0.08049931,0.00177461,0.00306859,-0.02345438
 ,-0.00522949,-0.00341035,-0.00193334,-0.00180397,-0.00310443,0.0043214
 9,0.01019803,0.00281123,0.01633873,0.06889038,-0.01177737,-0.03322375,
 -0.00322271,0.00068124,0.00089712,-0.00949022,-0.00352516,0.00214228,-
 0.00044392,-0.00290886,0.00335922,0.00246572,0.00530868,0.00097447,0.0
 0767529,0.01056081,0.02727760,-0.07824886,-0.00231717,-0.34242797,0.00
 165569,0.00079925,-0.00154008,-0.00073941,0.00004094,-0.00008793,0.002
 32628,0.00164086,-0.00250799,-0.01000993,-0.00309221,-0.01100024,0.085
 57922,0.00333156,0.35788326,-0.00932542,-0.00514595,0.01524767,-0.2389
 2583,-0.09763382,0.12180977,0.00433629,0.00223659,-0.00283190,0.001503
 01,-0.00117927,-0.00172162,-0.00374851,-0.00274497,-0.00255512,0.00024
 912,0.00109147,-0.00029213,0.24590286,-0.00276356,-0.00189136,0.005049
 35,-0.09741800,-0.07431028,0.06022566,-0.00026594,-0.00049650,-0.00084
 917,-0.00136881,0.00418707,0.00037694,-0.00263164,0.00251596,-0.000524
 82,0.00096242,-0.00192243,-0.00033762,0.10361105,0.07180668,-0.0098669
 3,-0.00523536,0.01234708,0.11956477,0.05931454,-0.13800884,0.02351004,
 0.00993042,-0.00366570,0.00027643,0.00119734,-0.00664239,-0.00374685,-
 0.00101395,-0.00194240,0.00106541,0.00021791,-0.00004518,-0.13126319,-
 0.06446442,0.13631225,0.00124048,-0.00151235,0.00154355,0.00765200,0.0
 0214255,0.00286951,-0.18303651,-0.05269860,-0.14036096,-0.01628389,-0.
 00297347,-0.02306545,-0.00292434,-0.00254357,0.00428088,0.00075155,-0.
 00020652,0.00002082,-0.00066078,0.00116212,-0.00051131,0.19327140,-0.0
 0141222,0.00384539,0.00160180,0.00424168,0.00332550,0.00180467,-0.0518
 0592,-0.03944285,-0.03865632,-0.00619203,-0.00515243,-0.01097837,-0.00
 237230,0.00111155,0.00210166,-0.00007829,0.00120476,0.00013107,0.00104
 464,-0.00289810,-0.00056259,0.05677308,0.03743303,0.00052816,0.0011855
 3,-0.00564199,-0.01928786,-0.00726306,-0.00494190,-0.14975122,-0.04250
 674,-0.22028598,0.01075204,0.00287703,0.01239232,0.00254728,0.00138512
 ,-0.00131211,-0.00132222,-0.00041840,-0.00005028,0.00072359,-0.0000574
 5,0.00035032,0.15636484,0.04504848,0.21863784,-0.00227425,-0.00138464,
 -0.00545073,-0.00666745,-0.00377578,0.00075880,0.00116505,0.00064118,0
 .02848363,-0.10429414,-0.05242070,0.11433708,0.01287601,0.00958102,-0.
 01524836,0.00123847,-0.00038077,-0.00075358,0.00074374,-0.00077627,0.0
 0128327,0.00000746,0.00075459,-0.00073240,0.09758318,-0.00145849,0.001
 94028,-0.00170820,-0.00369690,0.00083065,0.00031253,0.00342341,-0.0066
 2678,0.01084887,-0.05241236,-0.03241112,0.08555382,0.00678410,-0.00368
 684,-0.00565983,-0.00051597,0.00213591,-0.00005819,-0.00064052,0.00201
 113,0.00071806,0.00067540,-0.00134439,-0.00047016,0.04728980,0.0385932
 1,-0.00462875,-0.00136406,-0.00319175,-0.00006705,-0.00002115,0.002310
 59,-0.00090193,-0.00119523,0.00164763,0.11433147,0.08557239,-0.4100573
 6,0.01414788,0.00635188,-0.01300243,0.00067684,0.00052954,-0.00030706,
 -0.00014848,0.00013378,0.00031232,0.00011040,-0.00012549,0.00012840,-0
 .12326111,-0.08955900,0.42154819,-0.00477798,-0.00229470,-0.00406970,-
 0.00003158,-0.00208392,0.00209343,0.00118108,-0.00021408,-0.00248149,-
 0.01019911,-0.00299451,0.00329024,-0.31101026,-0.11899708,0.00694120,-
 0.00044679,0.00115646,0.00046191,-0.00007447,-0.00051136,-0.00031164,-
 0.00001737,-0.00095324,0.00017779,-0.00037807,0.00055153,-0.00025927,0
 .32575454,-0.00437141,0.00020485,-0.00250664,-0.00218616,0.00352376,0.
 00166239,-0.00039414,0.00214023,-0.00017740,0.00024504,-0.00361495,0.0
 0054637,-0.11992128,-0.07158835,0.00648417,0.00127333,-0.00284518,-0.0
 0013850,-0.00063922,0.00099784,-0.00010195,-0.00081865,0.00191754,0.00
 021966,0.00047157,-0.00144206,-0.00032267,0.12634091,0.07070632,0.0180
 8512,0.00657163,0.01060781,0.00310585,0.00208614,-0.00404812,-0.000744
 33,0.00052859,-0.00644651,-0.03052618,-0.01330342,0.00476935,0.0163318
 8,0.01032234,-0.06017804,-0.00077244,-0.00064477,0.00008348,0.00103143
 ,0.00044774,0.00098253,-0.00125227,-0.00036492,0.00072338,0.00058339,0
 .00002211,0.00061146,-0.00584245,-0.00566544,0.05289466\\0.00005494,-0
 .00007445,-0.00003045,-0.00001341,0.00003168,-0.00002103,-0.00004530,0
 .00002754,-0.00000178,0.00002923,-0.00010019,0.00000605,-0.00002590,0.
 00013504,0.00003373,-0.00000367,-0.00001473,0.00000257,0.00000249,-0.0
 0000127,0.00000567,-0.00001380,0.00000425,-0.00000254,0.00000796,-0.00
 001825,0.00000272,0.00000746,0.00001039,0.00000505\\\@


 IT IS A PROFOUNDLY ERRONEOUS TRUISM ... THAT WE SHOULD CULTIVATE
 THE HABIT OF THINKING OF WHAT WE ARE DOING.
 THE PRECISE OPPOSITE IS THE CASE.
 CIVILIZATION ADVANCES BY EXTENDING THE NUMBER OF IMPORTANT OPERATIONS
 WHICH WE CAN PERFORM WITHOUT THINKING ABOUT THEM.

                                    -- ALFRED NORTH WHITEHEAD
 Job cpu time:       0 days  0 hours  1 minutes 17.2 seconds.
 File lengths (MBytes):  RWF=    132 Int=      0 D2E=      0 Chk=      3 Scr=      2
 Normal termination of Gaussian 09 at Sat Mar 15 12:38:03 2025.
