 Entering Gaussian System, Link 0=g09
 Initial command:
 /apps/z_install_tree/linux-rocky8-ivybridge/gcc-12.2.0/gaussian-09-D.01-wczn3gur5lpur3omlkzwa2l5ecyxp5ef/g09/l1.exe "/srv/scratch/z5358697/gauss/Gau-820451.inp" -scrdir="/srv/scratch/z5358697/gauss/"
 Entering Link 1 = /apps/z_install_tree/linux-rocky8-ivybridge/gcc-12.2.0/gaussian-09-D.01-wczn3gur5lpur3omlkzwa2l5ecyxp5ef/g09/l1.exe PID=    820452.
  
 Copyright (c) 1988,1990,1992,1993,1995,1998,2003,2009,2013,
            Gaussian, Inc.  All Rights Reserved.
  
 This is part of the Gaussian(R) 09 program.  It is based on
 the Gaussian(R) 03 system (copyright 2003, Gaussian, Inc.),
 the Gaussian(R) 98 system (copyright 1998, Gaussian, Inc.),
 the Gaussian(R) 94 system (copyright 1995, Gaussian, Inc.),
 the Gaussian 92(TM) system (copyright 1992, Gaussian, Inc.),
 the Gaussian 90(TM) system (copyright 1990, Gaussian, Inc.),
 the Gaussian 88(TM) system (copyright 1988, Gaussian, Inc.),
 the Gaussian 86(TM) system (copyright 1986, Carnegie Mellon
 University), and the Gaussian 82(TM) system (copyright 1983,
 Carnegie Mellon University). Gaussian is a federally registered
 trademark of Gaussian, Inc.
  
 This software contains proprietary and confidential information,
 including trade secrets, belonging to Gaussian, Inc.
  
 This software is provided under written license and may be
 used, copied, transmitted, or stored only in accord with that
 written license.
  
 The following legend is applicable only to US Government
 contracts under FAR:
  
                    RESTRICTED RIGHTS LEGEND
  
 Use, reproduction and disclosure by the US Government is
 subject to restrictions as set forth in subparagraphs (a)
 and (c) of the Commercial Computer Software - Restricted
 Rights clause in FAR 52.227-19.
  
 Gaussian, Inc.
 340 Quinnipiac St., Bldg. 40, Wallingford CT 06492
  
  
 ---------------------------------------------------------------
 Warning -- This program may not be used in any manner that
 competes with the business of Gaussian, Inc. or will provide
 assistance to any competitor of Gaussian, Inc.  The licensee
 of this program is prohibited from giving any competitor of
 Gaussian, Inc. access to this program.  By using this program,
 the user acknowledges that Gaussian, Inc. is engaged in the
 business of creating and licensing software in the field of
 computational chemistry and represents and warrants to the
 licensee that it is not a competitor of Gaussian, Inc. and that
 it will not use this program in any manner prohibited above.
 ---------------------------------------------------------------
  

 Cite this work as:
 Gaussian 09, Revision D.01,
 M. J. Frisch, G. W. Trucks, H. B. Schlegel, G. E. Scuseria, 
 M. A. Robb, J. R. Cheeseman, G. Scalmani, V. Barone, B. Mennucci, 
 G. A. Petersson, H. Nakatsuji, M. Caricato, X. Li, H. P. Hratchian, 
 A. F. Izmaylov, J. Bloino, G. Zheng, J. L. Sonnenberg, M. Hada, 
 M. Ehara, K. Toyota, R. Fukuda, J. Hasegawa, M. Ishida, T. Nakajima, 
 Y. Honda, O. Kitao, H. Nakai, T. Vreven, J. A. Montgomery, Jr., 
 J. E. Peralta, F. Ogliaro, M. Bearpark, J. J. Heyd, E. Brothers, 
 K. N. Kudin, V. N. Staroverov, T. Keith, R. Kobayashi, J. Normand, 
 K. Raghavachari, A. Rendell, J. C. Burant, S. S. Iyengar, J. Tomasi, 
 M. Cossi, N. Rega, J. M. Millam, M. Klene, J. E. Knox, J. B. Cross, 
 V. Bakken, C. Adamo, J. Jaramillo, R. Gomperts, R. E. Stratmann, 
 O. Yazyev, A. J. Austin, R. Cammi, C. Pomelli, J. W. Ochterski, 
 R. L. Martin, K. Morokuma, V. G. Zakrzewski, G. A. Voth, 
 P. Salvador, J. J. Dannenberg, S. Dapprich, A. D. Daniels, 
 O. Farkas, J. B. Foresman, J. V. Ortiz, J. Cioslowski, 
 and D. J. Fox, Gaussian, Inc., Wallingford CT, 2013.
 
 ******************************************
 Gaussian 09:  ES64L-G09RevD.01 24-Apr-2013
                14-Mar-2025 
 ******************************************
 ---------------------------------
 #m062X/6-31+G(d) OPT Freq=noraman
 ---------------------------------
 1/14=-1,18=20,19=15,26=3,38=1/1,3;
 2/9=110,12=2,17=6,18=5,40=1/2;
 3/5=1,6=6,7=11,11=2,16=1,25=1,30=1,71=1,74=-55/1,2,3;
 4//1;
 5/5=2,38=5/2;
 6/7=2,8=2,9=2,10=2,28=1/1;
 7//1,2,3,16;
 1/14=-1,18=20,19=15,26=3/3(2);
 2/9=110/2;
 99//99;
 2/9=110/2;
 3/5=1,6=6,7=11,11=2,16=1,25=1,30=1,71=1,74=-55/1,2,3;
 4/5=5,16=3,69=1/1;
 5/5=2,38=5/2;
 7//1,2,3,16;
 1/14=-1,18=20,19=15,26=3/3(-5);
 2/9=110/2;
 6/7=2,8=2,9=2,10=2,19=2,28=1/1;
 99/9=1/99;
 ---------
 thiophene
 ---------
 Symbolic Z-matrix:
 Charge =  0 Multiplicity = 1
 C                    -0.4682   -0.0882   -0.9718 
 C                    -0.2528    0.8087   -2.0577 
 C                    -0.9783    0.4538   -3.1737 
 S                    -1.9146   -0.9556   -2.9098 
 C                    -1.3504   -1.0945   -1.299 
 H                    -0.0002   -0.0001    0.0001 
 H                     0.401     1.6704   -2.0224 
 H                    -1.0031    0.9546   -4.1312 
 H                    -1.6902   -1.9046   -0.6692 
 

 GradGradGradGradGradGradGradGradGradGradGradGradGradGradGradGradGradGrad
 Berny optimization.
 Initialization pass.
                           ----------------------------
                           !    Initial Parameters    !
                           ! (Angstroms and Degrees)  !
 --------------------------                            --------------------------
 ! Name  Definition              Value          Derivative Info.                !
 --------------------------------------------------------------------------------
 ! R1    R(1,2)                  1.4248         estimate D2E/DX2                !
 ! R2    R(1,5)                  1.3777         estimate D2E/DX2                !
 ! R3    R(1,6)                  1.0823         estimate D2E/DX2                !
 ! R4    R(2,3)                  1.3776         estimate D2E/DX2                !
 ! R5    R(2,7)                  1.0822         estimate D2E/DX2                !
 ! R6    R(3,4)                  1.7125         estimate D2E/DX2                !
 ! R7    R(3,8)                  1.0808         estimate D2E/DX2                !
 ! R8    R(4,5)                  1.7124         estimate D2E/DX2                !
 ! R9    R(5,9)                  1.0809         estimate D2E/DX2                !
 ! A1    A(2,1,5)              112.0618         estimate D2E/DX2                !
 ! A2    A(2,1,6)              124.5965         estimate D2E/DX2                !
 ! A3    A(5,1,6)              123.3417         estimate D2E/DX2                !
 ! A4    A(1,2,3)              112.0635         estimate D2E/DX2                !
 ! A5    A(1,2,7)              124.5896         estimate D2E/DX2                !
 ! A6    A(3,2,7)              123.3469         estimate D2E/DX2                !
 ! A7    A(2,3,4)              112.0319         estimate D2E/DX2                !
 ! A8    A(2,3,8)              127.6168         estimate D2E/DX2                !
 ! A9    A(4,3,8)              120.3513         estimate D2E/DX2                !
 ! A10   A(3,4,5)               91.8094         estimate D2E/DX2                !
 ! A11   A(1,5,4)              112.0334         estimate D2E/DX2                !
 ! A12   A(1,5,9)              127.6151         estimate D2E/DX2                !
 ! A13   A(4,5,9)              120.3514         estimate D2E/DX2                !
 ! D1    D(5,1,2,3)             -0.0108         estimate D2E/DX2                !
 ! D2    D(5,1,2,7)            179.9929         estimate D2E/DX2                !
 ! D3    D(6,1,2,3)            179.9966         estimate D2E/DX2                !
 ! D4    D(6,1,2,7)              0.0002         estimate D2E/DX2                !
 ! D5    D(2,1,5,4)              0.0086         estimate D2E/DX2                !
 ! D6    D(2,1,5,9)            179.9886         estimate D2E/DX2                !
 ! D7    D(6,1,5,4)           -179.9986         estimate D2E/DX2                !
 ! D8    D(6,1,5,9)             -0.0186         estimate D2E/DX2                !
 ! D9    D(1,2,3,4)              0.0081         estimate D2E/DX2                !
 ! D10   D(1,2,3,8)           -179.98           estimate D2E/DX2                !
 ! D11   D(7,2,3,4)           -179.9955         estimate D2E/DX2                !
 ! D12   D(7,2,3,8)              0.0164         estimate D2E/DX2                !
 ! D13   D(2,3,4,5)             -0.0028         estimate D2E/DX2                !
 ! D14   D(8,3,4,5)            179.9863         estimate D2E/DX2                !
 ! D15   D(3,4,5,1)             -0.0035         estimate D2E/DX2                !
 ! D16   D(3,4,5,9)           -179.9851         estimate D2E/DX2                !
 --------------------------------------------------------------------------------
 Trust Radius=3.00D-01 FncErr=1.00D-07 GrdErr=1.00D-06
 Number of steps in this run=     48 maximum allowed number of steps=    100.
 GradGradGradGradGradGradGradGradGradGradGradGradGradGradGradGradGradGrad

                          Input orientation:                          
 ---------------------------------------------------------------------
 Center     Atomic      Atomic             Coordinates (Angstroms)
 Number     Number       Type             X           Y           Z
 ---------------------------------------------------------------------
      1          6           0       -0.468200   -0.088200   -0.971800
      2          6           0       -0.252800    0.808700   -2.057700
      3          6           0       -0.978300    0.453800   -3.173700
      4         16           0       -1.914600   -0.955600   -2.909800
      5          6           0       -1.350400   -1.094500   -1.299000
      6          1           0       -0.000200   -0.000100    0.000100
      7          1           0        0.401000    1.670400   -2.022400
      8          1           0       -1.003100    0.954600   -4.131200
      9          1           0       -1.690200   -1.904600   -0.669200
 ---------------------------------------------------------------------
                    Distance matrix (angstroms):
                    1          2          3          4          5
     1  C    0.000000
     2  C    1.424783   0.000000
     3  C    2.324291   1.377592   0.000000
     4  S    2.569105   2.569126   1.712515   0.000000
     5  C    1.377671   2.324333   2.459714   1.712393   0.000000
     6  H    1.082301   2.225422   3.351971   3.611845   2.169888
     7  H    2.225296   1.082233   2.169810   3.611836   3.351922
     8  H    3.369771   2.209896   1.080843   2.443668   3.512945
     9  H    2.210014   3.369874   3.513029   2.443613   1.080914
                    6          7          8          9
     6  H    0.000000
     7  H    2.653684   0.000000
     8  H    4.357167   2.632661   0.000000
     9  H    2.632714   4.357166   4.542309   0.000000
 Stoichiometry    C4H4S
 Framework group  C1[X(C4H4S)]
 Deg. of freedom    21
 Full point group                 C1      NOp   1
 Largest Abelian subgroup         C1      NOp   1
 Largest concise Abelian subgroup C1      NOp   1
                         Standard orientation:                         
 ---------------------------------------------------------------------
 Center     Atomic      Atomic             Coordinates (Angstroms)
 Number     Number       Type             X           Y           Z
 ---------------------------------------------------------------------
      1          6           0       -1.276436   -0.712499    0.000049
      2          6           0       -1.276575    0.712284   -0.000053
      3          6           0        0.000083    1.229878    0.000020
      4         16           0        1.191865    0.000096   -0.000014
      5          6           0        0.000411   -1.229835   -0.000044
      6          1           0       -2.167295   -1.327109    0.000069
      7          1           0       -2.167571    1.326575   -0.000118
      8          1           0        0.289794    2.271171    0.000268
      9          1           0        0.290344   -2.271139    0.000172
 ---------------------------------------------------------------------
 Rotational constants (GHZ):      8.0955500      5.3763015      3.2307451
 Standard basis: 6-31+G(d) (6D, 7F)
 There are   107 symmetry adapted cartesian basis functions of A   symmetry.
 There are   107 symmetry adapted basis functions of A   symmetry.
   107 basis functions,   200 primitive gaussians,   107 cartesian basis functions
    22 alpha electrons       22 beta electrons
       nuclear repulsion energy       202.6046198773 Hartrees.
 NAtoms=    9 NActive=    9 NUniq=    9 SFac= 1.00D+00 NAtFMM=   60 NAOKFM=F Big=F
 Integral buffers will be    131072 words long.
 Raffenetti 2 integral format.
 Two-electron integral symmetry is turned on.
 One-electron integrals computed using PRISM.
 NBasis=   107 RedAO= T EigKep=  2.89D-05  NBF=   107
 NBsUse=   107 1.00D-06 EigRej= -1.00D+00 NBFU=   107
 ExpMin= 4.05D-02 ExpMax= 2.19D+04 ExpMxC= 3.30D+03 IAcc=2 IRadAn=         4 AccDes= 0.00D+00
 Harris functional with IExCor= 1009 and IRadAn=       4 diagonalized for initial guess.
 HarFok:  IExCor= 1009 AccDes= 0.00D+00 IRadAn=         4 IDoV= 1 UseB2=F ITyADJ=14
 ICtDFT=  3500011 ScaDFX=  1.000000  1.000000  1.000000  1.000000
 FoFCou: FMM=F IPFlag=           0 FMFlag=      100000 FMFlg1=           0
         NFxFlg=           0 DoJE=T BraDBF=F KetDBF=T FulRan=T
         wScrn=  0.000000 ICntrl=     500 IOpCl=  0 I1Cent=   200000004 NGrid=           0
         NMat0=    1 NMatS0=      1 NMatT0=    0 NMatD0=    1 NMtDS0=    0 NMtDT0=    0
 Petite list used in FoFCou.
 Keep R1 ints in memory in canonical form, NReq=17677915.
 Requested convergence on RMS density matrix=1.00D-08 within 128 cycles.
 Requested convergence on MAX density matrix=1.00D-06.
 Requested convergence on             energy=1.00D-06.
 No special actions if energy rises.
 SCF Done:  E(RM062X) =  -552.901467154     A.U. after   13 cycles
            NFock= 13  Conv=0.20D-08     -V/T= 2.0046

 **********************************************************************

            Population analysis using the SCF density.

 **********************************************************************

 Orbital symmetries:
       Occupied  (A) (A) (A) (A) (A) (A) (A) (A) (A) (A) (A) (A)
                 (A) (A) (A) (A) (A) (A) (A) (A) (A) (A)
       Virtual   (A) (A) (A) (A) (A) (A) (A) (A) (A) (A) (A) (A)
                 (A) (A) (A) (A) (A) (A) (A) (A) (A) (A) (A) (A)
                 (A) (A) (A) (A) (A) (A) (A) (A) (A) (A) (A) (A)
                 (A) (A) (A) (A) (A) (A) (A) (A) (A) (A) (A) (A)
                 (A) (A) (A) (A) (A) (A) (A) (A) (A) (A) (A) (A)
                 (A) (A) (A) (A) (A) (A) (A) (A) (A) (A) (A) (A)
                 (A) (A) (A) (A) (A) (A) (A) (A) (A) (A) (A) (A)
                 (A)
 The electronic state is 1-A.
 Alpha  occ. eigenvalues --  -89.95668 -10.58025 -10.58024 -10.55909 -10.55845
 Alpha  occ. eigenvalues --   -8.30215  -6.22211  -6.21984  -6.21794  -0.98513
 Alpha  occ. eigenvalues --   -0.82938  -0.81728  -0.64350  -0.63276  -0.59163
 Alpha  occ. eigenvalues --   -0.47696  -0.45543  -0.45096  -0.45001  -0.40670
 Alpha  occ. eigenvalues --   -0.30666  -0.29117
 Alpha virt. eigenvalues --    0.01341   0.02647   0.02659   0.03892   0.04519
 Alpha virt. eigenvalues --    0.05320   0.07025   0.07487   0.08162   0.09025
 Alpha virt. eigenvalues --    0.09992   0.10474   0.11065   0.11662   0.14111
 Alpha virt. eigenvalues --    0.15079   0.15694   0.16936   0.17387   0.18122
 Alpha virt. eigenvalues --    0.19669   0.21055   0.22518   0.22738   0.22756
 Alpha virt. eigenvalues --    0.29658   0.31322   0.31608   0.33064   0.40715
 Alpha virt. eigenvalues --    0.51016   0.52391   0.53250   0.57056   0.59889
 Alpha virt. eigenvalues --    0.60198   0.70187   0.70190   0.71169   0.76964
 Alpha virt. eigenvalues --    0.77476   0.77943   0.80087   0.86947   0.88119
 Alpha virt. eigenvalues --    0.92038   0.95198   0.96934   0.98871   1.03038
 Alpha virt. eigenvalues --    1.04141   1.07820   1.08012   1.09102   1.14505
 Alpha virt. eigenvalues --    1.18982   1.19519   1.26091   1.38184   1.40879
 Alpha virt. eigenvalues --    1.47234   1.50586   1.54544   1.77092   1.88999
 Alpha virt. eigenvalues --    1.89574   1.93758   2.01871   2.08293   2.23631
 Alpha virt. eigenvalues --    2.27409   2.27986   2.30797   2.31263   2.47051
 Alpha virt. eigenvalues --    2.52380   2.65915   2.67418   2.90062   3.01502
 Alpha virt. eigenvalues --    4.01307   4.22160   4.26366   4.37507   4.49426
          Condensed to atoms (all electrons):
               1          2          3          4          5          6
     1  C    4.901706   0.559710  -0.041382  -0.075665   0.522451   0.309676
     2  C    0.559710   4.901632   0.522486  -0.075672  -0.041342  -0.010931
     3  C   -0.041382   0.522486   5.363123   0.347675  -0.183178   0.005734
     4  S   -0.075665  -0.075672   0.347675  15.376050   0.347617   0.001845
     5  C    0.522451  -0.041342  -0.183178   0.347617   5.363180  -0.000006
     6  H    0.309676  -0.010931   0.005734   0.001845  -0.000006   0.481476
     7  H   -0.010952   0.309699  -0.000013   0.001844   0.005738  -0.002169
     8  H   -0.008603   0.019722   0.321414  -0.024538   0.011296  -0.000076
     9  H    0.019742  -0.008609   0.011297  -0.024531   0.321378  -0.002392
               7          8          9
     1  C   -0.010952  -0.008603   0.019742
     2  C    0.309699   0.019722  -0.008609
     3  C   -0.000013   0.321414   0.011297
     4  S    0.001844  -0.024538  -0.024531
     5  C    0.005738   0.011296   0.321378
     6  H   -0.002169  -0.000076  -0.002392
     7  H    0.481474  -0.002393  -0.000076
     8  H   -0.002393   0.438934  -0.000050
     9  H   -0.000076  -0.000050   0.438941
 Mulliken charges:
               1
     1  C   -0.176682
     2  C   -0.176693
     3  C   -0.347155
     4  S    0.125376
     5  C   -0.347133
     6  H    0.216845
     7  H    0.216848
     8  H    0.244295
     9  H    0.244301
 Sum of Mulliken charges =   0.00000
 Mulliken charges with hydrogens summed into heavy atoms:
               1
     1  C    0.040162
     2  C    0.040155
     3  C   -0.102860
     4  S    0.125376
     5  C   -0.102832
 Electronic spatial extent (au):  <R**2>=            401.0121
 Charge=              0.0000 electrons
 Dipole moment (field-independent basis, Debye):
    X=             -0.4527    Y=              0.0000    Z=              0.0004  Tot=              0.4527
 Quadrupole moment (field-independent basis, Debye-Ang):
   XX=            -34.7841   YY=            -31.7086   ZZ=            -40.9590
   XY=             -0.0006   XZ=              0.0002   YZ=              0.0000
 Traceless Quadrupole moment (field-independent basis, Debye-Ang):
   XX=              1.0331   YY=              4.1086   ZZ=             -5.1418
   XY=             -0.0006   XZ=              0.0002   YZ=              0.0000
 Octapole moment (field-independent basis, Debye-Ang**2):
  XXX=             -5.3704  YYY=              0.0005  ZZZ=              0.0005  XYY=              2.1536
  XXY=             -0.0008  XXZ=             -0.0001  XZZ=              2.5033  YZZ=              0.0005
  YYZ=              0.0032  XYZ=              0.0008
 Hexadecapole moment (field-independent basis, Debye-Ang**3):
 XXXX=           -280.1805 YYYY=           -197.7599 ZZZZ=            -53.4665 XXXY=             -0.0023
 XXXZ=              0.0008 YYYX=             -0.0011 YYYZ=              0.0007 ZZZX=              0.0001
 ZZZY=              0.0000 XXYY=            -77.6352 XXZZ=            -63.4977 YYZZ=            -53.3290
 XXYZ=             -0.0009 YYXZ=              0.0011 ZZXY=             -0.0005
 N-N= 2.026046198773D+02 E-N=-1.709281557439D+03  KE= 5.503651504781D+02
 Calling FoFJK, ICntrl=      2127 FMM=F ISym2X=0 I1Cent= 0 IOpClX= 0 NMat=1 NMatS=1 NMatT=0.
 ***** Axes restored to original set *****
 -------------------------------------------------------------------
 Center     Atomic                   Forces (Hartrees/Bohr)
 Number     Number              X              Y              Z
 -------------------------------------------------------------------
      1        6          -0.007088402   -0.007472775   -0.003658332
      2        6          -0.006150967   -0.003758245   -0.008153715
      3        6           0.007041486    0.006217315    0.005856281
      4       16          -0.001235854   -0.001027902   -0.001152588
      5        6           0.006946138    0.005567661    0.006731000
      6        1           0.000378745    0.000063406    0.000797903
      7        1           0.000563998    0.000746792    0.000010171
      8        1          -0.000155217    0.000155256   -0.000615580
      9        1          -0.000299926   -0.000491508    0.000184861
 -------------------------------------------------------------------
 Cartesian Forces:  Max     0.008153715 RMS     0.004265998

 GradGradGradGradGradGradGradGradGradGradGradGradGradGradGradGradGradGrad
 Berny optimization.
 FormGI is forming the generalized inverse of G from B-inverse, IUseBI=4.
 Internal  Forces:  Max     0.009594710 RMS     0.002437778
 Search for a local minimum.
 Step number   1 out of a maximum of   48
 All quantities printed in internal units (Hartrees-Bohrs-Radians)
 Mixed Optimization -- RFO/linear search
 Second derivative matrix not updated -- first step.
 ITU=  0
     Eigenvalues ---    0.01816   0.01921   0.02079   0.02122   0.02161
     Eigenvalues ---    0.02214   0.16000   0.16000   0.16000   0.16000
     Eigenvalues ---    0.22000   0.22661   0.33154   0.33519   0.35718
     Eigenvalues ---    0.35726   0.35884   0.35893   0.40604   0.45993
     Eigenvalues ---    0.49133
 RFO step:  Lambda=-5.24145452D-04 EMin= 1.81568486D-02
 Linear search not attempted -- first point.
 Iteration  1 RMS(Cart)=  0.00673024 RMS(Int)=  0.00002696
 Iteration  2 RMS(Cart)=  0.00002398 RMS(Int)=  0.00001259
 Iteration  3 RMS(Cart)=  0.00000000 RMS(Int)=  0.00001259
 Variable       Old X    -DE/DX   Delta X   Delta X   Delta X     New X
                                 (Linear)    (Quad)   (Total)
    R1        2.69245   0.00210   0.00000   0.00424   0.00426   2.69670
    R2        2.60342  -0.00959   0.00000  -0.01961  -0.01960   2.58382
    R3        2.04525   0.00089   0.00000   0.00248   0.00248   2.04773
    R4        2.60327  -0.00953   0.00000  -0.01946  -0.01945   2.58382
    R5        2.04512   0.00094   0.00000   0.00262   0.00262   2.04774
    R6        3.23619   0.00241   0.00000   0.00769   0.00767   3.24386
    R7        2.04250   0.00062   0.00000   0.00173   0.00173   2.04422
    R8        3.23595   0.00248   0.00000   0.00787   0.00785   3.24381
    R9        2.04263   0.00057   0.00000   0.00159   0.00159   2.04422
    A1        1.95585   0.00192   0.00000   0.00667   0.00669   1.96254
    A2        2.17462  -0.00095   0.00000  -0.00327  -0.00328   2.17134
    A3        2.15272  -0.00097   0.00000  -0.00340  -0.00341   2.14931
    A4        1.95588   0.00192   0.00000   0.00668   0.00670   1.96258
    A5        2.17450  -0.00094   0.00000  -0.00321  -0.00323   2.17127
    A6        2.15281  -0.00098   0.00000  -0.00346  -0.00348   2.14933
    A7        1.95533  -0.00208   0.00000  -0.00902  -0.00903   1.94630
    A8        2.22733   0.00125   0.00000   0.00581   0.00581   2.23314
    A9        2.10053   0.00083   0.00000   0.00322   0.00322   2.10374
   A10        1.60238   0.00030   0.00000   0.00470   0.00465   1.60702
   A11        1.95535  -0.00207   0.00000  -0.00901  -0.00902   1.94633
   A12        2.22730   0.00124   0.00000   0.00579   0.00579   2.23309
   A13        2.10053   0.00083   0.00000   0.00323   0.00323   2.10376
    D1       -0.00019   0.00001   0.00000   0.00038   0.00038   0.00020
    D2        3.14147   0.00000   0.00000   0.00011   0.00011   3.14158
    D3        3.14153   0.00000   0.00000   0.00023   0.00023  -3.14142
    D4        0.00000   0.00000   0.00000  -0.00005  -0.00005  -0.00004
    D5        0.00015  -0.00001   0.00000  -0.00024  -0.00024  -0.00009
    D6        3.14139   0.00000   0.00000   0.00013   0.00013   3.14152
    D7       -3.14157   0.00000   0.00000  -0.00009  -0.00008   3.14153
    D8       -0.00032   0.00001   0.00000   0.00028   0.00029  -0.00004
    D9        0.00014  -0.00001   0.00000  -0.00036  -0.00036  -0.00021
   D10       -3.14124  -0.00001   0.00000  -0.00045  -0.00045   3.14150
   D11       -3.14151   0.00000   0.00000  -0.00009  -0.00008   3.14159
   D12        0.00029   0.00000   0.00000  -0.00018  -0.00018   0.00011
   D13       -0.00005   0.00000   0.00000   0.00019   0.00019   0.00014
   D14        3.14135   0.00001   0.00000   0.00027   0.00027  -3.14156
   D15       -0.00006   0.00000   0.00000   0.00003   0.00003  -0.00003
   D16       -3.14133  -0.00001   0.00000  -0.00031  -0.00031   3.14155
         Item               Value     Threshold  Converged?
 Maximum Force            0.009595     0.000450     NO 
 RMS     Force            0.002438     0.000300     NO 
 Maximum Displacement     0.015918     0.001800     NO 
 RMS     Displacement     0.006730     0.001200     NO 
 Predicted change in Energy=-2.625196D-04
 GradGradGradGradGradGradGradGradGradGradGradGradGradGradGradGradGradGrad

                          Input orientation:                          
 ---------------------------------------------------------------------
 Center     Atomic      Atomic             Coordinates (Angstroms)
 Number     Number       Type             X           Y           Z
 ---------------------------------------------------------------------
      1          6           0       -0.473517   -0.093220   -0.975474
      2          6           0       -0.257610    0.804985   -2.063151
      3          6           0       -0.974336    0.460024   -3.175270
      4         16           0       -1.911348   -0.953027   -2.907074
      5          6           0       -1.348041   -1.095526   -1.291860
      6          1           0       -0.003340   -0.002027   -0.003450
      7          1           0        0.397846    1.667021   -2.024487
      8          1           0       -0.998741    0.962072   -4.133159
      9          1           0       -1.687712   -1.905802   -0.660776
 ---------------------------------------------------------------------
                    Distance matrix (angstroms):
                    1          2          3          4          5
     1  C    0.000000
     2  C    1.427035   0.000000
     3  C    2.322930   1.367298   0.000000
     4  S    2.556894   2.556885   1.716576   0.000000
     5  C    1.367300   2.322901   2.471159   1.716548   0.000000
     6  H    1.083611   2.226722   3.349144   3.602211   2.159620
     7  H    2.226690   1.083617   2.159636   3.602220   3.349109
     8  H    3.370531   2.204288   1.081757   2.450253   3.525436
     9  H    2.204259   3.370491   3.525439   2.450234   1.081753
                    6          7          8          9
     6  H    0.000000
     7  H    2.651653   0.000000
     8  H    4.356008   2.625625   0.000000
     9  H    2.625556   4.355953   4.555966   0.000000
 Stoichiometry    C4H4S
 Framework group  C1[X(C4H4S)]
 Deg. of freedom    21
 Full point group                 C1      NOp   1
 Largest Abelian subgroup         C1      NOp   1
 Largest concise Abelian subgroup C1      NOp   1
                         Standard orientation:                         
 ---------------------------------------------------------------------
 Center     Atomic      Atomic             Coordinates (Angstroms)
 Number     Number       Type             X           Y           Z
 ---------------------------------------------------------------------
      1          6           0       -1.267445   -0.713512   -0.000031
      2          6           0       -1.267424    0.713523    0.000077
      3          6           0       -0.003720    1.235592   -0.000062
      4         16           0        1.187881   -0.000014    0.000016
      5          6           0       -0.003734   -1.235567   -0.000001
      6          1           0       -2.161466   -1.325834   -0.000101
      7          1           0       -2.161471    1.325819    0.000062
      8          1           0        0.285420    2.277991   -0.000107
      9          1           0        0.285363   -2.277975   -0.000007
 ---------------------------------------------------------------------
 Rotational constants (GHZ):      8.0396152      5.4290809      3.2406791
 Standard basis: 6-31+G(d) (6D, 7F)
 There are   107 symmetry adapted cartesian basis functions of A   symmetry.
 There are   107 symmetry adapted basis functions of A   symmetry.
   107 basis functions,   200 primitive gaussians,   107 cartesian basis functions
    22 alpha electrons       22 beta electrons
       nuclear repulsion energy       202.8107268161 Hartrees.
 NAtoms=    9 NActive=    9 NUniq=    9 SFac= 1.00D+00 NAtFMM=   60 NAOKFM=F Big=F
 Integral buffers will be    131072 words long.
 Raffenetti 2 integral format.
 Two-electron integral symmetry is turned on.
 One-electron integrals computed using PRISM.
 NBasis=   107 RedAO= T EigKep=  2.80D-05  NBF=   107
 NBsUse=   107 1.00D-06 EigRej= -1.00D+00 NBFU=   107
 Initial guess from the checkpoint file:  "/srv/scratch/z5358697/gauss/Gau-820452.chk"
 B after Tr=     0.000000    0.000000    0.000000
         Rot=    1.000000    0.000000    0.000000    0.000055 Ang=  -0.01 deg.
 Keep R1 ints in memory in canonical form, NReq=17677915.
 Requested convergence on RMS density matrix=1.00D-08 within 128 cycles.
 Requested convergence on MAX density matrix=1.00D-06.
 Requested convergence on             energy=1.00D-06.
 No special actions if energy rises.
 SCF Done:  E(RM062X) =  -552.901731335     A.U. after   10 cycles
            NFock= 10  Conv=0.50D-08     -V/T= 2.0045
 Calling FoFJK, ICntrl=      2127 FMM=F ISym2X=0 I1Cent= 0 IOpClX= 0 NMat=1 NMatS=1 NMatT=0.
 ***** Axes restored to original set *****
 -------------------------------------------------------------------
 Center     Atomic                   Forces (Hartrees/Bohr)
 Number     Number              X              Y              Z
 -------------------------------------------------------------------
      1        6          -0.000387580   -0.001022292    0.000858298
      2        6           0.000007819    0.000719133   -0.001190965
      3        6           0.001541880    0.001325744    0.001297764
      4       16          -0.002706606   -0.002279998   -0.002431256
      5        6           0.001509152    0.001234191    0.001439525
      6        1           0.000285897    0.000367423    0.000022608
      7        1           0.000203678    0.000043309    0.000410638
      8        1          -0.000265150   -0.000361314    0.000000528
      9        1          -0.000189089   -0.000026196   -0.000407140
 -------------------------------------------------------------------
 Cartesian Forces:  Max     0.002706606 RMS     0.001135736

 GradGradGradGradGradGradGradGradGradGradGradGradGradGradGradGradGradGrad
 Berny optimization.
 Using GEDIIS/GDIIS optimizer.
 FormGI is forming the generalized inverse of G from B-inverse, IUseBI=4.
 Internal  Forces:  Max     0.001924904 RMS     0.000637473
 Search for a local minimum.
 Step number   2 out of a maximum of   48
 All quantities printed in internal units (Hartrees-Bohrs-Radians)
 Mixed Optimization -- En-DIIS/RFO-DIIS
 Update second derivatives using D2CorX and points    1    2
 DE= -2.64D-04 DEPred=-2.63D-04 R= 1.01D+00
 TightC=F SS=  1.41D+00  RLast= 3.64D-02 DXNew= 5.0454D-01 1.0931D-01
 Trust test= 1.01D+00 RLast= 3.64D-02 DXMaxT set to 3.00D-01
 ITU=  1  0
 Use linear search instead of GDIIS.
     Eigenvalues ---    0.01816   0.01921   0.02078   0.02122   0.02161
     Eigenvalues ---    0.02214   0.15640   0.16000   0.16000   0.16014
     Eigenvalues ---    0.22000   0.26063   0.27949   0.33170   0.35714
     Eigenvalues ---    0.35725   0.35888   0.35977   0.40400   0.46027
     Eigenvalues ---    0.52466
 RFO step:  Lambda=-5.85973105D-05 EMin= 1.81573851D-02
 Quartic linear search produced a step of  0.00158.
 Iteration  1 RMS(Cart)=  0.00215624 RMS(Int)=  0.00000452
 Iteration  2 RMS(Cart)=  0.00000549 RMS(Int)=  0.00000214
 Iteration  3 RMS(Cart)=  0.00000000 RMS(Int)=  0.00000214
 Variable       Old X    -DE/DX   Delta X   Delta X   Delta X     New X
                                 (Linear)    (Quad)   (Total)
    R1        2.69670   0.00032   0.00001   0.00117   0.00117   2.69788
    R2        2.58382  -0.00021  -0.00003  -0.00261  -0.00265   2.58118
    R3        2.04773   0.00018   0.00000   0.00076   0.00077   2.04850
    R4        2.58382  -0.00021  -0.00003  -0.00260  -0.00263   2.58119
    R5        2.04774   0.00017   0.00000   0.00077   0.00078   2.04851
    R6        3.24386   0.00192   0.00001   0.00648   0.00650   3.25036
    R7        2.04422  -0.00016   0.00000  -0.00026  -0.00026   2.04397
    R8        3.24381   0.00192   0.00001   0.00653   0.00654   3.25035
    R9        2.04422  -0.00016   0.00000  -0.00027  -0.00026   2.04395
    A1        1.96254  -0.00023   0.00001  -0.00068  -0.00067   1.96187
    A2        2.17134  -0.00033  -0.00001  -0.00242  -0.00243   2.16891
    A3        2.14931   0.00056  -0.00001   0.00310   0.00309   2.15240
    A4        1.96258  -0.00024   0.00001  -0.00071  -0.00070   1.96188
    A5        2.17127  -0.00032  -0.00001  -0.00237  -0.00237   2.16890
    A6        2.14933   0.00056  -0.00001   0.00308   0.00307   2.15240
    A7        1.94630   0.00106  -0.00001   0.00370   0.00369   1.94999
    A8        2.23314  -0.00010   0.00001   0.00096   0.00097   2.23412
    A9        2.10374  -0.00096   0.00001  -0.00467  -0.00466   2.09908
   A10        1.60702  -0.00165   0.00001  -0.00599  -0.00598   1.60105
   A11        1.94633   0.00106  -0.00001   0.00367   0.00366   1.94999
   A12        2.23309  -0.00010   0.00001   0.00100   0.00100   2.23410
   A13        2.10376  -0.00096   0.00001  -0.00467  -0.00466   2.09909
    D1        0.00020  -0.00001   0.00000  -0.00037  -0.00037  -0.00017
    D2        3.14158   0.00000   0.00000  -0.00002  -0.00002   3.14156
    D3       -3.14142  -0.00001   0.00000  -0.00027  -0.00027   3.14149
    D4       -0.00004   0.00000   0.00000   0.00007   0.00007   0.00003
    D5       -0.00009   0.00000   0.00000   0.00013   0.00013   0.00004
    D6        3.14152   0.00000   0.00000   0.00013   0.00013  -3.14153
    D7        3.14153   0.00000   0.00000   0.00004   0.00003   3.14157
    D8       -0.00004   0.00000   0.00000   0.00004   0.00004   0.00000
    D9       -0.00021   0.00001   0.00000   0.00044   0.00044   0.00022
   D10        3.14150   0.00000   0.00000   0.00017   0.00017  -3.14152
   D11        3.14159   0.00000   0.00000   0.00009   0.00009  -3.14150
   D12        0.00011   0.00000   0.00000  -0.00017  -0.00017  -0.00006
   D13        0.00014  -0.00001   0.00000  -0.00031  -0.00031  -0.00017
   D14       -3.14156   0.00000   0.00000  -0.00007  -0.00007   3.14155
   D15       -0.00003   0.00000   0.00000   0.00010   0.00010   0.00007
   D16        3.14155   0.00000   0.00000   0.00010   0.00009  -3.14154
         Item               Value     Threshold  Converged?
 Maximum Force            0.001925     0.000450     NO 
 RMS     Force            0.000637     0.000300     NO 
 Maximum Displacement     0.006156     0.001800     NO 
 RMS     Displacement     0.002158     0.001200     NO 
 Predicted change in Energy=-2.930581D-05
 GradGradGradGradGradGradGradGradGradGradGradGradGradGradGradGradGradGrad

                          Input orientation:                          
 ---------------------------------------------------------------------
 Center     Atomic      Atomic             Coordinates (Angstroms)
 Number     Number       Type             X           Y           Z
 ---------------------------------------------------------------------
      1          6           0       -0.473443   -0.093377   -0.975178
      2          6           0       -0.257588    0.805341   -2.063256
      3          6           0       -0.973758    0.459851   -3.173856
      4         16           0       -1.914606   -0.955625   -2.909876
      5          6           0       -1.347218   -1.094265   -1.292072
      6          1           0       -0.001752   -0.000062   -0.003636
      7          1           0        0.398710    1.667140   -2.022131
      8          1           0       -0.999269    0.960564   -4.132260
      9          1           0       -1.687875   -1.905065   -0.662434
 ---------------------------------------------------------------------
                    Distance matrix (angstroms):
                    1          2          3          4          5
     1  C    0.000000
     2  C    1.427656   0.000000
     3  C    2.321758   1.365905   0.000000
     4  S    2.561929   2.561928   1.720015   0.000000
     5  C    1.365900   2.321750   2.468980   1.720012   0.000000
     6  H    1.084017   2.226244   3.347628   3.608094   2.160469
     7  H    2.226248   1.084027   2.160482   3.608104   3.347627
     8  H    3.369636   2.203398   1.081620   2.450274   3.522791
     9  H    2.203377   3.369618   3.522788   2.450273   1.081613
                    6          7          8          9
     6  H    0.000000
     7  H    2.648444   0.000000
     8  H    4.354696   2.627972   0.000000
     9  H    2.627939   4.354683   4.552548   0.000000
 Stoichiometry    C4H4S
 Framework group  C1[X(C4H4S)]
 Deg. of freedom    21
 Full point group                 C1      NOp   1
 Largest Abelian subgroup         C1      NOp   1
 Largest concise Abelian subgroup C1      NOp   1
                         Standard orientation:                         
 ---------------------------------------------------------------------
 Center     Atomic      Atomic             Coordinates (Angstroms)
 Number     Number       Type             X           Y           Z
 ---------------------------------------------------------------------
      1          6           0       -1.269012   -0.713824    0.000026
      2          6           0       -1.269006    0.713832   -0.000067
      3          6           0       -0.006228    1.234493    0.000078
      4         16           0        1.191464   -0.000006   -0.000028
      5          6           0       -0.006241   -1.234487    0.000025
      6          1           0       -2.164846   -1.324214    0.000033
      7          1           0       -2.164845    1.324230   -0.000112
      8          1           0        0.284613    2.276276    0.000117
      9          1           0        0.284572   -2.276272    0.000030
 ---------------------------------------------------------------------
 Rotational constants (GHZ):      8.0496292      5.4060362      3.2340717
 Standard basis: 6-31+G(d) (6D, 7F)
 There are   107 symmetry adapted cartesian basis functions of A   symmetry.
 There are   107 symmetry adapted basis functions of A   symmetry.
   107 basis functions,   200 primitive gaussians,   107 cartesian basis functions
    22 alpha electrons       22 beta electrons
       nuclear repulsion energy       202.6456147622 Hartrees.
 NAtoms=    9 NActive=    9 NUniq=    9 SFac= 1.00D+00 NAtFMM=   60 NAOKFM=F Big=F
 Integral buffers will be    131072 words long.
 Raffenetti 2 integral format.
 Two-electron integral symmetry is turned on.
 One-electron integrals computed using PRISM.
 NBasis=   107 RedAO= T EigKep=  2.78D-05  NBF=   107
 NBsUse=   107 1.00D-06 EigRej= -1.00D+00 NBFU=   107
 Initial guess from the checkpoint file:  "/srv/scratch/z5358697/gauss/Gau-820452.chk"
 B after Tr=     0.000000    0.000000    0.000000
         Rot=    1.000000    0.000000    0.000000   -0.000001 Ang=   0.00 deg.
 Keep R1 ints in memory in canonical form, NReq=17677915.
 Requested convergence on RMS density matrix=1.00D-08 within 128 cycles.
 Requested convergence on MAX density matrix=1.00D-06.
 Requested convergence on             energy=1.00D-06.
 No special actions if energy rises.
 SCF Done:  E(RM062X) =  -552.901764795     A.U. after    9 cycles
            NFock=  9  Conv=0.91D-08     -V/T= 2.0046
 Calling FoFJK, ICntrl=      2127 FMM=F ISym2X=0 I1Cent= 0 IOpClX= 0 NMat=1 NMatS=1 NMatT=0.
 ***** Axes restored to original set *****
 -------------------------------------------------------------------
 Center     Atomic                   Forces (Hartrees/Bohr)
 Number     Number              X              Y              Z
 -------------------------------------------------------------------
      1        6           0.000080329   -0.000320729    0.000803373
      2        6           0.000349798    0.000678118   -0.000432439
      3        6           0.000224614    0.000477547   -0.000257930
      4       16          -0.000464254   -0.000406546   -0.000428819
      5        6           0.000074896   -0.000200518    0.000546649
      6        1           0.000001716    0.000085833   -0.000148660
      7        1          -0.000051707   -0.000131354    0.000105342
      8        1          -0.000113165   -0.000112373   -0.000065063
      9        1          -0.000102226   -0.000069977   -0.000122451
 -------------------------------------------------------------------
 Cartesian Forces:  Max     0.000803373 RMS     0.000327663

 GradGradGradGradGradGradGradGradGradGradGradGradGradGradGradGradGradGrad
 Berny optimization.
 Using GEDIIS/GDIIS optimizer.
 FormGI is forming the generalized inverse of G from B-inverse, IUseBI=4.
 Internal  Forces:  Max     0.000777580 RMS     0.000203586
 Search for a local minimum.
 Step number   3 out of a maximum of   48
 All quantities printed in internal units (Hartrees-Bohrs-Radians)
 Mixed Optimization -- En-DIIS/RFO-DIIS
 Swapping is turned off.
 Update second derivatives using D2CorX and points    1    2    3
 DE= -3.35D-05 DEPred=-2.93D-05 R= 1.14D+00
 TightC=F SS=  1.41D+00  RLast= 1.56D-02 DXNew= 5.0454D-01 4.6666D-02
 Trust test= 1.14D+00 RLast= 1.56D-02 DXMaxT set to 3.00D-01
 ITU=  1  1  0
     Eigenvalues ---    0.01817   0.01922   0.02079   0.02124   0.02162
     Eigenvalues ---    0.02215   0.13245   0.16000   0.16000   0.16023
     Eigenvalues ---    0.22000   0.24900   0.27558   0.33161   0.35722
     Eigenvalues ---    0.35848   0.35889   0.35998   0.42674   0.46025
     Eigenvalues ---    0.53776
 En-DIIS/RFO-DIIS IScMMF=        0 using points:     3    2
 RFO step:  Lambda=-2.97093358D-06.
 DidBck=F Rises=F RFO-DIIS coefs:    1.16774   -0.16774
 Iteration  1 RMS(Cart)=  0.00088439 RMS(Int)=  0.00000072
 Iteration  2 RMS(Cart)=  0.00000061 RMS(Int)=  0.00000040
 Variable       Old X    -DE/DX   Delta X   Delta X   Delta X     New X
                                 (Linear)    (Quad)   (Total)
    R1        2.69788   0.00078   0.00020   0.00222   0.00242   2.70030
    R2        2.58118   0.00033  -0.00044   0.00052   0.00007   2.58125
    R3        2.04850  -0.00013   0.00013  -0.00041  -0.00028   2.04821
    R4        2.58119   0.00032  -0.00044   0.00051   0.00007   2.58125
    R5        2.04851  -0.00013   0.00013  -0.00043  -0.00030   2.04821
    R6        3.25036   0.00052   0.00109   0.00132   0.00241   3.25277
    R7        2.04397   0.00001  -0.00004   0.00009   0.00005   2.04402
    R8        3.25035   0.00052   0.00110   0.00133   0.00242   3.25277
    R9        2.04395   0.00001  -0.00004   0.00011   0.00006   2.04402
    A1        1.96187  -0.00002  -0.00011   0.00025   0.00013   1.96200
    A2        2.16891  -0.00011  -0.00041  -0.00075  -0.00116   2.16775
    A3        2.15240   0.00013   0.00052   0.00051   0.00103   2.15343
    A4        1.96188  -0.00002  -0.00012   0.00024   0.00012   1.96200
    A5        2.16890  -0.00011  -0.00040  -0.00075  -0.00114   2.16776
    A6        2.15240   0.00013   0.00052   0.00051   0.00102   2.15343
    A7        1.94999  -0.00001   0.00062  -0.00065  -0.00004   1.94995
    A8        2.23412   0.00018   0.00016   0.00139   0.00155   2.23567
    A9        2.09908  -0.00017  -0.00078  -0.00074  -0.00152   2.09757
   A10        1.60105   0.00008  -0.00100   0.00083  -0.00017   1.60088
   A11        1.94999  -0.00002   0.00061  -0.00066  -0.00005   1.94995
   A12        2.23410   0.00019   0.00017   0.00140   0.00157   2.23567
   A13        2.09909  -0.00017  -0.00078  -0.00074  -0.00152   2.09757
    D1       -0.00017   0.00001  -0.00006   0.00045   0.00039   0.00022
    D2        3.14156   0.00000   0.00000   0.00007   0.00006  -3.14156
    D3        3.14149   0.00000  -0.00005   0.00030   0.00026  -3.14144
    D4        0.00003   0.00000   0.00001  -0.00008  -0.00007  -0.00004
    D5        0.00004   0.00000   0.00002  -0.00004  -0.00002   0.00002
    D6       -3.14153   0.00000   0.00002  -0.00014  -0.00012   3.14154
    D7        3.14157   0.00000   0.00001   0.00011   0.00011  -3.14150
    D8        0.00000   0.00000   0.00001   0.00001   0.00001   0.00002
    D9        0.00022  -0.00001   0.00007  -0.00066  -0.00058  -0.00036
   D10       -3.14152   0.00000   0.00003  -0.00024  -0.00021   3.14146
   D11       -3.14150   0.00000   0.00002  -0.00028  -0.00026   3.14142
   D12       -0.00006   0.00000  -0.00003   0.00014   0.00011   0.00006
   D13       -0.00017   0.00001  -0.00005   0.00054   0.00049   0.00031
   D14        3.14155   0.00000  -0.00001   0.00016   0.00015  -3.14148
   D15        0.00007   0.00000   0.00002  -0.00028  -0.00026  -0.00019
   D16       -3.14154   0.00000   0.00002  -0.00019  -0.00017   3.14147
         Item               Value     Threshold  Converged?
 Maximum Force            0.000778     0.000450     NO 
 RMS     Force            0.000204     0.000300     YES
 Maximum Displacement     0.001708     0.001800     YES
 RMS     Displacement     0.000884     0.001200     YES
 Predicted change in Energy=-3.054910D-06
 GradGradGradGradGradGradGradGradGradGradGradGradGradGradGradGradGradGrad

                          Input orientation:                          
 ---------------------------------------------------------------------
 Center     Atomic      Atomic             Coordinates (Angstroms)
 Number     Number       Type             X           Y           Z
 ---------------------------------------------------------------------
      1          6           0       -0.473403   -0.093581   -0.974501
      2          6           0       -0.257188    0.805822   -2.063623
      3          6           0       -0.973526    0.460614   -3.174246
      4         16           0       -1.914818   -0.956133   -2.910340
      5          6           0       -1.347143   -1.094598   -1.291258
      6          1           0       -0.001229    0.000787   -0.003464
      7          1           0        0.399338    1.667189   -2.021344
      8          1           0       -1.000118    0.960343   -4.133164
      9          1           0       -1.688712   -1.905944   -0.662761
 ---------------------------------------------------------------------
                    Distance matrix (angstroms):
                    1          2          3          4          5
     1  C    0.000000
     2  C    1.428936   0.000000
     3  C    2.322957   1.365940   0.000000
     4  S    2.563034   2.563035   1.721293   0.000000
     5  C    1.365940   2.322960   2.470611   1.721294   0.000000
     6  H    1.083867   2.226623   3.348232   3.609356   2.160964
     7  H    2.226627   1.083867   2.160963   3.609356   3.348237
     8  H    3.371251   2.204274   1.081647   2.450481   3.524151
     9  H    2.204273   3.371253   3.524151   2.450485   1.081647
                    6          7          8          9
     6  H    0.000000
     7  H    2.647487   0.000000
     8  H    4.355795   2.630188   0.000000
     9  H    2.630189   4.355799   4.553401   0.000000
 Stoichiometry    C4H4S
 Framework group  C1[X(C4H4S)]
 Deg. of freedom    21
 Full point group                 C1      NOp   1
 Largest Abelian subgroup         C1      NOp   1
 Largest concise Abelian subgroup C1      NOp   1
                         Standard orientation:                         
 ---------------------------------------------------------------------
 Center     Atomic      Atomic             Coordinates (Angstroms)
 Number     Number       Type             X           Y           Z
 ---------------------------------------------------------------------
      1          6           0       -1.269391   -0.714469   -0.000020
      2          6           0       -1.269394    0.714468    0.000102
      3          6           0       -0.006650    1.235304   -0.000140
      4         16           0        1.192047    0.000001    0.000058
      5          6           0       -0.006648   -1.235306   -0.000070
      6          1           0       -2.165803   -1.323742   -0.000005
      7          1           0       -2.165803    1.323745    0.000187
      8          1           0        0.285680    2.276699   -0.000231
      9          1           0        0.285680   -2.276702   -0.000115
 ---------------------------------------------------------------------
 Rotational constants (GHZ):      8.0404558      5.4015574      3.2309881
 Standard basis: 6-31+G(d) (6D, 7F)
 There are   107 symmetry adapted cartesian basis functions of A   symmetry.
 There are   107 symmetry adapted basis functions of A   symmetry.
   107 basis functions,   200 primitive gaussians,   107 cartesian basis functions
    22 alpha electrons       22 beta electrons
       nuclear repulsion energy       202.5520932844 Hartrees.
 NAtoms=    9 NActive=    9 NUniq=    9 SFac= 1.00D+00 NAtFMM=   60 NAOKFM=F Big=F
 Integral buffers will be    131072 words long.
 Raffenetti 2 integral format.
 Two-electron integral symmetry is turned on.
 One-electron integrals computed using PRISM.
 NBasis=   107 RedAO= T EigKep=  2.79D-05  NBF=   107
 NBsUse=   107 1.00D-06 EigRej= -1.00D+00 NBFU=   107
 Initial guess from the checkpoint file:  "/srv/scratch/z5358697/gauss/Gau-820452.chk"
 B after Tr=     0.000000    0.000000    0.000000
         Rot=    1.000000    0.000000    0.000000   -0.000003 Ang=   0.00 deg.
 Keep R1 ints in memory in canonical form, NReq=17677915.
 Requested convergence on RMS density matrix=1.00D-08 within 128 cycles.
 Requested convergence on MAX density matrix=1.00D-06.
 Requested convergence on             energy=1.00D-06.
 No special actions if energy rises.
 SCF Done:  E(RM062X) =  -552.901767807     A.U. after    8 cycles
            NFock=  8  Conv=0.95D-08     -V/T= 2.0046
 Calling FoFJK, ICntrl=      2127 FMM=F ISym2X=0 I1Cent= 0 IOpClX= 0 NMat=1 NMatS=1 NMatT=0.
 ***** Axes restored to original set *****
 -------------------------------------------------------------------
 Center     Atomic                   Forces (Hartrees/Bohr)
 Number     Number              X              Y              Z
 -------------------------------------------------------------------
      1        6           0.000027750    0.000015071    0.000000144
      2        6          -0.000008061    0.000020292    0.000032562
      3        6           0.000004231   -0.000056558    0.000020822
      4       16           0.000018261    0.000044045    0.000040802
      5        6           0.000004451    0.000019354   -0.000051087
      6        1           0.000006237    0.000027403   -0.000031570
      7        1          -0.000008577   -0.000024789    0.000034165
      8        1          -0.000024764   -0.000039720   -0.000003430
      9        1          -0.000019526   -0.000005097   -0.000042407
 -------------------------------------------------------------------
 Cartesian Forces:  Max     0.000056558 RMS     0.000028006

 GradGradGradGradGradGradGradGradGradGradGradGradGradGradGradGradGradGrad
 Berny optimization.
 Using GEDIIS/GDIIS optimizer.
 FormGI is forming the generalized inverse of G from B-inverse, IUseBI=4.
 Internal  Forces:  Max     0.000069748 RMS     0.000029455
 Search for a local minimum.
 Step number   4 out of a maximum of   48
 All quantities printed in internal units (Hartrees-Bohrs-Radians)
 Mixed Optimization -- En-DIIS/RFO-DIIS
 Swapping is turned off.
 Update second derivatives using D2CorX and points    1    2    3    4
 DE= -3.01D-06 DEPred=-3.05D-06 R= 9.86D-01
 TightC=F SS=  1.41D+00  RLast= 5.76D-03 DXNew= 5.0454D-01 1.7270D-02
 Trust test= 9.86D-01 RLast= 5.76D-03 DXMaxT set to 3.00D-01
 ITU=  1  1  1  0
     Eigenvalues ---    0.01824   0.01922   0.02084   0.02127   0.02164
     Eigenvalues ---    0.02216   0.11648   0.16000   0.16000   0.16024
     Eigenvalues ---    0.22000   0.27307   0.28317   0.33163   0.35721
     Eigenvalues ---    0.35748   0.35888   0.36005   0.43965   0.46029
     Eigenvalues ---    0.52080
 En-DIIS/RFO-DIIS IScMMF=        0 using points:     4    3    2
 RFO step:  Lambda=-7.04320923D-08.
 DidBck=F Rises=F RFO-DIIS coefs:    0.96837    0.04558   -0.01395
 Iteration  1 RMS(Cart)=  0.00030030 RMS(Int)=  0.00000009
 Iteration  2 RMS(Cart)=  0.00000007 RMS(Int)=  0.00000006
 Variable       Old X    -DE/DX   Delta X   Delta X   Delta X     New X
                                 (Linear)    (Quad)   (Total)
    R1        2.70030  -0.00006  -0.00006  -0.00003  -0.00009   2.70021
    R2        2.58125   0.00002  -0.00004   0.00008   0.00004   2.58129
    R3        2.04821  -0.00002   0.00002  -0.00009  -0.00007   2.04814
    R4        2.58125   0.00002  -0.00004   0.00008   0.00004   2.58129
    R5        2.04821  -0.00002   0.00002  -0.00009  -0.00007   2.04814
    R6        3.25277  -0.00007   0.00001  -0.00018  -0.00016   3.25261
    R7        2.04402  -0.00001  -0.00001  -0.00003  -0.00004   2.04398
    R8        3.25277  -0.00007   0.00001  -0.00018  -0.00016   3.25261
    R9        2.04402  -0.00001  -0.00001  -0.00003  -0.00003   2.04398
    A1        1.96200  -0.00002  -0.00001  -0.00004  -0.00005   1.96195
    A2        2.16775  -0.00003   0.00000  -0.00021  -0.00020   2.16755
    A3        2.15343   0.00004   0.00001   0.00024   0.00025   2.15368
    A4        1.96200  -0.00002  -0.00001  -0.00003  -0.00005   1.96195
    A5        2.16776  -0.00003   0.00000  -0.00021  -0.00021   2.16755
    A6        2.15343   0.00004   0.00001   0.00025   0.00026   2.15368
    A7        1.94995   0.00002   0.00005   0.00001   0.00006   1.95001
    A8        2.23567   0.00003  -0.00004   0.00030   0.00027   2.23593
    A9        2.09757  -0.00006  -0.00002  -0.00031  -0.00033   2.09724
   A10        1.60088  -0.00001  -0.00008   0.00005  -0.00003   1.60085
   A11        1.94995   0.00002   0.00005   0.00001   0.00006   1.95001
   A12        2.23567   0.00003  -0.00004   0.00030   0.00027   2.23593
   A13        2.09757  -0.00006  -0.00002  -0.00031  -0.00033   2.09724
    D1        0.00022  -0.00001  -0.00002  -0.00041  -0.00043  -0.00021
    D2       -3.14156   0.00000   0.00000  -0.00001  -0.00001  -3.14157
    D3       -3.14144  -0.00001  -0.00001  -0.00033  -0.00034   3.14140
    D4       -0.00004   0.00000   0.00000   0.00007   0.00008   0.00004
    D5        0.00002   0.00000   0.00000  -0.00016  -0.00016  -0.00014
    D6        3.14154   0.00000   0.00001   0.00008   0.00009  -3.14156
    D7       -3.14150  -0.00001   0.00000  -0.00024  -0.00024   3.14144
    D8        0.00002   0.00000   0.00000   0.00000   0.00000   0.00002
    D9       -0.00036   0.00002   0.00002   0.00080   0.00082   0.00046
   D10        3.14146   0.00001   0.00001   0.00026   0.00027  -3.14145
   D11        3.14142   0.00001   0.00001   0.00039   0.00040  -3.14136
   D12        0.00006   0.00000  -0.00001  -0.00014  -0.00014  -0.00009
   D13        0.00031  -0.00002  -0.00002  -0.00075  -0.00077  -0.00046
   D14       -3.14148  -0.00001  -0.00001  -0.00027  -0.00027   3.14143
   D15       -0.00019   0.00001   0.00001   0.00051   0.00052   0.00034
   D16        3.14147   0.00001   0.00001   0.00029   0.00030  -3.14141
         Item               Value     Threshold  Converged?
 Maximum Force            0.000070     0.000450     YES
 RMS     Force            0.000029     0.000300     YES
 Maximum Displacement     0.000900     0.001800     YES
 RMS     Displacement     0.000300     0.001200     YES
 Predicted change in Energy=-9.061943D-08
 Optimization completed.
    -- Stationary point found.
                           ----------------------------
                           !   Optimized Parameters   !
                           ! (Angstroms and Degrees)  !
 --------------------------                            --------------------------
 ! Name  Definition              Value          Derivative Info.                !
 --------------------------------------------------------------------------------
 ! R1    R(1,2)                  1.4289         -DE/DX =   -0.0001              !
 ! R2    R(1,5)                  1.3659         -DE/DX =    0.0                 !
 ! R3    R(1,6)                  1.0839         -DE/DX =    0.0                 !
 ! R4    R(2,3)                  1.3659         -DE/DX =    0.0                 !
 ! R5    R(2,7)                  1.0839         -DE/DX =    0.0                 !
 ! R6    R(3,4)                  1.7213         -DE/DX =   -0.0001              !
 ! R7    R(3,8)                  1.0816         -DE/DX =    0.0                 !
 ! R8    R(4,5)                  1.7213         -DE/DX =   -0.0001              !
 ! R9    R(5,9)                  1.0816         -DE/DX =    0.0                 !
 ! A1    A(2,1,5)              112.4145         -DE/DX =    0.0                 !
 ! A2    A(2,1,6)              124.2031         -DE/DX =    0.0                 !
 ! A3    A(5,1,6)              123.3823         -DE/DX =    0.0                 !
 ! A4    A(1,2,3)              112.4143         -DE/DX =    0.0                 !
 ! A5    A(1,2,7)              124.2035         -DE/DX =    0.0                 !
 ! A6    A(3,2,7)              123.3822         -DE/DX =    0.0                 !
 ! A7    A(2,3,4)              111.7239         -DE/DX =    0.0                 !
 ! A8    A(2,3,8)              128.0944         -DE/DX =    0.0                 !
 ! A9    A(4,3,8)              120.1817         -DE/DX =   -0.0001              !
 ! A10   A(3,4,5)               91.7234         -DE/DX =    0.0                 !
 ! A11   A(1,5,4)              111.7238         -DE/DX =    0.0                 !
 ! A12   A(1,5,9)              128.0943         -DE/DX =    0.0                 !
 ! A13   A(4,5,9)              120.1819         -DE/DX =   -0.0001              !
 ! D1    D(5,1,2,3)              0.0127         -DE/DX =    0.0                 !
 ! D2    D(5,1,2,7)           -179.9982         -DE/DX =    0.0                 !
 ! D3    D(6,1,2,3)            180.0087         -DE/DX =    0.0                 !
 ! D4    D(6,1,2,7)             -0.0022         -DE/DX =    0.0                 !
 ! D5    D(2,1,5,4)              0.001          -DE/DX =    0.0                 !
 ! D6    D(2,1,5,9)           -180.0031         -DE/DX =    0.0                 !
 ! D7    D(6,1,5,4)            180.005          -DE/DX =    0.0                 !
 ! D8    D(6,1,5,9)              0.001          -DE/DX =    0.0                 !
 ! D9    D(1,2,3,4)             -0.0206         -DE/DX =    0.0                 !
 ! D10   D(1,2,3,8)           -180.0076         -DE/DX =    0.0                 !
 ! D11   D(7,2,3,4)           -180.0098         -DE/DX =    0.0                 !
 ! D12   D(7,2,3,8)              0.0032         -DE/DX =    0.0                 !
 ! D13   D(2,3,4,5)              0.018          -DE/DX =    0.0                 !
 ! D14   D(8,3,4,5)            180.0062         -DE/DX =    0.0                 !
 ! D15   D(3,4,5,1)             -0.0107         -DE/DX =    0.0                 !
 ! D16   D(3,4,5,9)           -180.007          -DE/DX =    0.0                 !
 --------------------------------------------------------------------------------
 GradGradGradGradGradGradGradGradGradGradGradGradGradGradGradGradGradGrad

                          Input orientation:                          
 ---------------------------------------------------------------------
 Center     Atomic      Atomic             Coordinates (Angstroms)
 Number     Number       Type             X           Y           Z
 ---------------------------------------------------------------------
      1          6           0       -0.473403   -0.093581   -0.974501
      2          6           0       -0.257188    0.805822   -2.063623
      3          6           0       -0.973526    0.460614   -3.174246
      4         16           0       -1.914818   -0.956133   -2.910340
      5          6           0       -1.347143   -1.094598   -1.291258
      6          1           0       -0.001229    0.000787   -0.003464
      7          1           0        0.399338    1.667189   -2.021344
      8          1           0       -1.000118    0.960343   -4.133164
      9          1           0       -1.688712   -1.905944   -0.662761
 ---------------------------------------------------------------------
                    Distance matrix (angstroms):
                    1          2          3          4          5
     1  C    0.000000
     2  C    1.428936   0.000000
     3  C    2.322957   1.365940   0.000000
     4  S    2.563034   2.563035   1.721293   0.000000
     5  C    1.365940   2.322960   2.470611   1.721294   0.000000
     6  H    1.083867   2.226623   3.348232   3.609356   2.160964
     7  H    2.226627   1.083867   2.160963   3.609356   3.348237
     8  H    3.371251   2.204274   1.081647   2.450481   3.524151
     9  H    2.204273   3.371253   3.524151   2.450485   1.081647
                    6          7          8          9
     6  H    0.000000
     7  H    2.647487   0.000000
     8  H    4.355795   2.630188   0.000000
     9  H    2.630189   4.355799   4.553401   0.000000
 Stoichiometry    C4H4S
 Framework group  C1[X(C4H4S)]
 Deg. of freedom    21
 Full point group                 C1      NOp   1
 Largest Abelian subgroup         C1      NOp   1
 Largest concise Abelian subgroup C1      NOp   1
                         Standard orientation:                         
 ---------------------------------------------------------------------
 Center     Atomic      Atomic             Coordinates (Angstroms)
 Number     Number       Type             X           Y           Z
 ---------------------------------------------------------------------
      1          6           0       -1.269391   -0.714469   -0.000020
      2          6           0       -1.269394    0.714468    0.000102
      3          6           0       -0.006650    1.235304   -0.000140
      4         16           0        1.192047    0.000001    0.000058
      5          6           0       -0.006648   -1.235306   -0.000070
      6          1           0       -2.165803   -1.323742   -0.000005
      7          1           0       -2.165803    1.323745    0.000187
      8          1           0        0.285680    2.276699   -0.000231
      9          1           0        0.285680   -2.276702   -0.000115
 ---------------------------------------------------------------------
 Rotational constants (GHZ):      8.0404558      5.4015574      3.2309881

 **********************************************************************

            Population analysis using the SCF density.

 **********************************************************************

 Orbital symmetries:
       Occupied  (A) (A) (A) (A) (A) (A) (A) (A) (A) (A) (A) (A)
                 (A) (A) (A) (A) (A) (A) (A) (A) (A) (A)
       Virtual   (A) (A) (A) (A) (A) (A) (A) (A) (A) (A) (A) (A)
                 (A) (A) (A) (A) (A) (A) (A) (A) (A) (A) (A) (A)
                 (A) (A) (A) (A) (A) (A) (A) (A) (A) (A) (A) (A)
                 (A) (A) (A) (A) (A) (A) (A) (A) (A) (A) (A) (A)
                 (A) (A) (A) (A) (A) (A) (A) (A) (A) (A) (A) (A)
                 (A) (A) (A) (A) (A) (A) (A) (A) (A) (A) (A) (A)
                 (A) (A) (A) (A) (A) (A) (A) (A) (A) (A) (A) (A)
                 (A)
 The electronic state is 1-A.
 Alpha  occ. eigenvalues --  -89.95521 -10.58035 -10.58033 -10.55853 -10.55791
 Alpha  occ. eigenvalues --   -8.30053  -6.22052  -6.21825  -6.21625  -0.98493
 Alpha  occ. eigenvalues --   -0.82747  -0.82002  -0.64439  -0.63188  -0.59181
 Alpha  occ. eigenvalues --   -0.47970  -0.45595  -0.45091  -0.44830  -0.40430
 Alpha  occ. eigenvalues --   -0.30577  -0.29372
 Alpha virt. eigenvalues --    0.01423   0.02636   0.02648   0.03904   0.04515
 Alpha virt. eigenvalues --    0.05310   0.07043   0.07569   0.08182   0.08948
 Alpha virt. eigenvalues --    0.09993   0.10446   0.11043   0.11623   0.14096
 Alpha virt. eigenvalues --    0.15078   0.15684   0.16944   0.17462   0.18103
 Alpha virt. eigenvalues --    0.19558   0.21033   0.22443   0.22700   0.22722
 Alpha virt. eigenvalues --    0.29473   0.31394   0.31594   0.33603   0.40765
 Alpha virt. eigenvalues --    0.51343   0.52325   0.53394   0.57157   0.59906
 Alpha virt. eigenvalues --    0.59915   0.70004   0.70226   0.71068   0.76751
 Alpha virt. eigenvalues --    0.77538   0.77936   0.80694   0.87114   0.88322
 Alpha virt. eigenvalues --    0.92389   0.95194   0.96744   0.98962   1.02855
 Alpha virt. eigenvalues --    1.04016   1.07714   1.07822   1.09148   1.14526
 Alpha virt. eigenvalues --    1.19114   1.19158   1.26278   1.38397   1.40940
 Alpha virt. eigenvalues --    1.47169   1.50787   1.54661   1.76629   1.88887
 Alpha virt. eigenvalues --    1.89458   1.93214   2.02811   2.08194   2.24428
 Alpha virt. eigenvalues --    2.27582   2.28597   2.30677   2.30908   2.48052
 Alpha virt. eigenvalues --    2.53074   2.65898   2.68477   2.90671   3.02303
 Alpha virt. eigenvalues --    4.01186   4.22388   4.26460   4.37302   4.49441
          Condensed to atoms (all electrons):
               1          2          3          4          5          6
     1  C    4.904739   0.555356  -0.040798  -0.077896   0.524961   0.307467
     2  C    0.555356   4.904739   0.524959  -0.077896  -0.040798  -0.010743
     3  C   -0.040798   0.524959   5.350241   0.345269  -0.175194   0.005295
     4  S   -0.077896  -0.077896   0.345269  15.395491   0.345268   0.001970
     5  C    0.524961  -0.040798  -0.175194   0.345268   5.350237   0.001873
     6  H    0.307467  -0.010743   0.005295   0.001970   0.001873   0.482145
     7  H   -0.010742   0.307467   0.001873   0.001970   0.005294  -0.002219
     8  H   -0.008281   0.020648   0.320435  -0.023847   0.010665  -0.000076
     9  H    0.020648  -0.008280   0.010665  -0.023847   0.320436  -0.002442
               7          8          9
     1  C   -0.010742  -0.008281   0.020648
     2  C    0.307467   0.020648  -0.008280
     3  C    0.001873   0.320435   0.010665
     4  S    0.001970  -0.023847  -0.023847
     5  C    0.005294   0.010665   0.320436
     6  H   -0.002219  -0.000076  -0.002442
     7  H    0.482144  -0.002442  -0.000076
     8  H   -0.002442   0.438235  -0.000046
     9  H   -0.000076  -0.000046   0.438235
 Mulliken charges:
               1
     1  C   -0.175454
     2  C   -0.175452
     3  C   -0.342744
     4  S    0.113517
     5  C   -0.342743
     6  H    0.216729
     7  H    0.216730
     8  H    0.244709
     9  H    0.244709
 Sum of Mulliken charges =   0.00000
 Mulliken charges with hydrogens summed into heavy atoms:
               1
     1  C    0.041275
     2  C    0.041277
     3  C   -0.098035
     4  S    0.113517
     5  C   -0.098034
 Electronic spatial extent (au):  <R**2>=            401.0011
 Charge=              0.0000 electrons
 Dipole moment (field-independent basis, Debye):
    X=             -0.5095    Y=              0.0000    Z=              0.0001  Tot=              0.5095
 Quadrupole moment (field-independent basis, Debye-Ang):
   XX=            -34.8886   YY=            -31.5979   ZZ=            -40.9422
   XY=              0.0000   XZ=             -0.0001   YZ=             -0.0001
 Traceless Quadrupole moment (field-independent basis, Debye-Ang):
   XX=              0.9210   YY=              4.2117   ZZ=             -5.1327
   XY=              0.0000   XZ=             -0.0001   YZ=             -0.0001
 Octapole moment (field-independent basis, Debye-Ang**2):
  XXX=             -5.5747  YYY=              0.0000  ZZZ=              0.0006  XYY=              2.2110
  XXY=              0.0000  XXZ=              0.0018  XZZ=              2.3693  YZZ=              0.0000
  YYZ=             -0.0013  XYZ=             -0.0008
 Hexadecapole moment (field-independent basis, Debye-Ang**3):
 XXXX=           -279.6383 YYYY=           -198.0440 ZZZZ=            -53.3606 XXXY=             -0.0001
 XXXZ=             -0.0005 YYYX=              0.0000 YYYZ=             -0.0010 ZZZX=              0.0002
 ZZZY=             -0.0001 XXYY=            -77.7986 XXZZ=            -63.3712 YYZZ=            -53.3766
 XXYZ=              0.0008 YYXZ=             -0.0006 ZZXY=              0.0000
 N-N= 2.025520932844D+02 E-N=-1.709211402121D+03  KE= 5.503859178815D+02
 1\1\GINC-KATANA1\FOpt\RM062X\6-31+G(d)\C4H4S1\Z5358697\14-Mar-2025\0\\
 #m062X/6-31+G(d) OPT Freq=noraman\\thiophene\\0,1\C,-0.4734033631,-0.0
 935808307,-0.9745013243\C,-0.2571884302,0.805821656,-2.0636225217\C,-0
 .9735261276,0.4606140795,-3.1742456302\S,-1.9148184233,-0.9561326785,-
 2.9103398199\C,-1.3471432913,-1.0945977598,-1.2912578073\H,-0.00122887
 63,0.0007872908,-0.0034639248\H,0.3993381929,1.6671891214,-2.021344056
 5\H,-1.0001179763,0.9603433675,-4.133163776\H,-1.6887117048,-1.9059442
 462,-0.6627611394\\Version=ES64L-G09RevD.01\State=1-A\HF=-552.9017678\
 RMSD=9.489e-09\RMSF=2.801e-05\Dipole=0.1262179,0.1068443,0.1132876\Qua
 drupole=-1.8733729,0.2159127,1.6574602,2.1719052,0.8007046,-1.9768608\
 PG=C01 [X(C4H4S1)]\\@


 ALL MEN WHO EXPLORE
 DEPLORE
 THAT FRUSTRATING HURDLE
 THE GIRDLE.

         -- COLIN FLETCHER
 Job cpu time:       0 days  0 hours  0 minutes 48.1 seconds.
 File lengths (MBytes):  RWF=    132 Int=      0 D2E=      0 Chk=      3 Scr=      2
 Normal termination of Gaussian 09 at Fri Mar 14 16:00:55 2025.
 Link1:  Proceeding to internal job step number  2.
 ---------------------------------------------------------------------
 #N Geom=AllCheck Guess=TCheck SCRF=Check GenChk RM062X/6-31+G(d) Freq
 ---------------------------------------------------------------------
 1/10=4,29=7,30=1,38=1,40=1/1,3;
 2/12=2,40=1/2;
 3/5=1,6=6,7=11,11=2,14=-4,16=1,25=1,30=1,70=2,71=2,74=-55,116=1,140=1/1,2,3;
 4/5=101/1;
 5/5=2,98=1/2;
 8/6=4,10=90,11=11/1;
 11/6=1,8=1,9=11,15=111,16=1/1,2,10;
 10/6=1/2;
 6/7=2,8=2,9=2,10=2,18=1,28=1/1;
 7/8=1,10=1,25=1/1,2,3,16;
 1/10=4,30=1/3;
 99//99;
 Structure from the checkpoint file:  "/srv/scratch/z5358697/gauss/Gau-820452.chk"
 ---------
 thiophene
 ---------
 Charge =  0 Multiplicity = 1
 Redundant internal coordinates found in file.
 C,0,-0.4734033631,-0.0935808307,-0.9745013243
 C,0,-0.2571884302,0.805821656,-2.0636225217
 C,0,-0.9735261276,0.4606140795,-3.1742456302
 S,0,-1.9148184233,-0.9561326785,-2.9103398199
 C,0,-1.3471432913,-1.0945977598,-1.2912578073
 H,0,-0.0012288763,0.0007872908,-0.0034639248
 H,0,0.3993381929,1.6671891214,-2.0213440565
 H,0,-1.0001179763,0.9603433675,-4.133163776
 H,0,-1.6887117048,-1.9059442462,-0.6627611394
 Recover connectivity data from disk.

 GradGradGradGradGradGradGradGradGradGradGradGradGradGradGradGradGradGrad
 Berny optimization.
 Initialization pass.
                           ----------------------------
                           !    Initial Parameters    !
                           ! (Angstroms and Degrees)  !
 --------------------------                            --------------------------
 ! Name  Definition              Value          Derivative Info.                !
 --------------------------------------------------------------------------------
 ! R1    R(1,2)                  1.4289         calculate D2E/DX2 analytically  !
 ! R2    R(1,5)                  1.3659         calculate D2E/DX2 analytically  !
 ! R3    R(1,6)                  1.0839         calculate D2E/DX2 analytically  !
 ! R4    R(2,3)                  1.3659         calculate D2E/DX2 analytically  !
 ! R5    R(2,7)                  1.0839         calculate D2E/DX2 analytically  !
 ! R6    R(3,4)                  1.7213         calculate D2E/DX2 analytically  !
 ! R7    R(3,8)                  1.0816         calculate D2E/DX2 analytically  !
 ! R8    R(4,5)                  1.7213         calculate D2E/DX2 analytically  !
 ! R9    R(5,9)                  1.0816         calculate D2E/DX2 analytically  !
 ! A1    A(2,1,5)              112.4145         calculate D2E/DX2 analytically  !
 ! A2    A(2,1,6)              124.2031         calculate D2E/DX2 analytically  !
 ! A3    A(5,1,6)              123.3823         calculate D2E/DX2 analytically  !
 ! A4    A(1,2,3)              112.4143         calculate D2E/DX2 analytically  !
 ! A5    A(1,2,7)              124.2035         calculate D2E/DX2 analytically  !
 ! A6    A(3,2,7)              123.3822         calculate D2E/DX2 analytically  !
 ! A7    A(2,3,4)              111.7239         calculate D2E/DX2 analytically  !
 ! A8    A(2,3,8)              128.0944         calculate D2E/DX2 analytically  !
 ! A9    A(4,3,8)              120.1817         calculate D2E/DX2 analytically  !
 ! A10   A(3,4,5)               91.7234         calculate D2E/DX2 analytically  !
 ! A11   A(1,5,4)              111.7238         calculate D2E/DX2 analytically  !
 ! A12   A(1,5,9)              128.0943         calculate D2E/DX2 analytically  !
 ! A13   A(4,5,9)              120.1819         calculate D2E/DX2 analytically  !
 ! D1    D(5,1,2,3)              0.0127         calculate D2E/DX2 analytically  !
 ! D2    D(5,1,2,7)           -179.9982         calculate D2E/DX2 analytically  !
 ! D3    D(6,1,2,3)           -179.9913         calculate D2E/DX2 analytically  !
 ! D4    D(6,1,2,7)             -0.0022         calculate D2E/DX2 analytically  !
 ! D5    D(2,1,5,4)              0.001          calculate D2E/DX2 analytically  !
 ! D6    D(2,1,5,9)            179.9969         calculate D2E/DX2 analytically  !
 ! D7    D(6,1,5,4)           -179.995          calculate D2E/DX2 analytically  !
 ! D8    D(6,1,5,9)              0.001          calculate D2E/DX2 analytically  !
 ! D9    D(1,2,3,4)             -0.0206         calculate D2E/DX2 analytically  !
 ! D10   D(1,2,3,8)            179.9924         calculate D2E/DX2 analytically  !
 ! D11   D(7,2,3,4)            179.9902         calculate D2E/DX2 analytically  !
 ! D12   D(7,2,3,8)              0.0032         calculate D2E/DX2 analytically  !
 ! D13   D(2,3,4,5)              0.018          calculate D2E/DX2 analytically  !
 ! D14   D(8,3,4,5)           -179.9938         calculate D2E/DX2 analytically  !
 ! D15   D(3,4,5,1)             -0.0107         calculate D2E/DX2 analytically  !
 ! D16   D(3,4,5,9)            179.993          calculate D2E/DX2 analytically  !
 --------------------------------------------------------------------------------
 Trust Radius=3.00D-01 FncErr=1.00D-07 GrdErr=1.00D-07
 Number of steps in this run=      2 maximum allowed number of steps=      2.
 GradGradGradGradGradGradGradGradGradGradGradGradGradGradGradGradGradGrad

                          Input orientation:                          
 ---------------------------------------------------------------------
 Center     Atomic      Atomic             Coordinates (Angstroms)
 Number     Number       Type             X           Y           Z
 ---------------------------------------------------------------------
      1          6           0       -0.473403   -0.093581   -0.974501
      2          6           0       -0.257188    0.805822   -2.063623
      3          6           0       -0.973526    0.460614   -3.174246
      4         16           0       -1.914818   -0.956133   -2.910340
      5          6           0       -1.347143   -1.094598   -1.291258
      6          1           0       -0.001229    0.000787   -0.003464
      7          1           0        0.399338    1.667189   -2.021344
      8          1           0       -1.000118    0.960343   -4.133164
      9          1           0       -1.688712   -1.905944   -0.662761
 ---------------------------------------------------------------------
                    Distance matrix (angstroms):
                    1          2          3          4          5
     1  C    0.000000
     2  C    1.428936   0.000000
     3  C    2.322957   1.365940   0.000000
     4  S    2.563034   2.563035   1.721293   0.000000
     5  C    1.365940   2.322960   2.470611   1.721294   0.000000
     6  H    1.083867   2.226623   3.348232   3.609356   2.160964
     7  H    2.226627   1.083867   2.160963   3.609356   3.348237
     8  H    3.371251   2.204274   1.081647   2.450481   3.524151
     9  H    2.204273   3.371253   3.524151   2.450485   1.081647
                    6          7          8          9
     6  H    0.000000
     7  H    2.647487   0.000000
     8  H    4.355795   2.630188   0.000000
     9  H    2.630189   4.355799   4.553401   0.000000
 Stoichiometry    C4H4S
 Framework group  C1[X(C4H4S)]
 Deg. of freedom    21
 Full point group                 C1      NOp   1
 Largest Abelian subgroup         C1      NOp   1
 Largest concise Abelian subgroup C1      NOp   1
                         Standard orientation:                         
 ---------------------------------------------------------------------
 Center     Atomic      Atomic             Coordinates (Angstroms)
 Number     Number       Type             X           Y           Z
 ---------------------------------------------------------------------
      1          6           0       -1.269391   -0.714469   -0.000020
      2          6           0       -1.269394    0.714468    0.000102
      3          6           0       -0.006650    1.235304   -0.000140
      4         16           0        1.192047    0.000001    0.000058
      5          6           0       -0.006648   -1.235306   -0.000070
      6          1           0       -2.165803   -1.323742   -0.000005
      7          1           0       -2.165803    1.323745    0.000187
      8          1           0        0.285680    2.276699   -0.000231
      9          1           0        0.285680   -2.276702   -0.000115
 ---------------------------------------------------------------------
 Rotational constants (GHZ):      8.0404558      5.4015574      3.2309881
 Standard basis: 6-31+G(d) (6D, 7F)
 There are   107 symmetry adapted cartesian basis functions of A   symmetry.
 There are   107 symmetry adapted basis functions of A   symmetry.
   107 basis functions,   200 primitive gaussians,   107 cartesian basis functions
    22 alpha electrons       22 beta electrons
       nuclear repulsion energy       202.5520932844 Hartrees.
 NAtoms=    9 NActive=    9 NUniq=    9 SFac= 1.00D+00 NAtFMM=   60 NAOKFM=F Big=F
 Integral buffers will be    131072 words long.
 Raffenetti 2 integral format.
 Two-electron integral symmetry is turned on.
 One-electron integrals computed using PRISM.
 NBasis=   107 RedAO= T EigKep=  2.79D-05  NBF=   107
 NBsUse=   107 1.00D-06 EigRej= -1.00D+00 NBFU=   107
 Initial guess from the checkpoint file:  "/srv/scratch/z5358697/gauss/Gau-820452.chk"
 B after Tr=     0.000000    0.000000    0.000000
         Rot=    1.000000    0.000000    0.000000    0.000000 Ang=   0.00 deg.
 Keep R1 ints in memory in canonical form, NReq=17677915.
 Requested convergence on RMS density matrix=1.00D-08 within 128 cycles.
 Requested convergence on MAX density matrix=1.00D-06.
 Requested convergence on             energy=1.00D-06.
 No special actions if energy rises.
 SCF Done:  E(RM062X) =  -552.901767807     A.U. after    1 cycles
            NFock=  1  Conv=0.33D-08     -V/T= 2.0046
 DoSCS=F DFT=T ScalE2(SS,OS)=  1.000000  1.000000
 Range of M.O.s used for correlation:     1   107
 NBasis=   107 NAE=    22 NBE=    22 NFC=     0 NFV=     0
 NROrb=    107 NOA=    22 NOB=    22 NVA=    85 NVB=    85

 **** Warning!!: The largest alpha MO coefficient is  0.85344747D+02

[...]
 Atom     1 has atomic number  6 and mass  12.00000
 Atom     2 has atomic number  6 and mass  12.00000
 Atom     3 has atomic number  6 and mass  12.00000
 Atom     4 has atomic number 16 and mass  31.97207
 Atom     5 has atomic number  6 and mass  12.00000
 Atom     6 has atomic number  1 and mass   1.00783
 Atom     7 has atomic number  1 and mass   1.00783
 Atom     8 has atomic number  1 and mass   1.00783
 Atom     9 has atomic number  1 and mass   1.00783
 Molecular mass:    84.00337 amu.
 Principal axes and moments of inertia in atomic units:
                           1         2         3
     Eigenvalues --   224.45757 334.11497 558.57254
           X            1.00000   0.00000  -0.00001
           Y            0.00000   1.00000   0.00000
           Z            0.00001   0.00000   1.00000
 This molecule is an asymmetric top.
 Rotational symmetry number  1.
 Rotational temperatures (Kelvin)      0.38588     0.25923     0.15506
 Rotational constants (GHZ):           8.04046     5.40156     3.23099
 Zero-point vibrational energy     178047.7 (Joules/Mol)
                                   42.55443 (Kcal/Mol)
 Warning -- explicit consideration of   3 degrees of freedom as
           vibrations may cause significant error
 Vibrational temperatures:    657.89   832.98   892.00  1041.78  1080.66
          (Kelvin)           1102.27  1237.97  1282.77  1320.04  1369.09
                             1537.13  1607.75  1614.12  1856.23  2046.70
                             2145.47  2310.11  4690.00  4707.39  4746.37
                             4749.67
 
 Zero-point correction=                           0.067815 (Hartree/Particle)
 Thermal correction to Energy=                    0.071827
 Thermal correction to Enthalpy=                  0.072771
 Thermal correction to Gibbs Free Energy=         0.040611
 Sum of electronic and zero-point Energies=           -552.833953
 Sum of electronic and thermal Energies=              -552.829941
 Sum of electronic and thermal Enthalpies=            -552.828997
 Sum of electronic and thermal Free Energies=         -552.861157
 
                     E (Thermal)             CV                S
                      KCal/Mol        Cal/Mol-Kelvin    Cal/Mol-Kelvin
 Total                   45.072             14.793             67.686
 Electronic               0.000              0.000              0.000
 Translational            0.889              2.981             39.198
 Rotational               0.889              2.981             25.241
 Vibrational             43.294              8.831              3.247
 Vibration     1          0.815              1.345              0.774
 Vibration     2          0.936              1.077              0.487
 Vibration     3          0.980              0.990              0.417
                       Q            Log10(Q)             Ln(Q)
 Total Bot       0.209124D-18        -18.679597        -43.011362
 Total V=0       0.325822D+13         12.512980         28.812201
 Vib (Bot)       0.943195D-31        -31.025399        -71.438620
 Vib (Bot)    1  0.372820D+00         -0.428500         -0.986658
 Vib (Bot)    2  0.263482D+00         -0.579248         -1.333769
 Vib (Bot)    3  0.235889D+00         -0.627292         -1.444393
 Vib (V=0)       0.146953D+01          0.167178          0.384942
 Vib (V=0)    1  0.112369D+01          0.050648          0.116622
 Vib (V=0)    2  0.106518D+01          0.027421          0.063139
 Vib (V=0)    3  0.105285D+01          0.022367          0.051501
 Electronic      0.100000D+01          0.000000          0.000000
 Translational   0.302622D+08          7.480900         17.225409
 Rotational      0.732658D+05          4.864901         11.201849
 ***** Axes restored to original set *****
 -------------------------------------------------------------------
 Center     Atomic                   Forces (Hartrees/Bohr)
 Number     Number              X              Y              Z
 -------------------------------------------------------------------
      1        6           0.000027716    0.000015017    0.000000160
      2        6          -0.000008047    0.000020313    0.000032568
      3        6           0.000004213   -0.000056577    0.000020796
      4       16           0.000018260    0.000044031    0.000040835
      5        6           0.000004456    0.000019367   -0.000051108
      6        1           0.000006245    0.000027410   -0.000031561
      7        1          -0.000008568   -0.000024773    0.000034165
      8        1          -0.000024759   -0.000039709   -0.000003439
      9        1          -0.000019517   -0.000005079   -0.000042415
 -------------------------------------------------------------------
 Cartesian Forces:  Max     0.000056577 RMS     0.000028006
 FormGI is forming the generalized inverse of G from B-inverse, IUseBI=4.

 GradGradGradGradGradGradGradGradGradGradGradGradGradGradGradGradGradGrad
 Berny optimization.
 Internal  Forces:  Max     0.000069771 RMS     0.000029454
 Search for a local minimum.
 Step number   1 out of a maximum of    2
 All quantities printed in internal units (Hartrees-Bohrs-Radians)
 Second derivative matrix not updated -- analytic derivatives used.
 ITU=  0
     Eigenvalues ---    0.01496   0.01588   0.01787   0.02768   0.04291
     Eigenvalues ---    0.05070   0.09547   0.09675   0.10979   0.11003
     Eigenvalues ---    0.17924   0.22351   0.24269   0.28497   0.37613
     Eigenvalues ---    0.37779   0.38167   0.38235   0.41685   0.48942
     Eigenvalues ---    0.53417
 Angle between quadratic step and forces=  33.85 degrees.
 Linear search not attempted -- first point.
 Iteration  1 RMS(Cart)=  0.00030020 RMS(Int)=  0.00000006
 Iteration  2 RMS(Cart)=  0.00000006 RMS(Int)=  0.00000002
 Variable       Old X    -DE/DX   Delta X   Delta X   Delta X     New X
                                 (Linear)    (Quad)   (Total)
    R1        2.70030  -0.00006   0.00000  -0.00013  -0.00013   2.70017
    R2        2.58125   0.00002   0.00000   0.00005   0.00005   2.58130
    R3        2.04821  -0.00002   0.00000  -0.00006  -0.00006   2.04815
    R4        2.58125   0.00002   0.00000   0.00005   0.00005   2.58130
    R5        2.04821  -0.00002   0.00000  -0.00006  -0.00006   2.04815
    R6        3.25277  -0.00007   0.00000  -0.00027  -0.00027   3.25250
    R7        2.04402  -0.00001   0.00000  -0.00004  -0.00004   2.04398
    R8        3.25277  -0.00007   0.00000  -0.00027  -0.00027   3.25250
    R9        2.04402  -0.00001   0.00000  -0.00004  -0.00004   2.04398
    A1        1.96200  -0.00002   0.00000  -0.00005  -0.00005   1.96196
    A2        2.16775  -0.00003   0.00000  -0.00032  -0.00032   2.16744
    A3        2.15343   0.00004   0.00000   0.00036   0.00036   2.15379
    A4        1.96200  -0.00002   0.00000  -0.00004  -0.00004   1.96196
    A5        2.16776  -0.00003   0.00000  -0.00032  -0.00032   2.16744
    A6        2.15343   0.00004   0.00000   0.00036   0.00036   2.15379
    A7        1.94995   0.00002   0.00000   0.00002   0.00002   1.94997
    A8        2.23567   0.00003   0.00000   0.00040   0.00040   2.23606
    A9        2.09757  -0.00006   0.00000  -0.00042  -0.00042   2.09715
   A10        1.60088  -0.00001   0.00000   0.00004   0.00004   1.60092
   A11        1.94995   0.00002   0.00000   0.00003   0.00003   1.94997
   A12        2.23567   0.00003   0.00000   0.00040   0.00040   2.23606
   A13        2.09757  -0.00006   0.00000  -0.00042  -0.00042   2.09715
    D1        0.00022  -0.00001   0.00000  -0.00022  -0.00022   0.00000
    D2       -3.14156   0.00000   0.00000  -0.00004  -0.00004   3.14159
    D3       -3.14144  -0.00001   0.00000  -0.00015  -0.00015  -3.14159
    D4       -0.00004   0.00000   0.00000   0.00004   0.00004   0.00000
    D5        0.00002   0.00000   0.00000  -0.00002  -0.00002   0.00000
    D6        3.14154   0.00000   0.00000   0.00005   0.00005  -3.14159
    D7       -3.14150  -0.00001   0.00000  -0.00009  -0.00009   3.14159
    D8        0.00002   0.00000   0.00000  -0.00002  -0.00002   0.00000
    D9       -0.00036   0.00002   0.00000   0.00036   0.00036   0.00000
   D10        3.14146   0.00001   0.00000   0.00013   0.00013   3.14159
   D11        3.14142   0.00001   0.00000   0.00018   0.00018  -3.14159
   D12        0.00006   0.00000   0.00000  -0.00005  -0.00005   0.00000
   D13        0.00031  -0.00002   0.00000  -0.00032  -0.00032   0.00000
   D14       -3.14148  -0.00001   0.00000  -0.00011  -0.00011  -3.14159
   D15       -0.00019   0.00001   0.00000   0.00019   0.00019   0.00000
   D16        3.14147   0.00001   0.00000   0.00012   0.00012  -3.14159
         Item               Value     Threshold  Converged?
 Maximum Force            0.000070     0.000450     YES
 RMS     Force            0.000029     0.000300     YES
 Maximum Displacement     0.000858     0.001800     YES
 RMS     Displacement     0.000300     0.001200     YES
 Predicted change in Energy=-9.988100D-08
 Optimization completed.
    -- Stationary point found.
                           ----------------------------
                           !   Optimized Parameters   !
                           ! (Angstroms and Degrees)  !
 --------------------------                            --------------------------
 ! Name  Definition              Value          Derivative Info.                !
 --------------------------------------------------------------------------------
 ! R1    R(1,2)                  1.4289         -DE/DX =   -0.0001              !
 ! R2    R(1,5)                  1.3659         -DE/DX =    0.0                 !
 ! R3    R(1,6)                  1.0839         -DE/DX =    0.0                 !
 ! R4    R(2,3)                  1.3659         -DE/DX =    0.0                 !
 ! R5    R(2,7)                  1.0839         -DE/DX =    0.0                 !
 ! R6    R(3,4)                  1.7213         -DE/DX =   -0.0001              !
 ! R7    R(3,8)                  1.0816         -DE/DX =    0.0                 !
 ! R8    R(4,5)                  1.7213         -DE/DX =   -0.0001              !
 ! R9    R(5,9)                  1.0816         -DE/DX =    0.0                 !
 ! A1    A(2,1,5)              112.4145         -DE/DX =    0.0                 !
 ! A2    A(2,1,6)              124.2031         -DE/DX =    0.0                 !
 ! A3    A(5,1,6)              123.3823         -DE/DX =    0.0                 !
 ! A4    A(1,2,3)              112.4143         -DE/DX =    0.0                 !
 ! A5    A(1,2,7)              124.2035         -DE/DX =    0.0                 !
 ! A6    A(3,2,7)              123.3822         -DE/DX =    0.0                 !
 ! A7    A(2,3,4)              111.7239         -DE/DX =    0.0                 !
 ! A8    A(2,3,8)              128.0944         -DE/DX =    0.0                 !
 ! A9    A(4,3,8)              120.1817         -DE/DX =   -0.0001              !
 ! A10   A(3,4,5)               91.7234         -DE/DX =    0.0                 !
 ! A11   A(1,5,4)              111.7238         -DE/DX =    0.0                 !
 ! A12   A(1,5,9)              128.0943         -DE/DX =    0.0                 !
 ! A13   A(4,5,9)              120.1819         -DE/DX =   -0.0001              !
 ! D1    D(5,1,2,3)              0.0127         -DE/DX =    0.0                 !
 ! D2    D(5,1,2,7)            180.0018         -DE/DX =    0.0                 !
 ! D3    D(6,1,2,3)           -179.9913         -DE/DX =    0.0                 !
 ! D4    D(6,1,2,7)             -0.0022         -DE/DX =    0.0                 !
 ! D5    D(2,1,5,4)              0.001          -DE/DX =    0.0                 !
 ! D6    D(2,1,5,9)           -180.0031         -DE/DX =    0.0                 !
 ! D7    D(6,1,5,4)            180.005          -DE/DX =    0.0                 !
 ! D8    D(6,1,5,9)              0.001          -DE/DX =    0.0                 !
 ! D9    D(1,2,3,4)             -0.0206         -DE/DX =    0.0                 !
 ! D10   D(1,2,3,8)            179.9924         -DE/DX =    0.0                 !
 ! D11   D(7,2,3,4)           -180.0098         -DE/DX =    0.0                 !
 ! D12   D(7,2,3,8)              0.0032         -DE/DX =    0.0                 !
 ! D13   D(2,3,4,5)              0.018          -DE/DX =    0.0                 !
 ! D14   D(8,3,4,5)           -179.9938         -DE/DX =    0.0                 !
 ! D15   D(3,4,5,1)             -0.0107         -DE/DX =    0.0                 !
 ! D16   D(3,4,5,9)           -180.007          -DE/DX =    0.0                 !
 --------------------------------------------------------------------------------
 GradGradGradGradGradGradGradGradGradGradGradGradGradGradGradGradGradGrad

 1\1\GINC-KATANA1\Freq\RM062X\6-31+G(d)\C4H4S1\Z5358697\14-Mar-2025\0\\
 #N Geom=AllCheck Guess=TCheck SCRF=Check GenChk RM062X/6-31+G(d) Freq\
 \thiophene\\0,1\C,-0.4734033631,-0.0935808307,-0.9745013243\C,-0.25718
 84302,0.805821656,-2.0636225217\C,-0.9735261276,0.4606140795,-3.174245
 6302\S,-1.9148184233,-0.9561326785,-2.9103398199\C,-1.3471432913,-1.09
 45977598,-1.2912578073\H,-0.0012288763,0.0007872908,-0.0034639248\H,0.
 3993381929,1.6671891214,-2.0213440565\H,-1.0001179763,0.9603433675,-4.
 133163776\H,-1.6887117048,-1.9059442462,-0.6627611394\\Version=ES64L-G
 09RevD.01\State=1-A\HF=-552.9017678\RMSD=3.262e-09\RMSF=2.801e-05\Zero
 Point=0.0678148\Thermal=0.0718265\Dipole=0.1262175,0.1068433,0.1132876
 \DipoleDeriv=-0.1982827,-0.029165,-0.0522749,-0.0828964,-0.17538,-0.16
 37116,0.0439089,-0.034001,0.0119012,-0.1590854,0.015266,-0.0372736,0.0
 690353,-0.037205,-0.0444065,-0.1334574,-0.1741006,-0.1654765,-0.004029
 6,0.2969888,0.1449639,0.3252132,0.0931853,0.1093341,0.0944447,0.041031
 4,-0.1298973,-0.0374294,-0.1538204,-0.1410969,-0.1538906,-0.0273582,-0
 .0807094,-0.141158,-0.080692,-0.0612621,-0.0741758,0.1495219,0.2396585
 ,0.1213134,-0.154119,0.0596808,0.2902442,0.1279357,0.1875507,0.1083833
 ,-0.044044,-0.0907907,-0.0527232,0.11342,-0.010434,-0.0751957,0.010556
 8,-0.0218293,0.0827138,-0.1170364,-0.0220168,-0.1083622,0.0228942,0.01
 73692,-0.037607,-0.0036257,0.0943677,0.1404669,-0.0645618,-0.0115308,-
 0.0555535,0.0805839,0.0674145,-0.0276489,0.045732,0.0445056,0.1414388,
 -0.0531492,-0.0296386,-0.0621359,0.0839788,0.0454629,-0.0135309,0.0671
 633,0.0401401\Polar=52.7026581,13.8411333,58.7670484,8.9713426,-2.4840
 279,64.8288576\PG=C01 [X(C4H4S1)]\NImag=0\\0.40221672,0.25410515,0.488
 99794,0.20887889,-0.03449399,0.69335214,-0.08629842,-0.04547671,0.0211
 9824,0.42349870,-0.03076914,-0.16429730,0.11013715,0.30725966,0.563792
 16,-0.00513976,0.07462351,-0.20744610,0.16495230,-0.04016406,0.5972745
 3,0.01625079,0.02670768,-0.02787524,-0.17045311,-0.07218433,-0.1413001
 6,0.27885894,0.00961618,0.02209634,-0.00206018,-0.05919132,-0.11226382
 ,-0.04629421,0.15253067,0.37011776,0.00272915,0.03921207,-0.05563473,-
 0.16456960,-0.07767108,-0.31642063,0.17908108,-0.13068297,0.75768491,-
 0.02141088,-0.03321892,-0.01311679,-0.02333124,-0.02194699,-0.03794701
 ,-0.07739680,-0.06303537,0.00628190,0.16440418,-0.01714054,-0.01673832
 ,0.00410526,-0.03802460,-0.02349395,-0.03422847,-0.07371061,-0.1403321
 4,0.01379059,0.12196993,0.22218982,-0.04192121,-0.03473748,-0.03035149
 ,-0.00913995,0.00461254,-0.02167526,0.02539809,0.03956612,-0.04277512,
 0.07674451,-0.02792064,0.27746791,-0.21402596,-0.16843015,-0.07422315,
 -0.00112230,-0.03388876,0.03870459,-0.00612334,-0.01742009,-0.00853070
 ,-0.04836561,0.00967506,-0.05383420,0.34239417,-0.18142521,-0.26599392
 ,-0.06612960,-0.01679561,-0.03912359,0.04381782,-0.02036556,-0.0263016
 2,0.01644570,-0.00100044,-0.03799178,0.00608497,0.31176955,0.59415318,
 -0.05095190,-0.03475501,-0.11911829,0.00809155,0.00255279,0.02295838,-
 0.00325779,0.02354743,-0.03970705,-0.03471817,0.03186055,-0.17414417,0
 .04737470,-0.14750479,0.47011234,-0.10016650,-0.02118587,-0.12258071,0
 .00514940,0.00165499,0.00689437,0.00099492,-0.00260709,0.00104258,0.00
 224217,-0.00441318,-0.00310880,-0.00313879,-0.00058314,-0.01680308,0.0
 9751374,-0.02127791,-0.05193293,-0.01867437,0.01070244,0.00673475,0.01
 568584,-0.00199952,-0.00259840,0.00429796,-0.00552855,0.00011637,-0.00
 137084,-0.00943549,0.00254753,-0.01972922,0.02408767,0.04567787,-0.122
 41124,-0.01844890,-0.29620376,-0.00931208,-0.00616144,-0.01038030,-0.0
 0004659,0.00283079,-0.00268647,-0.00111015,0.00132267,0.00175398,-0.00
 095096,0.00164319,-0.00098628,0.13291372,0.02039636,0.30898769,0.00118
 486,0.00077724,-0.00110527,-0.15340540,-0.15457640,-0.01219538,-0.0041
 1274,-0.01186972,0.00105961,0.00301958,-0.00358071,-0.00272034,0.00141
 184,-0.00095487,-0.00090967,-0.00111628,0.00064585,0.00072035,0.154831
 60,-0.00826939,-0.00722940,-0.00511013,-0.15448668,-0.23951258,-0.0043
 1925,-0.00301357,-0.00087178,0.00190117,-0.00246732,0.00285477,0.00111
 719,-0.00156325,-0.00112860,0.00272006,0.00107107,-0.00033446,-0.00020
 719,0.16759213,0.24761210,0.01510052,0.01673776,0.00754854,-0.01236407
 ,-0.00454596,-0.05538471,-0.01479212,-0.01946998,0.00340686,-0.0047187
 9,-0.00157727,-0.00176184,0.00017887,0.00418733,-0.00457314,-0.0000410
 0,-0.00123371,0.00021668,0.01425983,0.00518522,0.04973500,0.00181164,-
 0.00322346,-0.00421558,0.00484981,0.00962826,-0.01156213,-0.03655147,-
 0.00789850,-0.01339379,-0.00088826,-0.00441045,0.01371089,-0.00278785,
 -0.00392681,-0.00008088,0.00074782,0.00037160,-0.00070003,-0.00230150,
 0.00188494,0.00169838,0.03296878,-0.00342242,0.00196176,-0.00111959,0.
 00098948,0.00867339,-0.00867322,-0.00734336,-0.11023825,0.13462644,0.0
 0308584,-0.00791302,0.01572208,-0.00343262,-0.00426005,-0.00037831,-0.
 00009793,0.00078399,-0.00027674,0.00224477,-0.00126007,-0.00020936,0.0
 0842815,0.11101109,-0.00385661,-0.00063354,-0.00222294,0.00390828,0.01
 217418,-0.00987288,-0.01439070,0.13329100,-0.29852724,0.00028836,-0.00
 237998,0.00166115,-0.00096729,-0.00156922,0.00063208,0.00014104,0.0008
 5706,-0.00043207,0.00105334,-0.00107914,0.00007091,0.01427385,-0.14116
 307,0.30800439,0.00043775,-0.01005497,0.01303962,0.00111257,-0.0051773
 0,-0.00240682,-0.00146719,-0.00012476,-0.00370024,0.00172686,0.0096351
 0,-0.00512900,-0.06824215,-0.08671789,0.05125523,-0.00222647,0.0024339
 0,0.00089699,0.00048805,-0.00074792,0.00067839,0.00215103,-0.00045190,
 -0.00045027,0.06601955,-0.00141671,-0.00686417,0.01334544,-0.00497665,
 -0.00050904,-0.00044795,-0.00062141,0.00039192,-0.00191989,0.00214182,
 0.00130826,-0.00307394,-0.08727425,-0.22190116,0.14168651,0.00207348,-
 0.00099473,-0.00109873,-0.00027829,-0.00012999,0.00092597,-0.00085372,
 0.00124116,0.00050271,0.09120573,0.22745776,-0.00242784,-0.00750442,0.
 01007663,-0.00276468,-0.00093413,0.00094696,-0.00281656,-0.00072800,-0
 .00534053,0.00829614,0.01502730,-0.01017517,0.05224814,0.14302460,-0.1
 5517388,0.00154188,-0.00022908,-0.00026947,-0.00016247,-0.00020793,0.0
 0074169,0.00026930,0.00147178,0.00068661,-0.05418390,-0.14992014,0.158
 50716\\-0.00002772,-0.00001502,-0.00000016,0.00000805,-0.00002031,-0.0
 0003257,-0.00000421,0.00005658,-0.00002080,-0.00001826,-0.00004403,-0.
 00004083,-0.00000446,-0.00001937,0.00005111,-0.00000625,-0.00002741,0.
 00003156,0.00000857,0.00002477,-0.00003416,0.00002476,0.00003971,0.000
 00344,0.00001952,0.00000508,0.00004242\\\@


            ARSENIC

 FOR SMELTER FUMES HAVE I BEEN NAMED,
    I AM AN EVIL POISONOUS SMOKE...
 BUT WHEN FROM POISON I AM FREED,
    THROUGH ART AND SLEIGHT OF HAND,
 THEN CAN I CURE BOTH MAN AND BEAST,
    FROM DIRE DISEASE OFTTIMES DIRECT THEM;
 BUT PREPARE ME CORRECTLY, AND TAKE GREAT CARE
    THAT YOU FAITHFULLY KEEP WATCHFUL GUARD OVER ME;
 FOR ELSE I AM POISON, AND POISON REMAIN,
    THAT PIERCES THE HEART OF MANY A ONE.

 ATTRIBUTED TO THE PROBABLY MYTHICAL 15TH
 CENTURY MONK, BASILIUS VALENTINUS
 Job cpu time:       0 days  0 hours  1 minutes 11.5 seconds.
 File lengths (MBytes):  RWF=    132 Int=      0 D2E=      0 Chk=      3 Scr=      2
 Normal termination of Gaussian 09 at Fri Mar 14 16:02:09 2025.
