 Entering Gaussian System, Link 0=g09
 Initial command:
 /apps/z_install_tree/linux-rocky8-ivybridge/gcc-12.2.0/gaussian-09-D.01-wczn3gur5lpur3omlkzwa2l5ecyxp5ef/g09/l1.exe "/srv/scratch/z5358697/gauss/Gau-3106735.inp" -scrdir="/srv/scratch/z5358697/gauss/"
 Entering Link 1 = /apps/z_install_tree/linux-rocky8-ivybridge/gcc-12.2.0/gaussian-09-D.01-wczn3gur5lpur3omlkzwa2l5ecyxp5ef/g09/l1.exe PID=   3106737.
  
 Copyright (c) 1988,1990,1992,1993,1995,1998,2003,2009,2013,
            Gaussian, Inc.  All Rights Reserved.
  
 This is part of the Gaussian(R) 09 program.  It is based on
 the Gaussian(R) 03 system (copyright 2003, Gaussian, Inc.),
 the Gaussian(R) 98 system (copyright 1998, Gaussian, Inc.),
 the Gaussian(R) 94 system (copyright 1995, Gaussian, Inc.),
 the Gaussian 92(TM) system (copyright 1992, Gaussian, Inc.),
 the Gaussian 90(TM) system (copyright 1990, Gaussian, Inc.),
 the Gaussian 88(TM) system (copyright 1988, Gaussian, Inc.),
 the Gaussian 86(TM) system (copyright 1986, Carnegie Mellon
 University), and the Gaussian 82(TM) system (copyright 1983,
 Carnegie Mellon University). Gaussian is a federally registered
 trademark of Gaussian, Inc.
  
 This software contains proprietary and confidential information,
 including trade secrets, belonging to Gaussian, Inc.
  
 This software is provided under written license and may be
 used, copied, transmitted, or stored only in accord with that
 written license.
  
 The following legend is applicable only to US Government
 contracts under FAR:
  
                    RESTRICTED RIGHTS LEGEND
  
 Use, reproduction and disclosure by the US Government is
 subject to restrictions as set forth in subparagraphs (a)
 and (c) of the Commercial Computer Software - Restricted
 Rights clause in FAR 52.227-19.
  
 Gaussian, Inc.
 340 Quinnipiac St., Bldg. 40, Wallingford CT 06492
  
  
 ---------------------------------------------------------------
 Warning -- This program may not be used in any manner that
 competes with the business of Gaussian, Inc. or will provide
 assistance to any competitor of Gaussian, Inc.  The licensee
 of this program is prohibited from giving any competitor of
 Gaussian, Inc. access to this program.  By using this program,
 the user acknowledges that Gaussian, Inc. is engaged in the
 business of creating and licensing software in the field of
 computational chemistry and represents and warrants to the
 licensee that it is not a competitor of Gaussian, Inc. and that
 it will not use this program in any manner prohibited above.
 ---------------------------------------------------------------
  

 Cite this work as:
 Gaussian 09, Revision D.01,
 M. J. Frisch, G. W. Trucks, H. B. Schlegel, G. E. Scuseria, 
 M. A. Robb, J. R. Cheeseman, G. Scalmani, V. Barone, B. Mennucci, 
 G. A. Petersson, H. Nakatsuji, M. Caricato, X. Li, H. P. Hratchian, 
 A. F. Izmaylov, J. Bloino, G. Zheng, J. L. Sonnenberg, M. Hada, 
 M. Ehara, K. Toyota, R. Fukuda, J. Hasegawa, M. Ishida, T. Nakajima, 
 Y. Honda, O. Kitao, H. Nakai, T. Vreven, J. A. Montgomery, Jr., 
 J. E. Peralta, F. Ogliaro, M. Bearpark, J. J. Heyd, E. Brothers, 
 K. N. Kudin, V. N. Staroverov, T. Keith, R. Kobayashi, J. Normand, 
 K. Raghavachari, A. Rendell, J. C. Burant, S. S. Iyengar, J. Tomasi, 
 M. Cossi, N. Rega, J. M. Millam, M. Klene, J. E. Knox, J. B. Cross, 
 V. Bakken, C. Adamo, J. Jaramillo, R. Gomperts, R. E. Stratmann, 
 O. Yazyev, A. J. Austin, R. Cammi, C. Pomelli, J. W. Ochterski, 
 R. L. Martin, K. Morokuma, V. G. Zakrzewski, G. A. Voth, 
 P. Salvador, J. J. Dannenberg, S. Dapprich, A. D. Daniels, 
 O. Farkas, J. B. Foresman, J. V. Ortiz, J. Cioslowski, 
 and D. J. Fox, Gaussian, Inc., Wallingford CT, 2013.
 
 ******************************************
 Gaussian 09:  ES64L-G09RevD.01 24-Apr-2013
                19-Mar-2025 
 ******************************************
 ---------------------------------
 #m062X/6-31+G(d) OPT Freq=noraman
 ---------------------------------
 1/14=-1,18=20,19=15,26=3,38=1/1,3;
 2/9=110,12=2,17=6,18=5,40=1/2;
 3/5=1,6=6,7=11,11=2,16=1,25=1,30=1,71=1,74=-55/1,2,3;
 4//1;
 5/5=2,38=5/2;
 6/7=2,8=2,9=2,10=2,28=1/1;
 7//1,2,3,16;
 1/14=-1,18=20,19=15,26=3/3(2);
 2/9=110/2;
 99//99;
 2/9=110/2;
 3/5=1,6=6,7=11,11=2,16=1,25=1,30=1,71=1,74=-55/1,2,3;
 4/5=5,16=3,69=1/1;
 5/5=2,38=5/2;
 7//1,2,3,16;
 1/14=-1,18=20,19=15,26=3/3(-5);
 2/9=110/2;
 6/7=2,8=2,9=2,10=2,19=2,28=1/1;
 99/9=1/99;
 -----------
 acetic acid
 -----------
 Symbolic Z-matrix:
 Charge =  0 Multiplicity = 1
 C                    -1.0284    0.3448   -0.134 
 C                    -1.653     0.6105    1.199 
 O                    -2.6517    0.0533    1.6296 
 O                    -0.9598    1.5616    1.8714 
 H                    -1.4624    1.0088   -0.8857 
 H                     0.0533    0.4881   -0.0723 
 H                    -1.2259   -0.6905   -0.4265 
 H                    -0.1896    1.8857    1.3576 
 

 GradGradGradGradGradGradGradGradGradGradGradGradGradGradGradGradGradGrad
 Berny optimization.
 Initialization pass.
                           ----------------------------
                           !    Initial Parameters    !
                           ! (Angstroms and Degrees)  !
 --------------------------                            --------------------------
 ! Name  Definition              Value          Derivative Info.                !
 --------------------------------------------------------------------------------
 ! R1    R(1,2)                  1.4959         estimate D2E/DX2                !
 ! R2    R(1,5)                  1.0928         estimate D2E/DX2                !
 ! R3    R(1,6)                  1.0929         estimate D2E/DX2                !
 ! R4    R(1,7)                  1.0938         estimate D2E/DX2                !
 ! R5    R(2,3)                  1.222          estimate D2E/DX2                !
 ! R6    R(2,4)                  1.3554         estimate D2E/DX2                !
 ! R7    R(4,8)                  0.9809         estimate D2E/DX2                !
 ! A1    A(2,1,5)              109.8285         estimate D2E/DX2                !
 ! A2    A(2,1,6)              109.8571         estimate D2E/DX2                !
 ! A3    A(2,1,7)              109.3312         estimate D2E/DX2                !
 ! A4    A(5,1,6)              110.6236         estimate D2E/DX2                !
 ! A5    A(5,1,7)              108.6294         estimate D2E/DX2                !
 ! A6    A(6,1,7)              108.537          estimate D2E/DX2                !
 ! A7    A(1,2,3)              125.0483         estimate D2E/DX2                !
 ! A8    A(1,2,4)              110.6804         estimate D2E/DX2                !
 ! A9    A(3,2,4)              124.2713         estimate D2E/DX2                !
 ! A10   A(2,4,8)              111.9347         estimate D2E/DX2                !
 ! D1    D(5,1,2,3)             90.0049         estimate D2E/DX2                !
 ! D2    D(5,1,2,4)            -89.882          estimate D2E/DX2                !
 ! D3    D(6,1,2,3)           -148.1031         estimate D2E/DX2                !
 ! D4    D(6,1,2,4)             32.0101         estimate D2E/DX2                !
 ! D5    D(7,1,2,3)            -29.097          estimate D2E/DX2                !
 ! D6    D(7,1,2,4)            151.0162         estimate D2E/DX2                !
 ! D7    D(1,2,4,8)             -0.1134         estimate D2E/DX2                !
 ! D8    D(3,2,4,8)            179.9987         estimate D2E/DX2                !
 --------------------------------------------------------------------------------
 Trust Radius=3.00D-01 FncErr=1.00D-07 GrdErr=1.00D-06
 Number of steps in this run=     35 maximum allowed number of steps=    100.
 GradGradGradGradGradGradGradGradGradGradGradGradGradGradGradGradGradGrad

                          Input orientation:                          
 ---------------------------------------------------------------------
 Center     Atomic      Atomic             Coordinates (Angstroms)
 Number     Number       Type             X           Y           Z
 ---------------------------------------------------------------------
      1          6           0       -1.028400    0.344800   -0.134000
      2          6           0       -1.653000    0.610500    1.199000
      3          8           0       -2.651700    0.053300    1.629600
      4          8           0       -0.959800    1.561600    1.871400
      5          1           0       -1.462400    1.008800   -0.885700
      6          1           0        0.053300    0.488100   -0.072300
      7          1           0       -1.225900   -0.690500   -0.426500
      8          1           0       -0.189600    1.885700    1.357600
 ---------------------------------------------------------------------
                    Distance matrix (angstroms):
                    1          2          3          4          5
     1  C    0.000000
     2  C    1.495865   0.000000
     3  O    2.414614   1.222002   0.000000
     4  O    2.346686   1.355448   2.279465   0.000000
     5  H    1.092843   2.130949   2.941793   2.856535   0.000000
     6  H    1.092894   2.131348   3.225297   2.440644   1.797246
     7  H    1.093805   2.125386   2.610305   3.228484   1.776068
     8  H    2.302787   1.947519   3.081170   0.980938   2.724219
                    6          7          8
     6  H    0.000000
     7  H    1.775080   0.000000
     8  H    2.014175   3.300566   0.000000
 Stoichiometry    C2H4O2
 Framework group  C1[X(C2H4O2)]
 Deg. of freedom    18
 Full point group                 C1      NOp   1
 Largest Abelian subgroup         C1      NOp   1
 Largest concise Abelian subgroup C1      NOp   1
                         Standard orientation:                         
 ---------------------------------------------------------------------
 Center     Atomic      Atomic             Coordinates (Angstroms)
 Number     Number       Type             X           Y           Z
 ---------------------------------------------------------------------
      1          6           0       -1.292001   -0.332747    0.001734
      2          6           0        0.185421   -0.098587   -0.000348
      3          8           0        1.035128   -0.976818   -0.000987
      4          8           0        0.459698    1.228820    0.001062
      5          1           0       -1.656784   -0.390122    1.030299
      6          1           0       -1.795982    0.470782   -0.541185
      7          1           0       -1.509101   -1.280464   -0.499374
      8          1           0       -0.357260    1.771793    0.001353
 ---------------------------------------------------------------------
 Rotational constants (GHZ):     10.6780396      9.9305004      5.3204706
 Standard basis: 6-31+G(d) (6D, 7F)
 There are    84 symmetry adapted cartesian basis functions of A   symmetry.
 There are    84 symmetry adapted basis functions of A   symmetry.
    84 basis functions,   144 primitive gaussians,    84 cartesian basis functions
    16 alpha electrons       16 beta electrons
       nuclear repulsion energy       120.7566193376 Hartrees.
 NAtoms=    8 NActive=    8 NUniq=    8 SFac= 1.00D+00 NAtFMM=   60 NAOKFM=F Big=F
 Integral buffers will be    131072 words long.
 Raffenetti 2 integral format.
 Two-electron integral symmetry is turned on.
 One-electron integrals computed using PRISM.
 NBasis=    84 RedAO= T EigKep=  2.08D-04  NBF=    84
 NBsUse=    84 1.00D-06 EigRej= -1.00D+00 NBFU=    84
 ExpMin= 4.38D-02 ExpMax= 5.48D+03 ExpMxC= 8.25D+02 IAcc=2 IRadAn=         4 AccDes= 0.00D+00
 Harris functional with IExCor= 1009 and IRadAn=       4 diagonalized for initial guess.
 HarFok:  IExCor= 1009 AccDes= 0.00D+00 IRadAn=         4 IDoV= 1 UseB2=F ITyADJ=14
 ICtDFT=  3500011 ScaDFX=  1.000000  1.000000  1.000000  1.000000
 FoFCou: FMM=F IPFlag=           0 FMFlag=      100000 FMFlg1=           0
         NFxFlg=           0 DoJE=T BraDBF=F KetDBF=T FulRan=T
         wScrn=  0.000000 ICntrl=     500 IOpCl=  0 I1Cent=   200000004 NGrid=           0
         NMat0=    1 NMatS0=      1 NMatT0=    0 NMatD0=    1 NMtDS0=    0 NMtDT0=    0
 Petite list used in FoFCou.
 Keep R1 ints in memory in canonical form, NReq=7322173.
 Requested convergence on RMS density matrix=1.00D-08 within 128 cycles.
 Requested convergence on MAX density matrix=1.00D-06.
 Requested convergence on             energy=1.00D-06.
 No special actions if energy rises.
 SCF Done:  E(RM062X) =  -228.978331386     A.U. after   12 cycles
            NFock= 12  Conv=0.55D-08     -V/T= 2.0087

 **********************************************************************

            Population analysis using the SCF density.

 **********************************************************************

 Orbital symmetries:
       Occupied  (A) (A) (A) (A) (A) (A) (A) (A) (A) (A) (A) (A)
                 (A) (A) (A) (A)
       Virtual   (A) (A) (A) (A) (A) (A) (A) (A) (A) (A) (A) (A)
                 (A) (A) (A) (A) (A) (A) (A) (A) (A) (A) (A) (A)
                 (A) (A) (A) (A) (A) (A) (A) (A) (A) (A) (A) (A)
                 (A) (A) (A) (A) (A) (A) (A) (A) (A) (A) (A) (A)
                 (A) (A) (A) (A) (A) (A) (A) (A) (A) (A) (A) (A)
                 (A) (A) (A) (A) (A) (A) (A) (A)
 The electronic state is 1-A.
 Alpha  occ. eigenvalues --  -19.70475 -19.64615 -10.70235 -10.57611  -1.23548
 Alpha  occ. eigenvalues --   -1.14762  -0.86678  -0.71882  -0.60413  -0.56316
 Alpha  occ. eigenvalues --   -0.55816  -0.50491  -0.47838  -0.45435  -0.39822
 Alpha  occ. eigenvalues --   -0.35992
 Alpha virt. eigenvalues --    0.00386   0.03505   0.03771   0.05104   0.05365
 Alpha virt. eigenvalues --    0.08066   0.08536   0.09049   0.12802   0.15425
 Alpha virt. eigenvalues --    0.17266   0.20582   0.23858   0.24424   0.25704
 Alpha virt. eigenvalues --    0.27419   0.28691   0.30616   0.31388   0.34219
 Alpha virt. eigenvalues --    0.35090   0.37386   0.40550   0.51193   0.67533
 Alpha virt. eigenvalues --    0.67806   0.70449   0.75478   0.81910   0.83281
 Alpha virt. eigenvalues --    0.97335   1.00625   1.04507   1.12729   1.14028
 Alpha virt. eigenvalues --    1.15403   1.19904   1.33232   1.34446   1.36062
 Alpha virt. eigenvalues --    1.37611   1.41135   1.43712   1.47395   1.59619
 Alpha virt. eigenvalues --    1.66843   1.76934   1.81031   1.84618   1.86425
 Alpha virt. eigenvalues --    1.91580   1.94551   2.02887   2.10220   2.25079
 Alpha virt. eigenvalues --    2.29218   2.44385   2.46918   2.52177   2.68998
 Alpha virt. eigenvalues --    2.79290   2.86577   3.10700   3.12958   4.05861
 Alpha virt. eigenvalues --    4.22229   4.32947   4.55006
          Condensed to atoms (all electrons):
               1          2          3          4          5          6
     1  C    5.697593   0.159983  -0.107619  -0.138595   0.371757   0.384689
     2  C    0.159983   4.762674   0.488144   0.119666  -0.023041  -0.055195
     3  O   -0.107619   0.488144   8.148525  -0.092657  -0.003265   0.005969
     4  O   -0.138595   0.119666  -0.092657   8.505164  -0.000388  -0.000065
     5  H    0.371757  -0.023041  -0.003265  -0.000388   0.437779  -0.024600
     6  H    0.384689  -0.055195   0.005969  -0.000065  -0.024600   0.512580
     7  H    0.395625  -0.048276  -0.002438   0.006997  -0.016326  -0.023914
     8  H    0.021304  -0.017582   0.006370   0.176698  -0.000854   0.002673
               7          8
     1  C    0.395625   0.021304
     2  C   -0.048276  -0.017582
     3  O   -0.002438   0.006370
     4  O    0.006997   0.176698
     5  H   -0.016326  -0.000854
     6  H   -0.023914   0.002673
     7  H    0.427652   0.000282
     8  H    0.000282   0.337350
 Mulliken charges:
               1
     1  C   -0.784737
     2  C    0.613628
     3  O   -0.443030
     4  O   -0.576820
     5  H    0.258939
     6  H    0.197863
     7  H    0.260398
     8  H    0.473758
 Sum of Mulliken charges =   0.00000
 Mulliken charges with hydrogens summed into heavy atoms:
               1
     1  C   -0.067536
     2  C    0.613628
     3  O   -0.443030
     4  O   -0.103062
 Electronic spatial extent (au):  <R**2>=            254.3439
 Charge=              0.0000 electrons
 Dipole moment (field-independent basis, Debye):
    X=             -4.2965    Y=              1.9156    Z=              0.0466  Tot=              4.7044
 Quadrupole moment (field-independent basis, Debye-Ang):
   XX=            -25.8578   YY=            -23.6381   ZZ=            -23.3744
   XY=             -0.3236   XZ=             -0.1115   YZ=             -0.0150
 Traceless Quadrupole moment (field-independent basis, Debye-Ang):
   XX=             -1.5677   YY=              0.6520   ZZ=              0.9158
   XY=             -0.3236   XZ=             -0.1115   YZ=             -0.0150
 Octapole moment (field-independent basis, Debye-Ang**2):
  XXX=             -0.7992  YYY=             10.4281  ZZZ=              0.8145  XYY=             -6.9865
  XXY=              1.9006  XXZ=              0.1517  XZZ=             -0.0251  YZZ=              0.0645
  YYZ=             -0.7545  XYZ=              0.1170
 Hexadecapole moment (field-independent basis, Debye-Ang**3):
 XXXX=           -163.3463 YYYY=           -114.5720 ZZZZ=            -28.1774 XXXY=              0.0155
 XXXZ=             -0.3280 YYYX=             -6.3089 YYYZ=              1.0117 ZZZX=             -1.5010
 ZZZY=             -0.3881 XXYY=            -48.5572 XXZZ=            -29.5300 YYZZ=            -26.5273
 XXYZ=             -0.4221 YYXZ=              1.1958 ZZXY=             -0.4175
 N-N= 1.207566193376D+02 E-N=-7.777342629437D+02  KE= 2.270080592094D+02
 Calling FoFJK, ICntrl=      2127 FMM=F ISym2X=0 I1Cent= 0 IOpClX= 0 NMat=1 NMatS=1 NMatT=0.
 ***** Axes restored to original set *****
 -------------------------------------------------------------------
 Center     Atomic                   Forces (Hartrees/Bohr)
 Number     Number              X              Y              Z
 -------------------------------------------------------------------
      1        6          -0.000408151   -0.014914683   -0.008777553
      2        6          -0.017130867   -0.012351025    0.005983511
      3        8           0.034235478    0.024848576   -0.006730368
      4        8          -0.005312306    0.004570127    0.010900315
      5        1           0.001349097    0.001248620   -0.000830786
      6        1           0.000216447    0.000127478   -0.005295463
      7        1          -0.000755978    0.002306006   -0.001313783
      8        1          -0.012193719   -0.005835098    0.006064127
 -------------------------------------------------------------------
 Cartesian Forces:  Max     0.034235478 RMS     0.011261135

 GradGradGradGradGradGradGradGradGradGradGradGradGradGradGradGradGradGrad
 Berny optimization.
 FormGI is forming the generalized inverse of G from B-inverse, IUseBI=4.
 Internal  Forces:  Max     0.041681248 RMS     0.012777454
 Search for a local minimum.
 Step number   1 out of a maximum of   35
 All quantities printed in internal units (Hartrees-Bohrs-Radians)
 Mixed Optimization -- RFO/linear search
 Second derivative matrix not updated -- first step.
 ITU=  0
     Eigenvalues ---    0.00821   0.01181   0.02281   0.07444   0.07608
     Eigenvalues ---    0.16000   0.16000   0.16000   0.16000   0.25000
     Eigenvalues ---    0.25000   0.32815   0.34377   0.34480   0.34486
     Eigenvalues ---    0.51203   0.53878   0.94502
 RFO step:  Lambda=-1.07755681D-02 EMin= 8.20651965D-03
 Linear search not attempted -- first point.
 Iteration  1 RMS(Cart)=  0.09459716 RMS(Int)=  0.00324582
 Iteration  2 RMS(Cart)=  0.00339423 RMS(Int)=  0.00054286
 Iteration  3 RMS(Cart)=  0.00000417 RMS(Int)=  0.00054283
 Iteration  4 RMS(Cart)=  0.00000000 RMS(Int)=  0.00054283
 Variable       Old X    -DE/DX   Delta X   Delta X   Delta X     New X
                                 (Linear)    (Quad)   (Total)
    R1        2.82677   0.01661   0.00000   0.04902   0.04902   2.87580
    R2        2.06517   0.00079   0.00000   0.00223   0.00223   2.06741
    R3        2.06527  -0.00007   0.00000  -0.00019  -0.00019   2.06508
    R4        2.06699  -0.00169   0.00000  -0.00478  -0.00478   2.06221
    R5        2.30925  -0.04168   0.00000  -0.04361  -0.04361   2.26564
    R6        2.56143  -0.00143   0.00000  -0.00259  -0.00259   2.55883
    R7        1.85370  -0.01468   0.00000  -0.02808  -0.02808   1.82563
    A1        1.91687  -0.00097   0.00000  -0.01050  -0.01047   1.90640
    A2        1.91737   0.00748   0.00000   0.04684   0.04659   1.96396
    A3        1.90819   0.00066   0.00000   0.00560   0.00526   1.91345
    A4        1.93075  -0.00413   0.00000  -0.02753  -0.02744   1.90331
    A5        1.89594  -0.00123   0.00000  -0.01338  -0.01342   1.88252
    A6        1.89433  -0.00189   0.00000  -0.00131  -0.00190   1.89243
    A7        2.18250  -0.00435   0.00000  -0.01670  -0.01750   2.16500
    A8        1.93174   0.03142   0.00000   0.12044   0.11970   2.05144
    A9        2.16894  -0.02707   0.00000  -0.10387  -0.10455   2.06440
   A10        1.95363  -0.00368   0.00000  -0.02152  -0.02152   1.93211
    D1        1.57088  -0.00038   0.00000  -0.00216  -0.00252   1.56836
    D2       -1.56874   0.00126   0.00000   0.07001   0.07049  -1.49825
    D3       -2.58489  -0.00129   0.00000  -0.01286  -0.01355  -2.59844
    D4        0.55868   0.00035   0.00000   0.05931   0.05946   0.61814
    D5       -0.50784   0.00131   0.00000   0.01711   0.01690  -0.49093
    D6        2.63573   0.00294   0.00000   0.08928   0.08991   2.72564
    D7       -0.00198  -0.00049   0.00000  -0.02670  -0.02531  -0.02729
    D8        3.14157   0.00110   0.00000   0.04467   0.04328  -3.09833
         Item               Value     Threshold  Converged?
 Maximum Force            0.041681     0.000450     NO 
 RMS     Force            0.012777     0.000300     NO 
 Maximum Displacement     0.214175     0.001800     NO 
 RMS     Displacement     0.094274     0.001200     NO 
 Predicted change in Energy=-5.681898D-03
 GradGradGradGradGradGradGradGradGradGradGradGradGradGradGradGradGradGrad

                          Input orientation:                          
 ---------------------------------------------------------------------
 Center     Atomic      Atomic             Coordinates (Angstroms)
 Number     Number       Type             X           Y           Z
 ---------------------------------------------------------------------
      1          6           0       -1.013595    0.310974   -0.165370
      2          6           0       -1.602974    0.615717    1.204176
      3          8           0       -2.595556    0.101338    1.637324
      4          8           0       -1.012238    1.588709    1.937551
      5          1           0       -1.447455    0.991594   -0.903890
      6          1           0        0.074490    0.410483   -0.184461
      7          1           0       -1.271961   -0.708331   -0.457167
      8          1           0       -0.248212    1.951815    1.470936
 ---------------------------------------------------------------------
                    Distance matrix (angstroms):
                    1          2          3          4          5
     1  C    0.000000
     2  C    1.521806   0.000000
     3  O    2.407541   1.198925   0.000000
     4  O    2.460668   1.354076   2.193013   0.000000
     5  H    1.094025   2.146954   2.927193   2.935941   0.000000
     6  H    1.092793   2.187309   3.247094   2.659348   1.780895
     7  H    1.091275   2.150055   2.606599   3.328442   1.766381
     8  H    2.440424   1.921379   2.993656   0.966080   2.828429
                    6          7          8
     6  H    0.000000
     7  H    1.771735   0.000000
     8  H    2.284771   3.441223   0.000000
 Stoichiometry    C2H4O2
 Framework group  C1[X(C2H4O2)]
 Deg. of freedom    18
 Full point group                 C1      NOp   1
 Largest Abelian subgroup         C1      NOp   1
 Largest concise Abelian subgroup C1      NOp   1
                         Standard orientation:                         
 ---------------------------------------------------------------------
 Center     Atomic      Atomic             Coordinates (Angstroms)
 Number     Number       Type             X           Y           Z
 ---------------------------------------------------------------------
      1          6           0       -1.380563    0.126850    0.001347
      2          6           0        0.118712   -0.132737   -0.024783
      3          8           0        0.611380   -1.225332    0.005824
      4          8           0        0.940889    0.942783    0.003542
      5          1           0       -1.711024    0.225982    1.039547
      6          1           0       -1.658943    1.028801   -0.549275
      7          1           0       -1.907341   -0.721901   -0.437978
      8          1           0        0.430264    1.762830    0.013392
 ---------------------------------------------------------------------
 Rotational constants (GHZ):     11.2510533      9.3642418      5.2809807
 Standard basis: 6-31+G(d) (6D, 7F)
 There are    84 symmetry adapted cartesian basis functions of A   symmetry.
 There are    84 symmetry adapted basis functions of A   symmetry.
    84 basis functions,   144 primitive gaussians,    84 cartesian basis functions
    16 alpha electrons       16 beta electrons
       nuclear repulsion energy       120.8009288980 Hartrees.
 NAtoms=    8 NActive=    8 NUniq=    8 SFac= 1.00D+00 NAtFMM=   60 NAOKFM=F Big=F
 Integral buffers will be    131072 words long.
 Raffenetti 2 integral format.
 Two-electron integral symmetry is turned on.
 One-electron integrals computed using PRISM.
 NBasis=    84 RedAO= T EigKep=  2.10D-04  NBF=    84
 NBsUse=    84 1.00D-06 EigRej= -1.00D+00 NBFU=    84
 Initial guess from the checkpoint file:  "/srv/scratch/z5358697/gauss/Gau-3106737.chk"
 B after Tr=     0.000000    0.000000    0.000000
         Rot=    0.982871    0.002569   -0.002116    0.184262 Ang=  21.24 deg.
 ExpMin= 4.38D-02 ExpMax= 5.48D+03 ExpMxC= 8.25D+02 IAcc=2 IRadAn=         4 AccDes= 0.00D+00
 Harris functional with IExCor= 1009 and IRadAn=       4 diagonalized for initial guess.
 HarFok:  IExCor= 1009 AccDes= 0.00D+00 IRadAn=         4 IDoV= 1 UseB2=F ITyADJ=14
 ICtDFT=  3500011 ScaDFX=  1.000000  1.000000  1.000000  1.000000
 FoFCou: FMM=F IPFlag=           0 FMFlag=      100000 FMFlg1=           0
         NFxFlg=           0 DoJE=T BraDBF=F KetDBF=T FulRan=T
         wScrn=  0.000000 ICntrl=     500 IOpCl=  0 I1Cent=   200000004 NGrid=           0
         NMat0=    1 NMatS0=      1 NMatT0=    0 NMatD0=    1 NMtDS0=    0 NMtDT0=    0
 Petite list used in FoFCou.
 Keep R1 ints in memory in canonical form, NReq=7322173.
 Requested convergence on RMS density matrix=1.00D-08 within 128 cycles.
 Requested convergence on MAX density matrix=1.00D-06.
 Requested convergence on             energy=1.00D-06.
 No special actions if energy rises.
 SCF Done:  E(RM062X) =  -228.982249709     A.U. after   12 cycles
            NFock= 12  Conv=0.72D-08     -V/T= 2.0083
 Calling FoFJK, ICntrl=      2127 FMM=F ISym2X=0 I1Cent= 0 IOpClX= 0 NMat=1 NMatS=1 NMatT=0.
 ***** Axes restored to original set *****
 -------------------------------------------------------------------
 Center     Atomic                   Forces (Hartrees/Bohr)
 Number     Number              X              Y              Z
 -------------------------------------------------------------------
      1        6           0.001981299   -0.001369947    0.003842986
      2        6          -0.007888152    0.002204366   -0.000703732
      3        8          -0.000499722   -0.005722596   -0.001825572
      4        8           0.004113824   -0.000264606   -0.003837037
      5        1           0.000260057    0.001505866    0.000733372
      6        1           0.000696336    0.001402731   -0.000203201
      7        1          -0.001569012    0.000639153    0.002083828
      8        1           0.002905370    0.001605033   -0.000090644
 -------------------------------------------------------------------
 Cartesian Forces:  Max     0.007888152 RMS     0.002737093

 GradGradGradGradGradGradGradGradGradGradGradGradGradGradGradGradGradGrad
 Berny optimization.
 Using GEDIIS/GDIIS optimizer.
 FormGI is forming the generalized inverse of G from B-inverse, IUseBI=4.
 Internal  Forces:  Max     0.009360842 RMS     0.003117511
 Search for a local minimum.
 Step number   2 out of a maximum of   35
 All quantities printed in internal units (Hartrees-Bohrs-Radians)
 Mixed Optimization -- RFO/linear search
 Update second derivatives using D2CorX and points    1    2
 DE= -3.92D-03 DEPred=-5.68D-03 R= 6.90D-01
 TightC=F SS=  1.41D+00  RLast= 2.32D-01 DXNew= 5.0454D-01 6.9700D-01
 Trust test= 6.90D-01 RLast= 2.32D-01 DXMaxT set to 5.05D-01
 ITU=  1  0
 Use linear search instead of GDIIS.
     Eigenvalues ---    0.00823   0.01241   0.02285   0.07111   0.07565
     Eigenvalues ---    0.15673   0.16000   0.16000   0.16245   0.24787
     Eigenvalues ---    0.29550   0.34307   0.34445   0.34484   0.35702
     Eigenvalues ---    0.51623   0.54012   0.92272
 RFO step:  Lambda=-6.64373118D-04 EMin= 8.22945526D-03
 Quartic linear search produced a step of -0.20858.
 Iteration  1 RMS(Cart)=  0.02523910 RMS(Int)=  0.00134566
 Iteration  2 RMS(Cart)=  0.00135393 RMS(Int)=  0.00088864
 Iteration  3 RMS(Cart)=  0.00000050 RMS(Int)=  0.00088863
 Variable       Old X    -DE/DX   Delta X   Delta X   Delta X     New X
                                 (Linear)    (Quad)   (Total)
    R1        2.87580  -0.00573  -0.01023  -0.00007  -0.01029   2.86550
    R2        2.06741   0.00034  -0.00047   0.00142   0.00095   2.06836
    R3        2.06508   0.00081   0.00004   0.00181   0.00185   2.06693
    R4        2.06221  -0.00078   0.00100  -0.00313  -0.00213   2.06008
    R5        2.26564   0.00220   0.00910  -0.01040  -0.00130   2.26434
    R6        2.55883   0.00191   0.00054   0.00207   0.00261   2.56144
    R7        1.82563   0.00296   0.00586  -0.00329   0.00256   1.82819
    A1        1.90640  -0.00133   0.00218  -0.01151  -0.00936   1.89704
    A2        1.96396   0.00069  -0.00972   0.01680   0.00715   1.97111
    A3        1.91345  -0.00308  -0.00110  -0.01213  -0.01318   1.90027
    A4        1.90331  -0.00021   0.00572  -0.01159  -0.00588   1.89743
    A5        1.88252   0.00195   0.00280   0.00493   0.00766   1.89018
    A6        1.89243   0.00209   0.00040   0.01326   0.01380   1.90623
    A7        2.16500  -0.00121   0.00365  -0.00620  -0.00504   2.15996
    A8        2.05144  -0.00803  -0.02497   0.01080  -0.01668   2.03476
    A9        2.06440   0.00936   0.02181   0.00310   0.02238   2.08677
   A10        1.93211   0.00258   0.00449   0.00671   0.01120   1.94331
    D1        1.56836   0.00153   0.00053   0.09009   0.09043   1.65879
    D2       -1.49825  -0.00078  -0.01470  -0.03296  -0.04743  -1.54568
    D3       -2.59844   0.00079   0.00283   0.07846   0.08114  -2.51729
    D4        0.61814  -0.00152  -0.01240  -0.04458  -0.05672   0.56143
    D5       -0.49093   0.00176  -0.00353   0.09798   0.09416  -0.39677
    D6        2.72564  -0.00055  -0.01875  -0.02507  -0.04370   2.68195
    D7       -0.02729   0.00038   0.00528   0.04312   0.04891   0.02162
    D8       -3.09833  -0.00138  -0.00903  -0.07220  -0.08174   3.10311
         Item               Value     Threshold  Converged?
 Maximum Force            0.009361     0.000450     NO 
 RMS     Force            0.003118     0.000300     NO 
 Maximum Displacement     0.061996     0.001800     NO 
 RMS     Displacement     0.025537     0.001200     NO 
 Predicted change in Energy=-5.908009D-04
 GradGradGradGradGradGradGradGradGradGradGradGradGradGradGradGradGradGrad

                          Input orientation:                          
 ---------------------------------------------------------------------
 Center     Atomic      Atomic             Coordinates (Angstroms)
 Number     Number       Type             X           Y           Z
 ---------------------------------------------------------------------
      1          6           0       -1.016463    0.316941   -0.161904
      2          6           0       -1.631548    0.639838    1.185965
      3          8           0       -2.583039    0.068531    1.637681
      4          8           0       -1.003929    1.584294    1.928502
      5          1           0       -1.438041    0.994317   -0.911186
      6          1           0        0.072455    0.419609   -0.169115
      7          1           0       -1.282444   -0.704259   -0.435445
      8          1           0       -0.234490    1.943030    1.464601
 ---------------------------------------------------------------------
                    Distance matrix (angstroms):
                    1          2          3          4          5
     1  C    0.000000
     2  C    1.516359   0.000000
     3  O    2.398828   1.198238   0.000000
     4  O    2.444614   1.355457   2.208100   0.000000
     5  H    1.094527   2.135683   2.943607   2.932635   0.000000
     6  H    1.093771   2.188234   3.231009   2.629656   1.778358
     7  H    1.090146   2.134816   2.566438   3.302013   1.770791
     8  H    2.429232   1.930731   3.009882   0.967436   2.827181
                    6          7          8
     6  H    0.000000
     7  H    1.780382   0.000000
     8  H    2.254784   3.422940   0.000000
 Stoichiometry    C2H4O2
 Framework group  C1[X(C2H4O2)]
 Deg. of freedom    18
 Full point group                 C1      NOp   1
 Largest Abelian subgroup         C1      NOp   1
 Largest concise Abelian subgroup C1      NOp   1
                         Standard orientation:                         
 ---------------------------------------------------------------------
 Center     Atomic      Atomic             Coordinates (Angstroms)
 Number     Number       Type             X           Y           Z
 ---------------------------------------------------------------------
      1          6           0       -1.370491    0.124266   -0.005419
      2          6           0        0.123140   -0.136149    0.018969
      3          8           0        0.608576   -1.231340   -0.007168
      4          8           0        0.929238    0.953348   -0.002639
      5          1           0       -1.723339    0.239430    1.024254
      6          1           0       -1.637485    1.021977   -0.570364
      7          1           0       -1.871811   -0.738429   -0.444571
      8          1           0        0.414234    1.772257   -0.012171
 ---------------------------------------------------------------------
 Rotational constants (GHZ):     11.1016819      9.5230098      5.2968174
 Standard basis: 6-31+G(d) (6D, 7F)
 There are    84 symmetry adapted cartesian basis functions of A   symmetry.
 There are    84 symmetry adapted basis functions of A   symmetry.
    84 basis functions,   144 primitive gaussians,    84 cartesian basis functions
    16 alpha electrons       16 beta electrons
       nuclear repulsion energy       120.8964024607 Hartrees.
 NAtoms=    8 NActive=    8 NUniq=    8 SFac= 1.00D+00 NAtFMM=   60 NAOKFM=F Big=F
 Integral buffers will be    131072 words long.
 Raffenetti 2 integral format.
 Two-electron integral symmetry is turned on.
 One-electron integrals computed using PRISM.
 NBasis=    84 RedAO= T EigKep=  2.09D-04  NBF=    84
 NBsUse=    84 1.00D-06 EigRej= -1.00D+00 NBFU=    84
 Initial guess from the checkpoint file:  "/srv/scratch/z5358697/gauss/Gau-3106737.chk"
 B after Tr=     0.000000    0.000000    0.000000
         Rot=    0.999997    0.000975    0.001254   -0.001670 Ang=   0.26 deg.
 ExpMin= 4.38D-02 ExpMax= 5.48D+03 ExpMxC= 8.25D+02 IAcc=2 IRadAn=         4 AccDes= 0.00D+00
 Harris functional with IExCor= 1009 and IRadAn=       4 diagonalized for initial guess.
 HarFok:  IExCor= 1009 AccDes= 0.00D+00 IRadAn=         4 IDoV= 1 UseB2=F ITyADJ=14
 ICtDFT=  3500011 ScaDFX=  1.000000  1.000000  1.000000  1.000000
 FoFCou: FMM=F IPFlag=           0 FMFlag=      100000 FMFlg1=           0
         NFxFlg=           0 DoJE=T BraDBF=F KetDBF=T FulRan=T
         wScrn=  0.000000 ICntrl=     500 IOpCl=  0 I1Cent=   200000004 NGrid=           0
         NMat0=    1 NMatS0=      1 NMatT0=    0 NMatD0=    1 NMtDS0=    0 NMtDT0=    0
 Petite list used in FoFCou.
 Keep R1 ints in memory in canonical form, NReq=7322173.
 Requested convergence on RMS density matrix=1.00D-08 within 128 cycles.
 Requested convergence on MAX density matrix=1.00D-06.
 Requested convergence on             energy=1.00D-06.
 No special actions if energy rises.
 SCF Done:  E(RM062X) =  -228.982283209     A.U. after   12 cycles
            NFock= 12  Conv=0.38D-08     -V/T= 2.0083
 Calling FoFJK, ICntrl=      2127 FMM=F ISym2X=0 I1Cent= 0 IOpClX= 0 NMat=1 NMatS=1 NMatT=0.
 ***** Axes restored to original set *****
 -------------------------------------------------------------------
 Center     Atomic                   Forces (Hartrees/Bohr)
 Number     Number              X              Y              Z
 -------------------------------------------------------------------
      1        6          -0.002010534    0.002950310   -0.001152234
      2        6           0.008112823   -0.009262007    0.005246543
      3        8          -0.004456944    0.002041086   -0.001486731
      4        8          -0.001821306    0.002421698   -0.002099358
      5        1           0.000865119    0.000288420   -0.001060772
      6        1          -0.000285764    0.000593927    0.000598777
      7        1          -0.000781109    0.000341877    0.000619561
      8        1           0.000377716    0.000624690   -0.000665786
 -------------------------------------------------------------------
 Cartesian Forces:  Max     0.009262007 RMS     0.003148212

 GradGradGradGradGradGradGradGradGradGradGradGradGradGradGradGradGradGrad
 Berny optimization.
 Using GEDIIS/GDIIS optimizer.
 FormGI is forming the generalized inverse of G from B-inverse, IUseBI=4.
 Internal  Forces:  Max     0.002696567 RMS     0.001611719
 Search for a local minimum.
 Step number   3 out of a maximum of   35
 All quantities printed in internal units (Hartrees-Bohrs-Radians)
 Mixed Optimization -- RFO/linear search
 Update second derivatives using D2CorX and points    1    2    3
 DE= -3.35D-05 DEPred=-5.91D-04 R= 5.67D-02
 Trust test= 5.67D-02 RLast= 2.04D-01 DXMaxT set to 2.52D-01
 ITU= -1  1  0
 Use linear search instead of GDIIS.
     Eigenvalues ---    0.00777   0.02247   0.04379   0.06898   0.07713
     Eigenvalues ---    0.14199   0.16000   0.16142   0.16752   0.24694
     Eigenvalues ---    0.28686   0.33895   0.34334   0.34456   0.34535
     Eigenvalues ---    0.51645   0.53795   0.91279
 RFO step:  Lambda=-4.42956727D-04 EMin= 7.76772523D-03
 Quartic linear search produced a step of -0.48430.
 Iteration  1 RMS(Cart)=  0.02508077 RMS(Int)=  0.00059732
 Iteration  2 RMS(Cart)=  0.00074338 RMS(Int)=  0.00020526
 Iteration  3 RMS(Cart)=  0.00000019 RMS(Int)=  0.00020526
 Variable       Old X    -DE/DX   Delta X   Delta X   Delta X     New X
                                 (Linear)    (Quad)   (Total)
    R1        2.86550  -0.00092   0.00498  -0.00968  -0.00470   2.86081
    R2        2.06836   0.00057  -0.00046   0.00153   0.00107   2.06942
    R3        2.06693  -0.00024  -0.00090   0.00137   0.00047   2.06740
    R4        2.06008  -0.00028   0.00103  -0.00228  -0.00125   2.05883
    R5        2.26434   0.00200   0.00063  -0.00074  -0.00011   2.26423
    R6        2.56144  -0.00005  -0.00126   0.00226   0.00100   2.56244
    R7        1.82819   0.00087  -0.00124   0.00265   0.00141   1.82960
    A1        1.89704   0.00195   0.00454  -0.00366   0.00089   1.89793
    A2        1.97111  -0.00120  -0.00346   0.00395   0.00048   1.97159
    A3        1.90027  -0.00126   0.00638  -0.01461  -0.00821   1.89206
    A4        1.89743  -0.00056   0.00285  -0.00740  -0.00455   1.89288
    A5        1.89018  -0.00002  -0.00371   0.00713   0.00346   1.89364
    A6        1.90623   0.00113  -0.00668   0.01478   0.00809   1.91432
    A7        2.15996   0.00089   0.00244  -0.00304  -0.00071   2.15926
    A8        2.03476  -0.00220   0.00808  -0.01644  -0.00848   2.02628
    A9        2.08677   0.00156  -0.01084   0.02125   0.01028   2.09705
   A10        1.94331  -0.00014  -0.00542   0.00929   0.00386   1.94717
    D1        1.65879  -0.00192  -0.04380   0.02040  -0.02322   1.63557
    D2       -1.54568   0.00270   0.02297   0.05391   0.07666  -1.46902
    D3       -2.51729  -0.00205  -0.03930   0.01106  -0.02804  -2.54533
    D4        0.56143   0.00256   0.02747   0.04458   0.07184   0.63327
    D5       -0.39677  -0.00229  -0.04560   0.02214  -0.02325  -0.42002
    D6        2.68195   0.00233   0.02116   0.05565   0.07663   2.75858
    D7        0.02162  -0.00177  -0.02369  -0.02265  -0.04696  -0.02534
    D8        3.10311   0.00262   0.03959   0.00853   0.04873  -3.13134
         Item               Value     Threshold  Converged?
 Maximum Force            0.002697     0.000450     NO 
 RMS     Force            0.001612     0.000300     NO 
 Maximum Displacement     0.050513     0.001800     NO 
 RMS     Displacement     0.025220     0.001200     NO 
 Predicted change in Energy=-5.043571D-04
 GradGradGradGradGradGradGradGradGradGradGradGradGradGradGradGradGradGrad

                          Input orientation:                          
 ---------------------------------------------------------------------
 Center     Atomic      Atomic             Coordinates (Angstroms)
 Number     Number       Type             X           Y           Z
 ---------------------------------------------------------------------
      1          6           0       -1.011871    0.312667   -0.155999
      2          6           0       -1.613562    0.613107    1.200290
      3          8           0       -2.586251    0.063265    1.632941
      4          8           0       -1.011888    1.595630    1.915367
      5          1           0       -1.424948    1.015046   -0.887610
      6          1           0        0.078495    0.401174   -0.168309
      7          1           0       -1.301331   -0.697208   -0.444700
      8          1           0       -0.246144    1.958618    1.447120
 ---------------------------------------------------------------------
                    Distance matrix (angstroms):
                    1          2          3          4          5
     1  C    0.000000
     2  C    1.513874   0.000000
     3  O    2.396076   1.198181   0.000000
     4  O    2.436505   1.355986   2.215068   0.000000
     5  H    1.095091   2.134586   2.933887   2.892124   0.000000
     6  H    1.094022   2.186558   3.234124   2.637683   1.776113
     7  H    1.089487   2.126124   2.558502   3.303150   1.772926
     8  H    2.421876   1.934207   3.017117   0.968184   2.780445
                    6          7          8
     6  H    0.000000
     7  H    1.785148   0.000000
     8  H    2.267296   3.427217   0.000000
 Stoichiometry    C2H4O2
 Framework group  C1[X(C2H4O2)]
 Deg. of freedom    18
 Full point group                 C1      NOp   1
 Largest Abelian subgroup         C1      NOp   1
 Largest concise Abelian subgroup C1      NOp   1
                         Standard orientation:                         
 ---------------------------------------------------------------------
 Center     Atomic      Atomic             Coordinates (Angstroms)
 Number     Number       Type             X           Y           Z
 ---------------------------------------------------------------------
      1          6           0       -1.366592    0.116022   -0.001888
      2          6           0        0.125880   -0.137391   -0.013039
      3          8           0        0.614913   -1.231123    0.002286
      4          8           0        0.917910    0.963124    0.002914
      5          1           0       -1.691249    0.260519    1.033942
      6          1           0       -1.654043    0.998439   -0.581195
      7          1           0       -1.868076   -0.764713   -0.401641
      8          1           0        0.395059    1.777968   -0.003140
 ---------------------------------------------------------------------
 Rotational constants (GHZ):     11.0316989      9.5995783      5.3034669
 Standard basis: 6-31+G(d) (6D, 7F)
 There are    84 symmetry adapted cartesian basis functions of A   symmetry.
 There are    84 symmetry adapted basis functions of A   symmetry.
    84 basis functions,   144 primitive gaussians,    84 cartesian basis functions
    16 alpha electrons       16 beta electrons
       nuclear repulsion energy       120.9353980343 Hartrees.
 NAtoms=    8 NActive=    8 NUniq=    8 SFac= 1.00D+00 NAtFMM=   60 NAOKFM=F Big=F
 Integral buffers will be    131072 words long.
 Raffenetti 2 integral format.
 Two-electron integral symmetry is turned on.
 One-electron integrals computed using PRISM.
 NBasis=    84 RedAO= T EigKep=  2.08D-04  NBF=    84
 NBsUse=    84 1.00D-06 EigRej= -1.00D+00 NBFU=    84
 Initial guess from the checkpoint file:  "/srv/scratch/z5358697/gauss/Gau-3106737.chk"
 B after Tr=     0.000000    0.000000    0.000000
         Rot=    0.999991    0.001786   -0.001280   -0.003538 Ang=   0.48 deg.
 ExpMin= 4.38D-02 ExpMax= 5.48D+03 ExpMxC= 8.25D+02 IAcc=2 IRadAn=         4 AccDes= 0.00D+00
 Harris functional with IExCor= 1009 and IRadAn=       4 diagonalized for initial guess.
 HarFok:  IExCor= 1009 AccDes= 0.00D+00 IRadAn=         4 IDoV= 1 UseB2=F ITyADJ=14
 ICtDFT=  3500011 ScaDFX=  1.000000  1.000000  1.000000  1.000000
 FoFCou: FMM=F IPFlag=           0 FMFlag=      100000 FMFlg1=           0
         NFxFlg=           0 DoJE=T BraDBF=F KetDBF=T FulRan=T
         wScrn=  0.000000 ICntrl=     500 IOpCl=  0 I1Cent=   200000004 NGrid=           0
         NMat0=    1 NMatS0=      1 NMatT0=    0 NMatD0=    1 NMtDS0=    0 NMtDT0=    0
 Petite list used in FoFCou.
 Keep R1 ints in memory in canonical form, NReq=7322173.
 Requested convergence on RMS density matrix=1.00D-08 within 128 cycles.
 Requested convergence on MAX density matrix=1.00D-06.
 Requested convergence on             energy=1.00D-06.
 No special actions if energy rises.
 SCF Done:  E(RM062X) =  -228.982754665     A.U. after   11 cycles
            NFock= 11  Conv=0.70D-08     -V/T= 2.0083
 Calling FoFJK, ICntrl=      2127 FMM=F ISym2X=0 I1Cent= 0 IOpClX= 0 NMat=1 NMatS=1 NMatT=0.
 ***** Axes restored to original set *****
 -------------------------------------------------------------------
 Center     Atomic                   Forces (Hartrees/Bohr)
 Number     Number              X              Y              Z
 -------------------------------------------------------------------
      1        6           0.000239421   -0.000129500   -0.000232244
      2        6           0.001565357    0.001292422   -0.001548287
      3        8          -0.000610014   -0.000372767    0.001785603
      4        8          -0.001170635   -0.000102975    0.000702293
      5        1           0.000214149    0.000164890   -0.000110304
      6        1          -0.000259182   -0.000195205    0.000453173
      7        1           0.000096747   -0.000086345   -0.000640752
      8        1          -0.000075843   -0.000570519   -0.000409483
 -------------------------------------------------------------------
 Cartesian Forces:  Max     0.001785603 RMS     0.000751159

 GradGradGradGradGradGradGradGradGradGradGradGradGradGradGradGradGradGrad
 Berny optimization.
 Using GEDIIS/GDIIS optimizer.
 FormGI is forming the generalized inverse of G from B-inverse, IUseBI=4.
 Internal  Forces:  Max     0.001459257 RMS     0.000663500
 Search for a local minimum.
 Step number   4 out of a maximum of   35
 All quantities printed in internal units (Hartrees-Bohrs-Radians)
 Mixed Optimization -- En-DIIS/RFO-DIIS
 Update second derivatives using D2CorX and points    1    2    3    4
 DE= -4.71D-04 DEPred=-5.04D-04 R= 9.35D-01
 TightC=F SS=  1.41D+00  RLast= 1.54D-01 DXNew= 4.2426D-01 4.6228D-01
 Trust test= 9.35D-01 RLast= 1.54D-01 DXMaxT set to 4.24D-01
 ITU=  1 -1  1  0
 Use linear search instead of GDIIS.
     Eigenvalues ---    0.00622   0.02229   0.04775   0.06843   0.07745
     Eigenvalues ---    0.15319   0.16021   0.16555   0.16653   0.24908
     Eigenvalues ---    0.29975   0.34237   0.34399   0.34454   0.36445
     Eigenvalues ---    0.51528   0.54551   0.89594
 RFO step:  Lambda=-6.97750623D-05 EMin= 6.22198557D-03
 Quartic linear search produced a step of -0.04805.
 Iteration  1 RMS(Cart)=  0.01545773 RMS(Int)=  0.00011864
 Iteration  2 RMS(Cart)=  0.00012171 RMS(Int)=  0.00002354
 Iteration  3 RMS(Cart)=  0.00000001 RMS(Int)=  0.00002354
 Variable       Old X    -DE/DX   Delta X   Delta X   Delta X     New X
                                 (Linear)    (Quad)   (Total)
    R1        2.86081   0.00062   0.00023   0.00009   0.00031   2.86112
    R2        2.06942   0.00010  -0.00005   0.00054   0.00048   2.06991
    R3        2.06740  -0.00029  -0.00002  -0.00061  -0.00064   2.06677
    R4        2.05883   0.00023   0.00006   0.00029   0.00035   2.05918
    R5        2.26423   0.00130   0.00001   0.00144   0.00144   2.26568
    R6        2.56244  -0.00088  -0.00005  -0.00116  -0.00121   2.56123
    R7        1.82960  -0.00005  -0.00007   0.00046   0.00039   1.83000
    A1        1.89793   0.00016  -0.00004   0.00104   0.00099   1.89892
    A2        1.97159  -0.00079  -0.00002  -0.00502  -0.00504   1.96655
    A3        1.89206   0.00096   0.00039   0.00359   0.00399   1.89604
    A4        1.89288   0.00012   0.00022  -0.00128  -0.00107   1.89181
    A5        1.89364  -0.00029  -0.00017   0.00058   0.00040   1.89405
    A6        1.91432  -0.00015  -0.00039   0.00126   0.00088   1.91519
    A7        2.15926   0.00142   0.00003   0.00484   0.00495   2.16421
    A8        2.02628   0.00005   0.00041  -0.00306  -0.00259   2.02370
    A9        2.09705  -0.00146  -0.00049  -0.00184  -0.00226   2.09479
   A10        1.94717  -0.00127  -0.00019  -0.00588  -0.00606   1.94111
    D1        1.63557   0.00051   0.00112   0.03177   0.03288   1.66846
    D2       -1.46902   0.00028  -0.00368   0.03347   0.02979  -1.43923
    D3       -2.54533   0.00027   0.00135   0.02765   0.02900  -2.51633
    D4        0.63327   0.00004  -0.00345   0.02935   0.02590   0.65917
    D5       -0.42002   0.00023   0.00112   0.02850   0.02961  -0.39041
    D6        2.75858   0.00001  -0.00368   0.03020   0.02651   2.78509
    D7       -0.02534   0.00000   0.00226  -0.00664  -0.00438  -0.02972
    D8       -3.13134  -0.00028  -0.00234  -0.00516  -0.00751  -3.13885
         Item               Value     Threshold  Converged?
 Maximum Force            0.001459     0.000450     NO 
 RMS     Force            0.000664     0.000300     NO 
 Maximum Displacement     0.028876     0.001800     NO 
 RMS     Displacement     0.015451     0.001200     NO 
 Predicted change in Energy=-3.641418D-05
 GradGradGradGradGradGradGradGradGradGradGradGradGradGradGradGradGradGrad

                          Input orientation:                          
 ---------------------------------------------------------------------
 Center     Atomic      Atomic             Coordinates (Angstroms)
 Number     Number       Type             X           Y           Z
 ---------------------------------------------------------------------
      1          6           0       -1.011657    0.311984   -0.154979
      2          6           0       -1.613110    0.610528    1.202019
      3          8           0       -2.577789    0.053248    1.645081
      4          8           0       -1.017352    1.600972    1.909870
      5          1           0       -1.409668    1.027446   -0.882639
      6          1           0        0.079432    0.387215   -0.158342
      7          1           0       -1.312193   -0.691244   -0.455965
      8          1           0       -0.255163    1.962152    1.434055
 ---------------------------------------------------------------------
                    Distance matrix (angstroms):
                    1          2          3          4          5
     1  C    0.000000
     2  C    1.514041   0.000000
     3  O    2.399986   1.198945   0.000000
     4  O    2.434158   1.355345   2.213713   0.000000
     5  H    1.095348   2.135653   2.950075   2.877665   0.000000
     6  H    1.093685   2.182923   3.228730   2.636977   1.775365
     7  H    1.089671   2.129336   2.563278   3.307319   1.773541
     8  H    2.412543   1.929960   3.013807   0.968392   2.752023
                    6          7          8
     6  H    0.000000
     7  H    1.785574   0.000000
     8  H    2.264533   3.424908   0.000000
 Stoichiometry    C2H4O2
 Framework group  C1[X(C2H4O2)]
 Deg. of freedom    18
 Full point group                 C1      NOp   1
 Largest Abelian subgroup         C1      NOp   1
 Largest concise Abelian subgroup C1      NOp   1
                         Standard orientation:                         
 ---------------------------------------------------------------------
 Center     Atomic      Atomic             Coordinates (Angstroms)
 Number     Number       Type             X           Y           Z
 ---------------------------------------------------------------------
      1          6           0       -1.368587    0.094955   -0.001994
      2          6           0        0.127625   -0.136495   -0.011915
      3          8           0        0.638360   -1.221130    0.001745
      4          8           0        0.900112    0.977053    0.003385
      5          1           0       -1.692440    0.266308    1.030258
      6          1           0       -1.665735    0.957889   -0.604650
      7          1           0       -1.862153   -0.801960   -0.375249
      8          1           0        0.358324    1.779623   -0.007949
 ---------------------------------------------------------------------
 Rotational constants (GHZ):     11.0369668      9.5982744      5.3042235
 Standard basis: 6-31+G(d) (6D, 7F)
 There are    84 symmetry adapted cartesian basis functions of A   symmetry.
 There are    84 symmetry adapted basis functions of A   symmetry.
    84 basis functions,   144 primitive gaussians,    84 cartesian basis functions
    16 alpha electrons       16 beta electrons
       nuclear repulsion energy       120.9396142801 Hartrees.
 NAtoms=    8 NActive=    8 NUniq=    8 SFac= 1.00D+00 NAtFMM=   60 NAOKFM=F Big=F
 Integral buffers will be    131072 words long.
 Raffenetti 2 integral format.
 Two-electron integral symmetry is turned on.
 One-electron integrals computed using PRISM.
 NBasis=    84 RedAO= T EigKep=  2.07D-04  NBF=    84
 NBsUse=    84 1.00D-06 EigRej= -1.00D+00 NBFU=    84
 Initial guess from the checkpoint file:  "/srv/scratch/z5358697/gauss/Gau-3106737.chk"
 B after Tr=     0.000000    0.000000    0.000000
         Rot=    0.999964    0.001730   -0.000108   -0.008251 Ang=   0.97 deg.
 ExpMin= 4.38D-02 ExpMax= 5.48D+03 ExpMxC= 8.25D+02 IAcc=2 IRadAn=         4 AccDes= 0.00D+00
 Harris functional with IExCor= 1009 and IRadAn=       4 diagonalized for initial guess.
 HarFok:  IExCor= 1009 AccDes= 0.00D+00 IRadAn=         4 IDoV= 1 UseB2=F ITyADJ=14
 ICtDFT=  3500011 ScaDFX=  1.000000  1.000000  1.000000  1.000000
 FoFCou: FMM=F IPFlag=           0 FMFlag=      100000 FMFlg1=           0
         NFxFlg=           0 DoJE=T BraDBF=F KetDBF=T FulRan=T
         wScrn=  0.000000 ICntrl=     500 IOpCl=  0 I1Cent=   200000004 NGrid=           0
         NMat0=    1 NMatS0=      1 NMatT0=    0 NMatD0=    1 NMtDS0=    0 NMtDT0=    0
 Petite list used in FoFCou.
 Keep R1 ints in memory in canonical form, NReq=7322173.
 Requested convergence on RMS density matrix=1.00D-08 within 128 cycles.
 Requested convergence on MAX density matrix=1.00D-06.
 Requested convergence on             energy=1.00D-06.
 No special actions if energy rises.
 SCF Done:  E(RM062X) =  -228.982809699     A.U. after   10 cycles
            NFock= 10  Conv=0.39D-08     -V/T= 2.0083
 Calling FoFJK, ICntrl=      2127 FMM=F ISym2X=0 I1Cent= 0 IOpClX= 0 NMat=1 NMatS=1 NMatT=0.
 ***** Axes restored to original set *****
 -------------------------------------------------------------------
 Center     Atomic                   Forces (Hartrees/Bohr)
 Number     Number              X              Y              Z
 -------------------------------------------------------------------
      1        6          -0.000376847   -0.000081626   -0.000293535
      2        6           0.000120827    0.000108877   -0.000512076
      3        8           0.000279169   -0.000057468    0.000627426
      4        8          -0.000307898    0.000321781    0.000177618
      5        1           0.000233196    0.000099127   -0.000026447
      6        1           0.000037859   -0.000300967    0.000308544
      7        1           0.000114215    0.000054762   -0.000361758
      8        1          -0.000100520   -0.000144486    0.000080230
 -------------------------------------------------------------------
 Cartesian Forces:  Max     0.000627426 RMS     0.000263372

 GradGradGradGradGradGradGradGradGradGradGradGradGradGradGradGradGradGrad
 Berny optimization.
 Using GEDIIS/GDIIS optimizer.
 FormGI is forming the generalized inverse of G from B-inverse, IUseBI=4.
 Internal  Forces:  Max     0.000704917 RMS     0.000281819
 Search for a local minimum.
 Step number   5 out of a maximum of   35
 All quantities printed in internal units (Hartrees-Bohrs-Radians)
 Mixed Optimization -- En-DIIS/RFO-DIIS
 Swapping is turned off.
 Update second derivatives using D2CorX and points    1    2    3    4    5
 DE= -5.50D-05 DEPred=-3.64D-05 R= 1.51D+00
 TightC=F SS=  1.41D+00  RLast= 7.25D-02 DXNew= 7.1352D-01 2.1753D-01
 Trust test= 1.51D+00 RLast= 7.25D-02 DXMaxT set to 4.24D-01
 ITU=  1  1 -1  1  0
     Eigenvalues ---    0.00142   0.02236   0.04687   0.06910   0.07563
     Eigenvalues ---    0.14278   0.16076   0.16592   0.18615   0.27091
     Eigenvalues ---    0.29511   0.34261   0.34449   0.34548   0.35570
     Eigenvalues ---    0.51721   0.57600   0.94777
 En-DIIS/RFO-DIIS IScMMF=        0 using points:     5    4
 RFO step:  Lambda=-1.28651319D-05.
 DidBck=F Rises=F RFO-DIIS coefs:    3.13390   -2.13390
 Iteration  1 RMS(Cart)=  0.08725424 RMS(Int)=  0.00373574
 Iteration  2 RMS(Cart)=  0.00396463 RMS(Int)=  0.00004073
 Iteration  3 RMS(Cart)=  0.00000618 RMS(Int)=  0.00004043
 Iteration  4 RMS(Cart)=  0.00000000 RMS(Int)=  0.00004043
 Variable       Old X    -DE/DX   Delta X   Delta X   Delta X     New X
                                 (Linear)    (Quad)   (Total)
    R1        2.86112   0.00037   0.00067  -0.00123  -0.00056   2.86056
    R2        2.06991   0.00000   0.00103   0.00095   0.00199   2.07190
    R3        2.06677   0.00001  -0.00136   0.00096  -0.00040   2.06637
    R4        2.05918   0.00002   0.00074  -0.00133  -0.00059   2.05859
    R5        2.26568   0.00003   0.00308  -0.00134   0.00174   2.26741
    R6        2.56123   0.00009  -0.00259   0.00209  -0.00050   2.56074
    R7        1.83000  -0.00016   0.00084   0.00003   0.00086   1.83086
    A1        1.89892   0.00016   0.00212   0.00239   0.00443   1.90335
    A2        1.96655  -0.00048  -0.01076  -0.00818  -0.01894   1.94760
    A3        1.89604   0.00057   0.00851   0.00298   0.01147   1.90751
    A4        1.89181   0.00009  -0.00227  -0.00388  -0.00622   1.88559
    A5        1.89405  -0.00016   0.00086   0.00418   0.00494   1.89899
    A6        1.91519  -0.00018   0.00187   0.00292   0.00485   1.92004
    A7        2.16421   0.00048   0.01055   0.00331   0.01386   2.17807
    A8        2.02370   0.00023  -0.00552  -0.00500  -0.01052   2.01318
    A9        2.09479  -0.00070  -0.00483   0.00158  -0.00326   2.09153
   A10        1.94111  -0.00010  -0.01294   0.00405  -0.00889   1.93222
    D1        1.66846   0.00037   0.07017   0.10984   0.18003   1.84849
    D2       -1.43923   0.00028   0.06357   0.11335   0.17692  -1.26230
    D3       -2.51633   0.00029   0.06188   0.10138   0.16332  -2.35301
    D4        0.65917   0.00020   0.05527   0.10489   0.16021   0.81938
    D5       -0.39041   0.00015   0.06318   0.10181   0.16493  -0.22548
    D6        2.78509   0.00006   0.05658   0.10532   0.16183   2.94692
    D7       -0.02972  -0.00002  -0.00935  -0.01451  -0.02388  -0.05360
    D8       -3.13885  -0.00012  -0.01602  -0.01119  -0.02719   3.11715
         Item               Value     Threshold  Converged?
 Maximum Force            0.000705     0.000450     NO 
 RMS     Force            0.000282     0.000300     YES
 Maximum Displacement     0.176156     0.001800     NO 
 RMS     Displacement     0.087198     0.001200     NO 
 Predicted change in Energy=-1.265404D-04
 GradGradGradGradGradGradGradGradGradGradGradGradGradGradGradGradGradGrad

                          Input orientation:                          
 ---------------------------------------------------------------------
 Center     Atomic      Atomic             Coordinates (Angstroms)
 Number     Number       Type             X           Y           Z
 ---------------------------------------------------------------------
      1          6           0       -1.010526    0.305766   -0.150548
      2          6           0       -1.604783    0.592737    1.211778
      3          8           0       -2.523703   -0.006367    1.697917
      4          8           0       -1.049038    1.632558    1.879738
      5          1           0       -1.321137    1.091514   -0.849270
      6          1           0        0.082413    0.293997   -0.118388
      7          1           0       -1.383180   -0.652227   -0.511218
      8          1           0       -0.307546    2.004322    1.379091
 ---------------------------------------------------------------------
                    Distance matrix (angstroms):
                    1          2          3          4          5
     1  C    0.000000
     2  C    1.513745   0.000000
     3  O    2.409140   1.199864   0.000000
     4  O    2.425680   1.355083   2.212187   0.000000
     5  H    1.096400   2.139429   3.023190   2.795398   0.000000
     6  H    1.093476   2.169151   3.190772   2.657900   1.772054
     7  H    1.089360   2.137232   2.568697   3.323938   1.777291
     8  H    2.391457   1.924419   3.009298   0.968849   2.612695
                    6          7          8
     6  H    0.000000
     7  H    1.788188   0.000000
     8  H    2.306452   3.433294   0.000000
 Stoichiometry    C2H4O2
 Framework group  C1[X(C2H4O2)]
 Deg. of freedom    18
 Full point group                 C1      NOp   1
 Largest Abelian subgroup         C1      NOp   1
 Largest concise Abelian subgroup C1      NOp   1
                         Standard orientation:                         
 ---------------------------------------------------------------------
 Center     Atomic      Atomic             Coordinates (Angstroms)
 Number     Number       Type             X           Y           Z
 ---------------------------------------------------------------------
      1          6           0       -1.371149    0.036127   -0.001559
      2          6           0        0.132774   -0.135819   -0.010263
      3          8           0        0.701179   -1.192453    0.000345
      4          8           0        0.848312    1.014828    0.006044
      5          1           0       -1.687152    0.372977    0.992808
      6          1           0       -1.694876    0.783682   -0.730977
      7          1           0       -1.844164   -0.921787   -0.214543
      8          1           0        0.260526    1.784278   -0.027465
 ---------------------------------------------------------------------
 Rotational constants (GHZ):     11.0365095      9.6108329      5.3078071
 Standard basis: 6-31+G(d) (6D, 7F)
 There are    84 symmetry adapted cartesian basis functions of A   symmetry.
 There are    84 symmetry adapted basis functions of A   symmetry.
    84 basis functions,   144 primitive gaussians,    84 cartesian basis functions
    16 alpha electrons       16 beta electrons
       nuclear repulsion energy       120.9591636723 Hartrees.
 NAtoms=    8 NActive=    8 NUniq=    8 SFac= 1.00D+00 NAtFMM=   60 NAOKFM=F Big=F
 Integral buffers will be    131072 words long.
 Raffenetti 2 integral format.
 Two-electron integral symmetry is turned on.
 One-electron integrals computed using PRISM.
 NBasis=    84 RedAO= T EigKep=  2.03D-04  NBF=    84
 NBsUse=    84 1.00D-06 EigRej= -1.00D+00 NBFU=    84
 Initial guess from the checkpoint file:  "/srv/scratch/z5358697/gauss/Gau-3106737.chk"
 B after Tr=     0.000000    0.000000    0.000000
         Rot=    0.999694    0.010045   -0.000613   -0.022597 Ang=   2.83 deg.
 ExpMin= 4.38D-02 ExpMax= 5.48D+03 ExpMxC= 8.25D+02 IAcc=2 IRadAn=         4 AccDes= 0.00D+00
 Harris functional with IExCor= 1009 and IRadAn=       4 diagonalized for initial guess.
 HarFok:  IExCor= 1009 AccDes= 0.00D+00 IRadAn=         4 IDoV= 1 UseB2=F ITyADJ=14
 ICtDFT=  3500011 ScaDFX=  1.000000  1.000000  1.000000  1.000000
 FoFCou: FMM=F IPFlag=           0 FMFlag=      100000 FMFlg1=           0
         NFxFlg=           0 DoJE=T BraDBF=F KetDBF=T FulRan=T
         wScrn=  0.000000 ICntrl=     500 IOpCl=  0 I1Cent=   200000004 NGrid=           0
         NMat0=    1 NMatS0=      1 NMatT0=    0 NMatD0=    1 NMtDS0=    0 NMtDT0=    0
 Petite list used in FoFCou.
 Keep R1 ints in memory in canonical form, NReq=7322173.
 Requested convergence on RMS density matrix=1.00D-08 within 128 cycles.
 Requested convergence on MAX density matrix=1.00D-06.
 Requested convergence on             energy=1.00D-06.
 No special actions if energy rises.
 SCF Done:  E(RM062X) =  -228.982987933     A.U. after   11 cycles
            NFock= 11  Conv=0.37D-08     -V/T= 2.0083
 Calling FoFJK, ICntrl=      2127 FMM=F ISym2X=0 I1Cent= 0 IOpClX= 0 NMat=1 NMatS=1 NMatT=0.
 ***** Axes restored to original set *****
 -------------------------------------------------------------------
 Center     Atomic                   Forces (Hartrees/Bohr)
 Number     Number              X              Y              Z
 -------------------------------------------------------------------
      1        6          -0.001368343    0.001027984   -0.000491349
      2        6          -0.002240694   -0.001071431    0.000774041
      3        8           0.001543606    0.000286312   -0.001149831
      4        8           0.001223129    0.000627888   -0.000199198
      5        1           0.000213503   -0.000474443    0.000237193
      6        1           0.000561146   -0.000984483   -0.000040719
      7        1           0.000334151   -0.000042694    0.000176518
      8        1          -0.000266498    0.000630867    0.000693345
 -------------------------------------------------------------------
 Cartesian Forces:  Max     0.002240694 RMS     0.000874695

 GradGradGradGradGradGradGradGradGradGradGradGradGradGradGradGradGradGrad
 Berny optimization.
 Using GEDIIS/GDIIS optimizer.
 FormGI is forming the generalized inverse of G from B-inverse, IUseBI=4.
 Internal  Forces:  Max     0.001786529 RMS     0.000731644
 Search for a local minimum.
 Step number   6 out of a maximum of   35
 All quantities printed in internal units (Hartrees-Bohrs-Radians)
 Mixed Optimization -- En-DIIS/RFO-DIIS
 Swapping is turned off.
 Update second derivatives using D2CorX and points    3    4    5    6
 DE= -1.78D-04 DEPred=-1.27D-04 R= 1.41D+00
 TightC=F SS=  1.41D+00  RLast= 4.14D-01 DXNew= 7.1352D-01 1.2433D+00
 Trust test= 1.41D+00 RLast= 4.14D-01 DXMaxT set to 7.14D-01
 ITU=  1  1  1 -1  1  0
     Eigenvalues ---    0.00071   0.02318   0.04842   0.06998   0.07594
     Eigenvalues ---    0.14505   0.16124   0.16555   0.19268   0.29234
     Eigenvalues ---    0.30680   0.34275   0.34451   0.34701   0.37024
     Eigenvalues ---    0.51783   0.61223   1.02591
 En-DIIS/RFO-DIIS IScMMF=        0 using points:     6    5    4
 RFO step:  Lambda=-2.12533836D-05.
 DidBck=F Rises=F RFO-DIIS coefs:    2.03274   -2.46590    1.43316
 Iteration  1 RMS(Cart)=  0.09991509 RMS(Int)=  0.00484514
 Iteration  2 RMS(Cart)=  0.00522385 RMS(Int)=  0.00003802
 Iteration  3 RMS(Cart)=  0.00001253 RMS(Int)=  0.00003676
 Iteration  4 RMS(Cart)=  0.00000000 RMS(Int)=  0.00003676
 Variable       Old X    -DE/DX   Delta X   Delta X   Delta X     New X
                                 (Linear)    (Quad)   (Total)
    R1        2.86056   0.00011  -0.00103   0.00039  -0.00064   2.85992
    R2        2.07190  -0.00055   0.00136  -0.00161  -0.00025   2.07165
    R3        2.06637   0.00057   0.00050   0.00100   0.00150   2.06787
    R4        2.05859  -0.00014  -0.00110   0.00027  -0.00083   2.05776
    R5        2.26741  -0.00179  -0.00028   0.00032   0.00004   2.26745
    R6        2.56074   0.00160   0.00123   0.00123   0.00246   2.56320
    R7        1.83086  -0.00034   0.00033   0.00010   0.00043   1.83128
    A1        1.90335   0.00037   0.00315   0.00824   0.01134   1.91470
    A2        1.94760   0.00028  -0.01234  -0.00443  -0.01678   1.93083
    A3        1.90751  -0.00021   0.00613  -0.00082   0.00524   1.91275
    A4        1.88559   0.00014  -0.00490   0.00320  -0.00168   1.88391
    A5        1.89899   0.00003   0.00452   0.00180   0.00620   1.90519
    A6        1.92004  -0.00059   0.00375  -0.00765  -0.00393   1.91611
    A7        2.17807  -0.00128   0.00723   0.00095   0.00818   2.18625
    A8        2.01318   0.00096  -0.00716   0.00022  -0.00694   2.00624
    A9        2.09153   0.00032  -0.00012  -0.00096  -0.00108   2.09046
   A10        1.93222   0.00164  -0.00049   0.00125   0.00077   1.93298
    D1        1.84849   0.00011   0.13880   0.06176   0.20061   2.04909
    D2       -1.26230  -0.00008   0.14002   0.05367   0.19375  -1.06855
    D3       -2.35301   0.00069   0.12711   0.06832   0.19540  -2.15761
    D4        0.81938   0.00050   0.12833   0.06023   0.18855   1.00793
    D5       -0.22548  -0.00001   0.12790   0.05519   0.18306  -0.04242
    D6        2.94692  -0.00021   0.12913   0.04711   0.17620   3.12312
    D7       -0.05360   0.00030  -0.01838   0.01313  -0.00524  -0.05885
    D8        3.11715   0.00015  -0.01732   0.00544  -0.01188   3.10527
         Item               Value     Threshold  Converged?
 Maximum Force            0.001787     0.000450     NO 
 RMS     Force            0.000732     0.000300     NO 
 Maximum Displacement     0.224654     0.001800     NO 
 RMS     Displacement     0.099931     0.001200     NO 
 Predicted change in Energy=-7.092486D-05
 GradGradGradGradGradGradGradGradGradGradGradGradGradGradGradGradGradGrad

                          Input orientation:                          
 ---------------------------------------------------------------------
 Center     Atomic      Atomic             Coordinates (Angstroms)
 Number     Number       Type             X           Y           Z
 ---------------------------------------------------------------------
      1          6           0       -1.009627    0.301853   -0.148036
      2          6           0       -1.591791    0.574799    1.221995
      3          8           0       -2.454655   -0.071111    1.749243
      4          8           0       -1.083892    1.662705    1.853088
      5          1           0       -1.214046    1.149788   -0.812131
      6          1           0        0.075593    0.175115   -0.087504
      7          1           0       -1.462901   -0.596113   -0.565104
      8          1           0       -0.376179    2.065265    1.327549
 ---------------------------------------------------------------------
                    Distance matrix (angstroms):
                    1          2          3          4          5
     1  C    0.000000
     2  C    1.513407   0.000000
     3  O    2.413892   1.199885   0.000000
     4  O    2.421142   1.356385   2.212667   0.000000
     5  H    1.096268   2.147318   3.096827   2.717244   0.000000
     6  H    1.094271   2.157477   3.136307   2.706146   1.771508
     7  H    1.088920   2.140414   2.572043   3.330700   1.780764
     8  H    2.385000   1.926226   3.010315   0.969074   2.473529
                    6          7          8
     6  H    0.000000
     7  H    1.786017   0.000000
     8  H    2.403984   3.441807   0.000000
 Stoichiometry    C2H4O2
 Framework group  C1[X(C2H4O2)]
 Deg. of freedom    18
 Full point group                 C1      NOp   1
 Largest Abelian subgroup         C1      NOp   1
 Largest concise Abelian subgroup C1      NOp   1
                         Standard orientation:                         
 ---------------------------------------------------------------------
 Center     Atomic      Atomic             Coordinates (Angstroms)
 Number     Number       Type             X           Y           Z
 ---------------------------------------------------------------------
      1          6           0       -1.371283    0.006317    0.000313
      2          6           0        0.135347   -0.136538   -0.007217
      3          8           0        0.732547   -1.177225   -0.000500
      4          8           0        0.821081    1.033658    0.006629
      5          1           0       -1.688999    0.523128    0.913421
      6          1           0       -1.706634    0.598805   -0.856382
      7          1           0       -1.831742   -0.979969   -0.030744
      8          1           0        0.213969    1.787898   -0.033898
 ---------------------------------------------------------------------
 Rotational constants (GHZ):     11.0277813      9.6145767      5.3072092
 Standard basis: 6-31+G(d) (6D, 7F)
 There are    84 symmetry adapted cartesian basis functions of A   symmetry.
 There are    84 symmetry adapted basis functions of A   symmetry.
    84 basis functions,   144 primitive gaussians,    84 cartesian basis functions
    16 alpha electrons       16 beta electrons
       nuclear repulsion energy       120.9411473862 Hartrees.
 NAtoms=    8 NActive=    8 NUniq=    8 SFac= 1.00D+00 NAtFMM=   60 NAOKFM=F Big=F
 Integral buffers will be    131072 words long.
 Raffenetti 2 integral format.
 Two-electron integral symmetry is turned on.
 One-electron integrals computed using PRISM.
 NBasis=    84 RedAO= T EigKep=  2.00D-04  NBF=    84
 NBsUse=    84 1.00D-06 EigRej= -1.00D+00 NBFU=    84
 Initial guess from the checkpoint file:  "/srv/scratch/z5358697/gauss/Gau-3106737.chk"
 B after Tr=     0.000000    0.000000    0.000000
         Rot=    0.999869    0.011440   -0.000187   -0.011442 Ang=   1.85 deg.
 ExpMin= 4.38D-02 ExpMax= 5.48D+03 ExpMxC= 8.25D+02 IAcc=2 IRadAn=         4 AccDes= 0.00D+00
 Harris functional with IExCor= 1009 and IRadAn=       4 diagonalized for initial guess.
 HarFok:  IExCor= 1009 AccDes= 0.00D+00 IRadAn=         4 IDoV= 1 UseB2=F ITyADJ=14
 ICtDFT=  3500011 ScaDFX=  1.000000  1.000000  1.000000  1.000000
 FoFCou: FMM=F IPFlag=           0 FMFlag=      100000 FMFlg1=           0
         NFxFlg=           0 DoJE=T BraDBF=F KetDBF=T FulRan=T
         wScrn=  0.000000 ICntrl=     500 IOpCl=  0 I1Cent=   200000004 NGrid=           0
         NMat0=    1 NMatS0=      1 NMatT0=    0 NMatD0=    1 NMtDS0=    0 NMtDT0=    0
 Petite list used in FoFCou.
 Keep R1 ints in memory in canonical form, NReq=7322173.
 Requested convergence on RMS density matrix=1.00D-08 within 128 cycles.
 Requested convergence on MAX density matrix=1.00D-06.
 Requested convergence on             energy=1.00D-06.
 No special actions if energy rises.
 SCF Done:  E(RM062X) =  -228.983083743     A.U. after   12 cycles
            NFock= 12  Conv=0.48D-08     -V/T= 2.0083
 Calling FoFJK, ICntrl=      2127 FMM=F ISym2X=0 I1Cent= 0 IOpClX= 0 NMat=1 NMatS=1 NMatT=0.
 ***** Axes restored to original set *****
 -------------------------------------------------------------------
 Center     Atomic                   Forces (Hartrees/Bohr)
 Number     Number              X              Y              Z
 -------------------------------------------------------------------
      1        6          -0.000724243    0.000959225   -0.000463793
      2        6          -0.002787146    0.000082834    0.000930674
      3        8           0.001904961    0.000275543   -0.001738975
      4        8           0.001512486   -0.000017641    0.000100513
      5        1          -0.000057254   -0.000630005    0.000211890
      6        1           0.000362053   -0.000868251   -0.000022107
      7        1           0.000273364   -0.000413179    0.000381730
      8        1          -0.000484220    0.000611474    0.000600070
 -------------------------------------------------------------------
 Cartesian Forces:  Max     0.002787146 RMS     0.000957817

 GradGradGradGradGradGradGradGradGradGradGradGradGradGradGradGradGradGrad
 Berny optimization.
 Using GEDIIS/GDIIS optimizer.
 FormGI is forming the generalized inverse of G from B-inverse, IUseBI=4.
 Internal  Forces:  Max     0.002280350 RMS     0.000877085
 Search for a local minimum.
 Step number   7 out of a maximum of   35
 All quantities printed in internal units (Hartrees-Bohrs-Radians)
 Mixed Optimization -- En-DIIS/RFO-DIIS
 Swapping is turned off.
 Update second derivatives using D2CorX and points    6    7
 DE= -9.58D-05 DEPred=-7.09D-05 R= 1.35D+00
 TightC=F SS=  1.41D+00  RLast= 4.66D-01 DXNew= 1.2000D+00 1.3970D+00
 Trust test= 1.35D+00 RLast= 4.66D-01 DXMaxT set to 1.20D+00
 ITU=  1  1  1  1 -1  1  0
     Eigenvalues ---    0.00095   0.02260   0.04954   0.06619   0.07492
     Eigenvalues ---    0.14633   0.16092   0.16520   0.18798   0.28521
     Eigenvalues ---    0.29768   0.34221   0.34416   0.34453   0.36007
     Eigenvalues ---    0.51711   0.57840   0.96382
 En-DIIS/RFO-DIIS IScMMF=        0 using points:     7    6    5    4
 RFO step:  Lambda=-3.26476458D-05.
 DidBck=F Rises=F RFO-DIIS coefs:    1.44368   -2.29776    3.68638   -1.83230
 Iteration  1 RMS(Cart)=  0.08494017 RMS(Int)=  0.00354216
 Iteration  2 RMS(Cart)=  0.00378231 RMS(Int)=  0.00007823
 Iteration  3 RMS(Cart)=  0.00000610 RMS(Int)=  0.00007810
 Iteration  4 RMS(Cart)=  0.00000000 RMS(Int)=  0.00007810
 Variable       Old X    -DE/DX   Delta X   Delta X   Delta X     New X
                                 (Linear)    (Quad)   (Total)
    R1        2.85992   0.00002   0.00133   0.00005   0.00138   2.86130
    R2        2.07165  -0.00060  -0.00291   0.00079  -0.00211   2.06953
    R3        2.06787   0.00046   0.00023  -0.00042  -0.00018   2.06769
    R4        2.05776   0.00008   0.00136   0.00025   0.00160   2.05937
    R5        2.26745  -0.00228  -0.00056  -0.00135  -0.00191   2.26555
    R6        2.56320   0.00118  -0.00021  -0.00020  -0.00041   2.56279
    R7        1.83128  -0.00043  -0.00069  -0.00055  -0.00124   1.83004
    A1        1.91470   0.00040  -0.00136   0.00145   0.00020   1.91490
    A2        1.93083   0.00024   0.01844  -0.00579   0.01261   1.94344
    A3        1.91275  -0.00057  -0.01163   0.00065  -0.01088   1.90187
    A4        1.88391   0.00024   0.00884  -0.00040   0.00842   1.89232
    A5        1.90519   0.00016  -0.00566   0.00168  -0.00373   1.90146
    A6        1.91611  -0.00046  -0.00912   0.00248  -0.00668   1.90943
    A7        2.18625  -0.00209  -0.01301  -0.00243  -0.01547   2.17078
    A8        2.00624   0.00157   0.01169   0.00240   0.01406   2.02029
    A9        2.09046   0.00053   0.00141   0.00020   0.00158   2.09204
   A10        1.93298   0.00145   0.00571   0.00053   0.00624   1.93922
    D1        2.04909   0.00010  -0.18453   0.01661  -0.16805   1.88104
    D2       -1.06855  -0.00055  -0.18748   0.00843  -0.17915  -1.24770
    D3       -2.15761   0.00080  -0.16297   0.01345  -0.14954  -2.30715
    D4        1.00793   0.00016  -0.16593   0.00528  -0.16064   0.84729
    D5       -0.04242   0.00001  -0.17033   0.01325  -0.15698  -0.19940
    D6        3.12312  -0.00064  -0.17328   0.00507  -0.16808   2.95504
[...]
                      4                      5                      6
                      A                      A                      A
 Frequencies --    603.4678               604.8719               889.1994
 Red. masses --      2.2886                 5.5668                 5.5036
 Frc consts  --      0.4910                 1.2000                 2.5638
 IR Inten    --      0.4592                 8.5155                27.9788
  Atom  AN      X      Y      Z        X      Y      Z        X      Y      Z
     1   6     0.01   0.00   0.02    -0.33   0.06   0.00     0.35  -0.03   0.00
     2   6     0.01   0.00   0.30    -0.16  -0.03   0.03    -0.18   0.11   0.00
     3   8    -0.01  -0.01  -0.11     0.29   0.21  -0.01    -0.06   0.24   0.00
     4   8     0.00   0.01  -0.06     0.11  -0.25  -0.01    -0.16  -0.29   0.00
     5   1    -0.49   0.00  -0.17    -0.32   0.10  -0.02     0.39  -0.04   0.01
     6   1     0.52  -0.01  -0.17    -0.21   0.10  -0.01     0.39  -0.04  -0.01
     7   1     0.02  -0.01  -0.33    -0.46   0.12  -0.04     0.51  -0.09   0.00
     8   1    -0.02   0.00  -0.46     0.51   0.04  -0.05     0.28   0.02   0.00
                      7                      8                      9
                      A                      A                      A
 Frequencies --   1006.3243              1073.7330              1224.0899
 Red. masses --      1.4675                 1.7671                 1.4832
 Frc consts  --      0.8756                 1.2003                 1.3094
 IR Inten    --      4.6147                 5.7722                 5.0468
  Atom  AN      X      Y      Z        X      Y      Z        X      Y      Z
     1   6    -0.01   0.16   0.00     0.00   0.00   0.17    -0.02  -0.07   0.00
     2   6     0.08   0.03   0.00     0.00   0.00  -0.20     0.10   0.09   0.00
     3   8     0.03  -0.02   0.00     0.00   0.00   0.04    -0.05   0.08   0.00
     4   8    -0.04  -0.07   0.00     0.00   0.00   0.02     0.04  -0.07   0.00
     5   1    -0.42  -0.18   0.06    -0.60   0.15  -0.16     0.06   0.09  -0.06
     6   1    -0.42  -0.18  -0.06     0.59  -0.15  -0.16     0.06   0.09   0.06
     7   1     0.61  -0.16   0.00     0.00   0.00  -0.36    -0.36   0.10   0.00
     8   1    -0.27  -0.24   0.00     0.00   0.00   0.03    -0.67  -0.59   0.00
                     10                     11                     12
                      A                      A                      A
 Frequencies --   1336.5539              1426.5027              1499.6742
 Red. masses --      2.3729                 1.4663                 1.0512
 Frc consts  --      2.4975                 1.7580                 1.3930
 IR Inten    --    391.2716                93.0797                 6.1025
  Atom  AN      X      Y      Z        X      Y      Z        X      Y      Z
     1   6    -0.01  -0.05   0.00     0.17  -0.01   0.00     0.00   0.05   0.00
     2   6     0.24   0.15   0.00    -0.08  -0.06   0.00     0.03   0.01   0.00
     3   8    -0.02  -0.05   0.00     0.00   0.02   0.00    -0.01   0.01   0.00
     4   8    -0.14  -0.08   0.00     0.03   0.03   0.00    -0.01  -0.01   0.00
     5   1    -0.24   0.12  -0.17    -0.54  -0.08  -0.20     0.11  -0.51   0.38
     6   1    -0.24   0.12   0.17    -0.55  -0.09   0.20     0.10  -0.52  -0.38
     7   1    -0.40   0.14   0.00    -0.43   0.28   0.00    -0.35   0.21  -0.01
     8   1     0.57   0.42   0.00    -0.07  -0.04   0.00     0.04   0.03   0.00
                     13                     14                     15
                      A                      A                      A
 Frequencies --   1506.3746              1925.8156              3088.3103
 Red. masses --      1.0434                10.4259                 1.0375
 Frc consts  --      1.3949                22.7820                 5.8303
 IR Inten    --     10.9749               340.6861                 3.0757
  Atom  AN      X      Y      Z        X      Y      Z        X      Y      Z
     1   6     0.00   0.00   0.05     0.05  -0.04   0.00     0.05  -0.02   0.00
     2   6     0.00   0.00   0.02    -0.38   0.64   0.00     0.00   0.00   0.00
     3   8     0.00   0.00   0.00     0.23  -0.41   0.00     0.00   0.00   0.00
     4   8     0.00   0.00   0.00     0.04  -0.03   0.00     0.00   0.00   0.00
     5   1     0.35   0.35  -0.06     0.10  -0.06   0.04    -0.18   0.33   0.53
     6   1    -0.35  -0.34  -0.05     0.10  -0.06  -0.04    -0.18   0.33  -0.53
     7   1     0.00   0.00  -0.71    -0.19   0.11   0.00    -0.17  -0.36   0.00
     8   1     0.00   0.00   0.02    -0.30  -0.24   0.00     0.00   0.00   0.00
                     16                     17                     18
                      A                      A                      A
 Frequencies --   3159.4175              3208.6931              3820.5097
 Red. masses --      1.1015                 1.1027                 1.0666
 Frc consts  --      6.4782                 6.6891                 9.1730
 IR Inten    --      4.3060                 0.9645                63.4661
  Atom  AN      X      Y      Z        X      Y      Z        X      Y      Z
     1   6     0.00   0.00   0.09    -0.02  -0.09   0.00     0.00   0.00   0.00
     2   6     0.00   0.00   0.00     0.00   0.00   0.00     0.00   0.00   0.00
     3   8     0.00   0.00   0.00     0.00   0.00   0.00     0.00   0.00   0.00
     4   8     0.00   0.00   0.00     0.00   0.00   0.00    -0.04   0.05   0.00
     5   1     0.20  -0.37  -0.57    -0.08   0.13   0.23     0.00   0.00   0.00
     6   1    -0.20   0.37  -0.56    -0.08   0.13  -0.23     0.00   0.00   0.00
     7   1     0.00   0.01   0.02     0.40   0.82   0.00     0.00   0.00   0.00
     8   1     0.00   0.00   0.00     0.00   0.00   0.00     0.58  -0.81   0.00

 -------------------
 - Thermochemistry -
 -------------------
 Temperature   298.150 Kelvin.  Pressure   1.00000 Atm.
 Atom     1 has atomic number  6 and mass  12.00000
 Atom     2 has atomic number  6 and mass  12.00000
 Atom     3 has atomic number  8 and mass  15.99491
 Atom     4 has atomic number  8 and mass  15.99491
 Atom     5 has atomic number  1 and mass   1.00783
 Atom     6 has atomic number  1 and mass   1.00783
 Atom     7 has atomic number  1 and mass   1.00783
 Atom     8 has atomic number  1 and mass   1.00783
 Molecular mass:    60.02113 amu.
 Principal axes and moments of inertia in atomic units:
                           1         2         3
     Eigenvalues --   163.67224 187.82559 340.16429
           X            1.00000   0.00217   0.00000
           Y           -0.00217   1.00000  -0.00005
           Z            0.00000   0.00005   1.00000
 This molecule is an asymmetric top.
 Rotational symmetry number  1.
 Rotational temperatures (Kelvin)      0.52919     0.46114     0.25462
 Rotational constants (GHZ):          11.02656     9.60860     5.30550
 Zero-point vibrational energy     163524.4 (Joules/Mol)
                                   39.08326 (Kcal/Mol)
 Warning -- explicit consideration of   5 degrees of freedom as
           vibrations may cause significant error
 Vibrational temperatures:    153.39   605.44   630.45   868.25   870.27
          (Kelvin)           1279.36  1447.87  1544.86  1761.19  1923.00
                             2052.42  2157.69  2167.33  2770.82  4443.38
                             4545.69  4616.59  5496.85
 
 Zero-point correction=                           0.062283 (Hartree/Particle)
 Thermal correction to Energy=                    0.066879
 Thermal correction to Enthalpy=                  0.067823
 Thermal correction to Gibbs Free Energy=         0.035322
 Sum of electronic and zero-point Energies=           -228.920866
 Sum of electronic and thermal Energies=              -228.916271
 Sum of electronic and thermal Enthalpies=            -228.915327
 Sum of electronic and thermal Free Energies=         -228.947827
 
                     E (Thermal)             CV                S
                      KCal/Mol        Cal/Mol-Kelvin    Cal/Mol-Kelvin
 Total                   41.967             14.534             68.404
 Electronic               0.000              0.000              0.000
 Translational            0.889              2.981             38.196
 Rotational               0.889              2.981             23.862
 Vibrational             40.190              8.572              6.345
 Vibration     1          0.605              1.944              3.330
 Vibration     2          0.783              1.425              0.889
 Vibration     3          0.798              1.387              0.832
 Vibration     4          0.962              1.024              0.444
 Vibration     5          0.963              1.021              0.441
                       Q            Log10(Q)             Ln(Q)
 Total Bot       0.566214D-16        -16.247019        -37.410145
 Total V=0       0.251870D+13         12.401176         28.554763
 Vib (Bot)       0.846279D-28        -28.072487        -64.639289
 Vib (Bot)    1  0.192244D+01          0.283852          0.653594
 Vib (Bot)    2  0.417020D+00         -0.379843         -0.874620
 Vib (Bot)    3  0.395081D+00         -0.403314         -0.928664
 Vib (Bot)    4  0.246553D+00         -0.608089         -1.400177
 Vib (Bot)    5  0.245624D+00         -0.609729         -1.403953
 Vib (V=0)       0.376451D+01          0.575709          1.325618
 Vib (V=0)    1  0.248639D+01          0.395570          0.910834
 Vib (V=0)    2  0.115108D+01          0.061106          0.140701
 Vib (V=0)    3  0.113725D+01          0.055856          0.128614
 Vib (V=0)    4  0.105748D+01          0.024274          0.055893
 Vib (V=0)    5  0.105707D+01          0.024105          0.055504
 Electronic      0.100000D+01          0.000000          0.000000
 Translational   0.182773D+08          7.261911         16.721169
 Rotational      0.366063D+05          4.563556         10.507975
 ***** Axes restored to original set *****
 -------------------------------------------------------------------
 Center     Atomic                   Forces (Hartrees/Bohr)
 Number     Number              X              Y              Z
 -------------------------------------------------------------------
      1        6           0.000038725   -0.000019658    0.000025271
      2        6           0.000050401    0.000087252   -0.000013939
      3        8          -0.000044042   -0.000030435    0.000018796
      4        8           0.000002761   -0.000036653    0.000018095
      5        1          -0.000014720   -0.000026626   -0.000018729
      6        1          -0.000000081    0.000004434   -0.000005563
      7        1          -0.000020422    0.000014942   -0.000013050
      8        1          -0.000012623    0.000006742   -0.000010881
 -------------------------------------------------------------------
 Cartesian Forces:  Max     0.000087252 RMS     0.000029034
 FormGI is forming the generalized inverse of G from B-inverse, IUseBI=4.

 GradGradGradGradGradGradGradGradGradGradGradGradGradGradGradGradGradGrad
 Berny optimization.
 Internal  Forces:  Max     0.000057029 RMS     0.000019819
 Search for a local minimum.
 Step number   1 out of a maximum of    2
 All quantities printed in internal units (Hartrees-Bohrs-Radians)
 Second derivative matrix not updated -- analytic derivatives used.
 ITU=  0
     Eigenvalues ---    0.00061   0.00915   0.04657   0.05752   0.05871
     Eigenvalues ---    0.12702   0.13197   0.14329   0.16481   0.21960
     Eigenvalues ---    0.24761   0.34072   0.34697   0.35202   0.36167
     Eigenvalues ---    0.43240   0.52627   0.97019
 Angle between quadratic step and forces=  78.27 degrees.
 Linear search not attempted -- first point.
 Iteration  1 RMS(Cart)=  0.00131577 RMS(Int)=  0.00000092
 Iteration  2 RMS(Cart)=  0.00000102 RMS(Int)=  0.00000002
 Iteration  3 RMS(Cart)=  0.00000000 RMS(Int)=  0.00000002
 Variable       Old X    -DE/DX   Delta X   Delta X   Delta X     New X
                                 (Linear)    (Quad)   (Total)
    R1        2.86035   0.00002   0.00000   0.00004   0.00004   2.86039
    R2        2.06931  -0.00001   0.00000   0.00002   0.00002   2.06932
    R3        2.06935   0.00000   0.00000  -0.00003  -0.00003   2.06932
    R4        2.05831   0.00000   0.00000   0.00001   0.00001   2.05832
    R5        2.26509   0.00006   0.00000   0.00008   0.00008   2.26517
    R6        2.56399  -0.00003   0.00000  -0.00011  -0.00011   2.56388
    R7        1.83047   0.00000   0.00000   0.00000   0.00000   1.83047
    A1        1.92711   0.00002   0.00000  -0.00005  -0.00005   1.92706
    A2        1.92687   0.00001   0.00000   0.00035   0.00035   1.92722
    A3        1.90439   0.00000   0.00000  -0.00012  -0.00012   1.90427
    A4        1.88923   0.00000   0.00000   0.00004   0.00004   1.88927
    A5        1.90836  -0.00003   0.00000  -0.00047  -0.00047   1.90790
    A6        1.90770   0.00001   0.00000   0.00024   0.00024   1.90793
    A7        2.17720  -0.00003   0.00000  -0.00018  -0.00018   2.17701
    A8        2.01385   0.00004   0.00000   0.00020   0.00020   2.01405
    A9        2.09214  -0.00001   0.00000  -0.00002  -0.00002   2.09212
   A10        1.94031  -0.00001   0.00000  -0.00003  -0.00003   1.94028
    D1        2.09950  -0.00001   0.00000  -0.00302  -0.00302   2.09649
    D2       -1.04192  -0.00002   0.00000  -0.00307  -0.00307  -1.04499
    D3       -2.09523   0.00000   0.00000  -0.00277  -0.00277  -2.09799
    D4        1.04653  -0.00001   0.00000  -0.00282  -0.00282   1.04371
    D5        0.00165   0.00001   0.00000  -0.00233  -0.00233  -0.00068
    D6       -3.13977   0.00001   0.00000  -0.00239  -0.00239   3.14103
    D7       -0.00185   0.00002   0.00000   0.00147   0.00147  -0.00039
    D8        3.13990   0.00001   0.00000   0.00142   0.00142   3.14132
         Item               Value     Threshold  Converged?
 Maximum Force            0.000057     0.000450     YES
 RMS     Force            0.000020     0.000300     YES
 Maximum Displacement     0.002781     0.001800     NO 
 RMS     Displacement     0.001316     0.001200     NO 
 Predicted change in Energy=-7.115989D-08
 GradGradGradGradGradGradGradGradGradGradGradGradGradGradGradGradGradGrad

 1\1\GINC-KATANA1\Freq\RM062X\6-31+G(d)\C2H4O2\Z5358697\19-Mar-2025\0\\
 #N Geom=AllCheck Guess=TCheck SCRF=Check GenChk RM062X/6-31+G(d) Freq\
 \acetic acid\\0,1\C,-1.0103405403,0.3037121417,-0.150817625\C,-1.58671
 89036,0.5757172525,1.2220907126\O,-2.4327756387,-0.0880539378,1.751541
 9936\O,-1.0791253837,1.6592506827,1.8617961722\H,-1.1842051443,1.15749
 30129,-0.8140834109\H,0.0696530121,0.1351590496,-0.0848756208\H,-1.487
 985831,-0.581261553,-0.5692144808\H,-0.4060015704,2.1002833512,1.32266
 22591\\Version=ES64L-G09RevD.01\State=1-A\HF=-228.9831496\RMSD=2.347e-
 09\RMSF=2.903e-05\ZeroPoint=0.0622831\Thermal=0.0668787\Dipole=1.19528
 76,0.5488028,-1.2885231\DipoleDeriv=-0.031923,-0.0297553,0.1432395,-0.
 039657,-0.0221021,-0.0686874,0.1291896,-0.085688,-0.2661884,1.0623485,
 0.744118,-0.2945165,0.7648787,1.4311745,0.2810328,-0.2655008,0.3168952
 ,1.1875625,-0.8271566,-0.3953671,0.2380775,-0.3340606,-0.7429113,0.051
 3992,0.3235581,0.1567123,-0.7063357,-0.6002379,-0.2993836,-0.1420441,-
 0.3854629,-1.118213,-0.2838301,-0.2617494,-0.4312701,-0.5928515,0.0848
 501,0.0282321,-0.0084292,0.0264097,-0.028981,0.0717063,0.0175991,0.033
 7966,0.027541,-0.0595407,0.0147924,0.0008916,0.0063266,0.0945025,-0.01
 60146,-0.0394324,0.0040393,0.0487473,0.0691623,-0.0500196,-0.0198408,-
 0.0321081,0.0201277,-0.0544202,0.0054476,-0.0234956,0.0559728,0.302497
 4,-0.0126169,0.082622,-0.0063263,0.3664028,0.018814,0.0908883,0.029010
 4,0.245552\Polar=30.0872491,6.0147809,30.5498597,-3.9269961,0.299688,3
 0.096317\PG=C01 [X(C2H4O2)]\NImag=0\\0.56363685,0.03671491,0.59955810,
 0.03026872,0.00373890,0.50489466,-0.10252796,0.01213609,0.03142633,0.6
 6585574,0.01343065,-0.09668353,-0.02675194,0.33996638,0.60624912,0.033
 21620,-0.02447522,-0.18564593,-0.28053805,-0.05545019,0.63250390,-0.00
 599494,-0.02176884,0.02650794,-0.44903778,-0.27599283,0.25540295,0.487
 28308,-0.01210849,0.01392107,0.00248148,-0.28199867,-0.29632980,0.1788
 0172,0.36178616,0.34271168,0.03999455,0.01909850,-0.01514086,0.2470090
 7,0.16847056,-0.26671473,-0.28096057,-0.18682059,0.25336545,0.01287924
 ,0.00109844,0.00659476,-0.09242581,-0.07232656,-0.02967546,-0.03382859
 ,-0.06585385,-0.00912619,0.35890219,-0.01193654,-0.00990026,-0.0153343
 0,-0.04285733,-0.19376615,-0.12571607,-0.06125572,-0.05860967,0.003583
 17,0.28278672,0.38236688,-0.01161379,-0.03777316,-0.01700457,0.0114361
 9,-0.07512999,-0.17540364,-0.00272650,0.01148871,0.03500007,-0.1822823
 0,0.01654497,0.35847385,-0.05084580,0.03367552,-0.02671251,0.00230554,
 -0.01337943,0.00820303,-0.00365868,0.00173075,0.00249039,-0.00056405,0
 .00026598,-0.00129189,0.05346322,0.03449808,-0.21656830,0.12746484,-0.
 00512221,0.00566803,-0.00449986,0.00222669,0.00071633,0.00012691,0.000
 38360,-0.00013227,-0.00022251,-0.03817134,0.23154972,-0.02899422,0.128
 84057,-0.14920372,-0.00747189,0.02877814,-0.01473172,0.00467255,-0.003
 02054,-0.00310781,0.00122092,-0.00341777,0.00174588,0.02853581,-0.1407
 6592,0.15837473,-0.31472129,0.04220074,-0.01882438,-0.01270032,-0.0016
 0543,-0.00256512,0.00080207,0.00095177,0.00288756,0.00221191,-0.000253
 22,0.00033228,-0.00341657,-0.00011148,-0.00029730,0.33967055,0.0413933
 3,-0.05356558,-0.00011361,0.00483288,-0.00204953,0.00295204,-0.0001686
 1,0.00033329,0.00051689,-0.00100923,-0.00042424,-0.00103408,0.02648644
 ,-0.00355505,0.00018543,-0.04563689,0.05335006,-0.01650875,-0.00150264
 ,-0.04806273,0.03371934,-0.00504203,0.00799992,-0.00020040,0.00257876,
 -0.00717226,-0.00307550,0.00108247,-0.00075792,-0.02095314,0.00155674,
 -0.00086043,0.01874457,-0.00139119,0.05013672,-0.10481009,-0.10610149,
 -0.05019885,0.00502996,0.01263627,0.00430543,0.00023278,0.00025103,-0.
 00063474,0.00100583,0.00103639,0.00428153,0.00248658,0.00631319,0.0033
 8984,-0.01156174,-0.02653696,-0.01191482,0.10839968,-0.10313610,-0.239
 04694,-0.09096344,-0.00291737,-0.00650381,-0.00020370,0.00038194,0.001
 23750,0.00154978,-0.00015378,0.00134821,-0.00158012,-0.01059537,-0.017
 65568,-0.01033029,0.00360267,0.00683422,0.00373573,0.11218055,0.253562
 38,-0.04603111,-0.08583622,-0.08875756,-0.01751762,-0.02695266,-0.0104
 2807,-0.00043690,0.00177195,0.00291764,0.00262717,-0.00361370,-0.00690
 270,0.01044820,0.01650371,0.00918109,-0.00044210,-0.00037683,-0.001300
 86,0.05062273,0.09734525,0.09580120,0.00238399,0.00204464,0.00093798,-
 0.01649938,-0.00272905,0.01165102,0.00420207,-0.00475870,-0.00166006,-
 0.24818072,-0.16778627,0.18186447,0.00022976,-0.00001652,-0.00105572,-
 0.00028460,0.00063904,0.00018871,-0.00078299,0.00063745,0.00072962,0.2
 5893187,0.00114416,0.00228542,-0.00052193,-0.02403977,-0.01658435,0.02
 859128,-0.00520879,-0.00398041,-0.00652521,-0.14492533,-0.12088250,0.0
 8770619,-0.00001254,-0.00002278,-0.00026962,0.00085184,-0.00092318,-0.
 00101784,0.00022103,0.00022412,0.00115850,0.17196940,0.13988368,-0.000
 33161,-0.00209074,-0.00107929,-0.01806337,-0.00792188,0.01242026,-0.00
 225908,-0.00728148,0.00085249,0.21371660,0.12687124,-0.19515097,-0.000
 71990,-0.00016392,-0.00139802,0.00016449,-0.00073864,0.00001756,0.0001
 4888,0.00044680,-0.00051073,-0.19265602,-0.10912138,0.18484869\\-0.000
 03873,0.00001966,-0.00002527,-0.00005040,-0.00008725,0.00001394,0.0000
 4404,0.00003043,-0.00001880,-0.00000276,0.00003665,-0.00001810,0.00001
 472,0.00002663,0.00001873,0.00000008,-0.00000443,0.00000556,0.00002042
 ,-0.00001494,0.00001305,0.00001262,-0.00000674,0.00001088\\\@


 THE SOLUTION TO A PROBLEM CHANGES THE PROBLEM.

                                 -- JOHN PEERS
           PAUL DICKSON'S "THE OFFICIAL RULES"
 Job cpu time:       0 days  0 hours  0 minutes 35.6 seconds.
 File lengths (MBytes):  RWF=    132 Int=      0 D2E=      0 Chk=      2 Scr=      2
 Normal termination of Gaussian 09 at Wed Mar 19 12:13:11 2025.
