 Entering Gaussian System, Link 0=g09
 Initial command:
 /apps/z_install_tree/linux-rocky8-ivybridge/gcc-12.2.0/gaussian-09-D.01-wczn3gur5lpur3omlkzwa2l5ecyxp5ef/g09/l1.exe "/srv/scratch/z5358697/gauss/Gau-2398964.inp" -scrdir="/srv/scratch/z5358697/gauss/"
 Entering Link 1 = /apps/z_install_tree/linux-rocky8-ivybridge/gcc-12.2.0/gaussian-09-D.01-wczn3gur5lpur3omlkzwa2l5ecyxp5ef/g09/l1.exe PID=   2398966.
  
 Copyright (c) 1988,1990,1992,1993,1995,1998,2003,2009,2013,
            Gaussian, Inc.  All Rights Reserved.
  
 This is part of the Gaussian(R) 09 program.  It is based on
 the Gaussian(R) 03 system (copyright 2003, Gaussian, Inc.),
 the Gaussian(R) 98 system (copyright 1998, Gaussian, Inc.),
 the Gaussian(R) 94 system (copyright 1995, Gaussian, Inc.),
 the Gaussian 92(TM) system (copyright 1992, Gaussian, Inc.),
 the Gaussian 90(TM) system (copyright 1990, Gaussian, Inc.),
 the Gaussian 88(TM) system (copyright 1988, Gaussian, Inc.),
 the Gaussian 86(TM) system (copyright 1986, Carnegie Mellon
 University), and the Gaussian 82(TM) system (copyright 1983,
 Carnegie Mellon University). Gaussian is a federally registered
 trademark of Gaussian, Inc.
  
 This software contains proprietary and confidential information,
 including trade secrets, belonging to Gaussian, Inc.
  
 This software is provided under written license and may be
 used, copied, transmitted, or stored only in accord with that
 written license.
  
 The following legend is applicable only to US Government
 contracts under FAR:
  
                    RESTRICTED RIGHTS LEGEND
  
 Use, reproduction and disclosure by the US Government is
 subject to restrictions as set forth in subparagraphs (a)
 and (c) of the Commercial Computer Software - Restricted
 Rights clause in FAR 52.227-19.
  
 Gaussian, Inc.
 340 Quinnipiac St., Bldg. 40, Wallingford CT 06492
  
  
 ---------------------------------------------------------------
 Warning -- This program may not be used in any manner that
 competes with the business of Gaussian, Inc. or will provide
 assistance to any competitor of Gaussian, Inc.  The licensee
 of this program is prohibited from giving any competitor of
 Gaussian, Inc. access to this program.  By using this program,
 the user acknowledges that Gaussian, Inc. is engaged in the
 business of creating and licensing software in the field of
 computational chemistry and represents and warrants to the
 licensee that it is not a competitor of Gaussian, Inc. and that
 it will not use this program in any manner prohibited above.
 ---------------------------------------------------------------
  

 Cite this work as:
 Gaussian 09, Revision D.01,
 M. J. Frisch, G. W. Trucks, H. B. Schlegel, G. E. Scuseria, 
 M. A. Robb, J. R. Cheeseman, G. Scalmani, V. Barone, B. Mennucci, 
 G. A. Petersson, H. Nakatsuji, M. Caricato, X. Li, H. P. Hratchian, 
 A. F. Izmaylov, J. Bloino, G. Zheng, J. L. Sonnenberg, M. Hada, 
 M. Ehara, K. Toyota, R. Fukuda, J. Hasegawa, M. Ishida, T. Nakajima, 
 Y. Honda, O. Kitao, H. Nakai, T. Vreven, J. A. Montgomery, Jr., 
 J. E. Peralta, F. Ogliaro, M. Bearpark, J. J. Heyd, E. Brothers, 
 K. N. Kudin, V. N. Staroverov, T. Keith, R. Kobayashi, J. Normand, 
 K. Raghavachari, A. Rendell, J. C. Burant, S. S. Iyengar, J. Tomasi, 
 M. Cossi, N. Rega, J. M. Millam, M. Klene, J. E. Knox, J. B. Cross, 
 V. Bakken, C. Adamo, J. Jaramillo, R. Gomperts, R. E. Stratmann, 
 O. Yazyev, A. J. Austin, R. Cammi, C. Pomelli, J. W. Ochterski, 
 R. L. Martin, K. Morokuma, V. G. Zakrzewski, G. A. Voth, 
 P. Salvador, J. J. Dannenberg, S. Dapprich, A. D. Daniels, 
 O. Farkas, J. B. Foresman, J. V. Ortiz, J. Cioslowski, 
 and D. J. Fox, Gaussian, Inc., Wallingford CT, 2013.
 
 ******************************************
 Gaussian 09:  ES64L-G09RevD.01 24-Apr-2013
                16-Mar-2025 
 ******************************************
 ---------------------------------
 #m062X/6-31+G(d) OPT Freq=noraman
 ---------------------------------
 1/14=-1,18=20,19=15,26=3,38=1/1,3;
 2/9=110,12=2,17=6,18=5,40=1/2;
 3/5=1,6=6,7=11,11=2,16=1,25=1,30=1,71=1,74=-55/1,2,3;
 4//1;
 5/5=2,38=5/2;
 6/7=2,8=2,9=2,10=2,28=1/1;
 7//1,2,3,16;
 1/14=-1,18=20,19=15,26=3/3(2);
 2/9=110/2;
 99//99;
 2/9=110/2;
 3/5=1,6=6,7=11,11=2,16=1,25=1,30=1,71=1,74=-55/1,2,3;
 4/5=5,16=3,69=1/1;
 5/5=2,38=5/2;
 7//1,2,3,16;
 1/14=-1,18=20,19=15,26=3/3(-5);
 2/9=110/2;
 6/7=2,8=2,9=2,10=2,19=2,28=1/1;
 99/9=1/99;
 -------
 benzene
 -------
 Symbolic Z-matrix:
 Charge =  0 Multiplicity = 1
 C                     1.8851   -1.0363   -0.1124 
 C                     2.921    -1.6309    0.6081 
 C                     2.8783   -1.652     2.0022 
 C                     1.7997   -1.0786    2.6757 
 C                     0.7638   -0.4841    1.9551 
 C                     0.8066   -0.463     0.561 
 H                     1.9174   -1.0203   -1.1978 
 H                     3.7613   -2.0769    0.0841 
 H                     3.6848   -2.115     2.5631 
 H                     1.7665   -1.0955    3.7614 
 H                    -0.076    -0.0377    2.4791 
 H                     0.0004    0.0003   -0.0003 
 

 GradGradGradGradGradGradGradGradGradGradGradGradGradGradGradGradGradGrad
 Berny optimization.
 Initialization pass.
                           ----------------------------
                           !    Initial Parameters    !
                           ! (Angstroms and Degrees)  !
 --------------------------                            --------------------------
 ! Name  Definition              Value          Derivative Info.                !
 --------------------------------------------------------------------------------
 ! R1    R(1,2)                  1.3949         estimate D2E/DX2                !
 ! R2    R(1,6)                  1.3947         estimate D2E/DX2                !
 ! R3    R(1,7)                  1.086          estimate D2E/DX2                !
 ! R4    R(2,3)                  1.3949         estimate D2E/DX2                !
 ! R5    R(2,8)                  1.0861         estimate D2E/DX2                !
 ! R6    R(3,4)                  1.3949         estimate D2E/DX2                !
 ! R7    R(3,9)                  1.086          estimate D2E/DX2                !
 ! R8    R(4,5)                  1.3949         estimate D2E/DX2                !
 ! R9    R(4,10)                 1.0863         estimate D2E/DX2                !
 ! R10   R(5,6)                  1.3949         estimate D2E/DX2                !
 ! R11   R(5,11)                 1.0859         estimate D2E/DX2                !
 ! R12   R(6,12)                 1.0861         estimate D2E/DX2                !
 ! A1    A(2,1,6)              120.0052         estimate D2E/DX2                !
 ! A2    A(2,1,7)              120.0285         estimate D2E/DX2                !
 ! A3    A(6,1,7)              119.9663         estimate D2E/DX2                !
 ! A4    A(1,2,3)              119.9958         estimate D2E/DX2                !
 ! A5    A(1,2,8)              120.027          estimate D2E/DX2                !
 ! A6    A(3,2,8)              119.9771         estimate D2E/DX2                !
 ! A7    A(2,3,4)              119.9999         estimate D2E/DX2                !
 ! A8    A(2,3,9)              119.9929         estimate D2E/DX2                !
 ! A9    A(4,3,9)              120.0073         estimate D2E/DX2                !
 ! A10   A(3,4,5)              119.9999         estimate D2E/DX2                !
 ! A11   A(3,4,10)             119.9854         estimate D2E/DX2                !
 ! A12   A(5,4,10)             120.0147         estimate D2E/DX2                !
 ! A13   A(4,5,6)              119.9967         estimate D2E/DX2                !
 ! A14   A(4,5,11)             120.0171         estimate D2E/DX2                !
 ! A15   A(6,5,11)             119.9862         estimate D2E/DX2                !
 ! A16   A(1,6,5)              120.0026         estimate D2E/DX2                !
 ! A17   A(1,6,12)             119.9863         estimate D2E/DX2                !
 ! A18   A(5,6,12)             120.0111         estimate D2E/DX2                !
 ! D1    D(6,1,2,3)             -0.0063         estimate D2E/DX2                !
 ! D2    D(6,1,2,8)           -179.9626         estimate D2E/DX2                !
 ! D3    D(7,1,2,3)           -179.9494         estimate D2E/DX2                !
 ! D4    D(7,1,2,8)              0.0943         estimate D2E/DX2                !
 ! D5    D(2,1,6,5)              0.004          estimate D2E/DX2                !
 ! D6    D(2,1,6,12)           179.9718         estimate D2E/DX2                !
 ! D7    D(7,1,6,5)            179.9471         estimate D2E/DX2                !
 ! D8    D(7,1,6,12)            -0.085          estimate D2E/DX2                !
 ! D9    D(1,2,3,4)              0.0043         estimate D2E/DX2                !
 ! D10   D(1,2,3,9)            179.996          estimate D2E/DX2                !
 ! D11   D(8,2,3,4)            179.9606         estimate D2E/DX2                !
 ! D12   D(8,2,3,9)             -0.0477         estimate D2E/DX2                !
 ! D13   D(2,3,4,5)              0.0            estimate D2E/DX2                !
 ! D14   D(2,3,4,10)           179.9767         estimate D2E/DX2                !
 ! D15   D(9,3,4,5)           -179.9917         estimate D2E/DX2                !
 ! D16   D(9,3,4,10)            -0.015          estimate D2E/DX2                !
 ! D17   D(3,4,5,6)             -0.0023         estimate D2E/DX2                !
 ! D18   D(3,4,5,11)           179.9967         estimate D2E/DX2                !
 ! D19   D(10,4,5,6)          -179.9789         estimate D2E/DX2                !
 ! D20   D(10,4,5,11)            0.02           estimate D2E/DX2                !
 ! D21   D(4,5,6,1)              0.0003         estimate D2E/DX2                !
 ! D22   D(4,5,6,12)          -179.9675         estimate D2E/DX2                !
 ! D23   D(11,5,6,1)          -179.9986         estimate D2E/DX2                !
 ! D24   D(11,5,6,12)            0.0335         estimate D2E/DX2                !
 --------------------------------------------------------------------------------
 Trust Radius=3.00D-01 FncErr=1.00D-07 GrdErr=1.00D-06
 Number of steps in this run=     64 maximum allowed number of steps=    100.
 GradGradGradGradGradGradGradGradGradGradGradGradGradGradGradGradGradGrad

                          Input orientation:                          
 ---------------------------------------------------------------------
 Center     Atomic      Atomic             Coordinates (Angstroms)
 Number     Number       Type             X           Y           Z
 ---------------------------------------------------------------------
      1          6           0        1.885100   -1.036300   -0.112400
      2          6           0        2.921000   -1.630900    0.608100
      3          6           0        2.878300   -1.652000    2.002200
      4          6           0        1.799700   -1.078600    2.675700
      5          6           0        0.763800   -0.484100    1.955100
      6          6           0        0.806600   -0.463000    0.561000
      7          1           0        1.917400   -1.020300   -1.197800
      8          1           0        3.761300   -2.076900    0.084100
      9          1           0        3.684800   -2.115000    2.563100
     10          1           0        1.766500   -1.095500    3.761400
     11          1           0       -0.076000   -0.037700    2.479100
     12          1           0        0.000400    0.000300   -0.000300
 ---------------------------------------------------------------------
                    Distance matrix (angstroms):
                    1          2          3          4          5
     1  C    0.000000
     2  C    1.394904   0.000000
     3  C    2.416002   1.394913   0.000000
     4  C    2.789728   2.416054   1.394908   0.000000
     5  C    2.415946   2.789816   2.416054   1.394913   0.000000
     6  C    1.394741   2.415967   2.789753   2.416023   1.394916
     7  H    1.085998   2.154372   3.400349   3.875726   3.399865
     8  H    2.154434   1.086092   2.153912   3.400128   3.875908
     9  H    3.400120   2.154012   1.086011   2.154160   3.400256
    10  H    3.876067   3.400415   2.154200   1.086339   2.154515
    11  H    3.399851   3.875685   3.400189   2.154153   1.085870
    12  H    2.153880   3.400128   3.875875   3.400365   2.154301
                    6          7          8          9         10
     6  C    0.000000
     7  H    2.153564   0.000000
     8  H    3.400347   2.481862   0.000000
     9  H    3.875764   4.297260   2.480473   0.000000
    10  H    3.400592   4.962065   4.297081   2.480963   0.000000
    11  H    2.153827   4.296364   4.961777   4.297191   2.481540
    12  H    1.086123   2.480024   4.297238   4.961886   4.297706
                   11         12
    11  H    0.000000
    12  H    2.480868   0.000000
 Stoichiometry    C6H6
 Framework group  C1[X(C6H6)]
 Deg. of freedom    30
 Full point group                 C1      NOp   1
 Largest Abelian subgroup         C1      NOp   1
 Largest concise Abelian subgroup C1      NOp   1
                         Standard orientation:                         
 ---------------------------------------------------------------------
 Center     Atomic      Atomic             Coordinates (Angstroms)
 Number     Number       Type             X           Y           Z
 ---------------------------------------------------------------------
      1          6           0       -0.893640   -1.070960   -0.000025
      2          6           0        0.480725   -1.309455    0.000033
      3          6           0        1.374378   -0.238396   -0.000015
      4          6           0        0.893639    1.071053   -0.000030
      5          6           0       -0.480753    1.309443    0.000002
      6          6           0       -1.374341    0.238326    0.000002
      7          1           0       -1.589862   -1.904426    0.000843
      8          1           0        0.855438   -2.328860   -0.000602
      9          1           0        2.444388   -0.424133    0.000096
     10          1           0        1.589813    1.905004    0.000316
     11          1           0       -0.855293    2.328675    0.000046
     12          1           0       -2.444532    0.423675   -0.000505
 ---------------------------------------------------------------------
 Rotational constants (GHZ):      5.7007875      5.7002355      2.8502558
 Standard basis: 6-31+G(d) (6D, 7F)
 There are   126 symmetry adapted cartesian basis functions of A   symmetry.
 There are   126 symmetry adapted basis functions of A   symmetry.
   126 basis functions,   216 primitive gaussians,   126 cartesian basis functions
    21 alpha electrons       21 beta electrons
       nuclear repulsion energy       203.4276339527 Hartrees.
 NAtoms=   12 NActive=   12 NUniq=   12 SFac= 1.00D+00 NAtFMM=   60 NAOKFM=F Big=F
 Integral buffers will be    131072 words long.
 Raffenetti 2 integral format.
 Two-electron integral symmetry is turned on.
 One-electron integrals computed using PRISM.
 NBasis=   126 RedAO= T EigKep=  6.37D-06  NBF=   126
 NBsUse=   126 1.00D-06 EigRej= -1.00D+00 NBFU=   126
 ExpMin= 4.38D-02 ExpMax= 3.05D+03 ExpMxC= 4.57D+02 IAcc=2 IRadAn=         4 AccDes= 0.00D+00
 Harris functional with IExCor= 1009 and IRadAn=       4 diagonalized for initial guess.
 HarFok:  IExCor= 1009 AccDes= 0.00D+00 IRadAn=         4 IDoV= 1 UseB2=F ITyADJ=14
 ICtDFT=  3500011 ScaDFX=  1.000000  1.000000  1.000000  1.000000
 FoFCou: FMM=F IPFlag=           0 FMFlag=      100000 FMFlg1=           0
         NFxFlg=           0 DoJE=T BraDBF=F KetDBF=T FulRan=T
         wScrn=  0.000000 ICntrl=     500 IOpCl=  0 I1Cent=   200000004 NGrid=           0
         NMat0=    1 NMatS0=      1 NMatT0=    0 NMatD0=    1 NMtDS0=    0 NMtDT0=    0
 Petite list used in FoFCou.
 Keep R1 ints in memory in canonical form, NReq=33104011.
 Requested convergence on RMS density matrix=1.00D-08 within 128 cycles.
 Requested convergence on MAX density matrix=1.00D-06.
 Requested convergence on             energy=1.00D-06.
 No special actions if energy rises.
 SCF Done:  E(RM062X) =  -232.144390224     A.U. after   10 cycles
            NFock= 10  Conv=0.53D-08     -V/T= 2.0091

 **********************************************************************

            Population analysis using the SCF density.

 **********************************************************************

 Orbital symmetries:
       Occupied  (A) (A) (A) (A) (A) (A) (A) (A) (A) (A) (A) (A)
                 (A) (A) (A) (A) (A) (A) (A) (A) (A)
       Virtual   (A) (A) (A) (A) (A) (A) (A) (A) (A) (A) (A) (A)
                 (A) (A) (A) (A) (A) (A) (A) (A) (A) (A) (A) (A)
                 (A) (A) (A) (A) (A) (A) (A) (A) (A) (A) (A) (A)
                 (A) (A) (A) (A) (A) (A) (A) (A) (A) (A) (A) (A)
                 (A) (A) (A) (A) (A) (A) (A) (A) (A) (A) (A) (A)
                 (A) (A) (A) (A) (A) (A) (A) (A) (A) (A) (A) (A)
                 (A) (A) (A) (A) (A) (A) (A) (A) (A) (A) (A) (A)
                 (A) (A) (A) (A) (A) (A) (A) (A) (A) (A) (A) (A)
                 (A) (A) (A) (A) (A) (A) (A) (A) (A)
 The electronic state is 1-A.
 Alpha  occ. eigenvalues --  -10.55710 -10.55674 -10.55673 -10.55596 -10.55595
 Alpha  occ. eigenvalues --  -10.55559  -0.96032  -0.84411  -0.84407  -0.68716
 Alpha  occ. eigenvalues --   -0.68709  -0.60151  -0.53613  -0.51225  -0.48999
 Alpha  occ. eigenvalues --   -0.48997  -0.43779  -0.40439  -0.40434  -0.30740
 Alpha  occ. eigenvalues --   -0.30737
 Alpha virt. eigenvalues --    0.01992   0.01995   0.02895   0.03719   0.03720
 Alpha virt. eigenvalues --    0.05204   0.05206   0.07940   0.08304   0.10164
 Alpha virt. eigenvalues --    0.10343   0.10353   0.10722   0.14930   0.14937
 Alpha virt. eigenvalues --    0.14957   0.15101   0.15105   0.17691   0.17713
 Alpha virt. eigenvalues --    0.19834   0.19835   0.22180   0.22615   0.22629
 Alpha virt. eigenvalues --    0.23763   0.25671   0.25938   0.27532   0.27538
 Alpha virt. eigenvalues --    0.31804   0.31811   0.35079   0.38829   0.38833
 Alpha virt. eigenvalues --    0.39161   0.39166   0.61147   0.62243   0.66078
 Alpha virt. eigenvalues --    0.66278   0.70685   0.76717   0.76718   0.77054
 Alpha virt. eigenvalues --    0.77058   0.79904   0.79905   0.82108   0.82112
 Alpha virt. eigenvalues --    0.85618   0.86685   0.96746   0.99765   0.99774
 Alpha virt. eigenvalues --    1.01807   1.01817   1.03591   1.08801   1.11997
 Alpha virt. eigenvalues --    1.12004   1.18040   1.18064   1.20507   1.20518
 Alpha virt. eigenvalues --    1.30763   1.34750   1.44176   1.47667   1.47678
 Alpha virt. eigenvalues --    1.53540   1.53544   1.55960   1.55961   1.78902
 Alpha virt. eigenvalues --    1.86477   1.94026   1.94246   2.05324   2.05340
 Alpha virt. eigenvalues --    2.15239   2.15248   2.19198   2.19203   2.20089
 Alpha virt. eigenvalues --    2.20094   2.33561   2.33573   2.36536   2.60148
 Alpha virt. eigenvalues --    2.60150   2.67200   2.74168   2.74178   2.75975
 Alpha virt. eigenvalues --    2.75989   2.85376   3.04401   3.41745   4.25487
 Alpha virt. eigenvalues --    4.27172   4.27183   4.40826   4.40830   4.70950
          Condensed to atoms (all electrons):
               1          2          3          4          5          6
     1  C    5.033489   0.490013  -0.014719  -0.083883  -0.014873   0.489798
     2  C    0.490013   5.033697   0.489824  -0.014910  -0.083879  -0.014849
     3  C   -0.014719   0.489824   5.033293   0.489879  -0.014654  -0.083762
     4  C   -0.083883  -0.014910   0.489879   5.033297   0.489962  -0.014820
     5  C   -0.014873  -0.083879  -0.014654   0.489962   5.033809   0.489889
     6  C    0.489798  -0.014849  -0.083762  -0.014820   0.489889   5.033218
     7  H    0.273283   0.014656   0.003121  -0.003197   0.003080   0.014419
     8  H    0.014583   0.273311   0.014400   0.003120  -0.003201   0.003147
     9  H    0.003125   0.014460   0.273465   0.014410   0.003090  -0.003209
    10  H   -0.003179   0.003065   0.014495   0.273138   0.014728   0.003117
    11  H    0.003130  -0.003219   0.003152   0.014502   0.273452   0.014350
    12  H    0.014460   0.003094  -0.003195   0.003113   0.014510   0.273345
               7          8          9         10         11         12
     1  C    0.273283   0.014583   0.003125  -0.003179   0.003130   0.014460
     2  C    0.014656   0.273311   0.014460   0.003065  -0.003219   0.003094
     3  C    0.003121   0.014400   0.273465   0.014495   0.003152  -0.003195
     4  C   -0.003197   0.003120   0.014410   0.273138   0.014502   0.003113
     5  C    0.003080  -0.003201   0.003090   0.014728   0.273452   0.014510
     6  C    0.014419   0.003147  -0.003209   0.003117   0.014350   0.273345
     7  H    0.498140  -0.004185  -0.000131   0.000013  -0.000132  -0.004210
     8  H   -0.004185   0.498086  -0.004200  -0.000132   0.000013  -0.000132
     9  H   -0.000131  -0.004200   0.498173  -0.004199  -0.000132   0.000013
    10  H    0.000013  -0.000132  -0.004199   0.498104  -0.004187  -0.000131
    11  H   -0.000132   0.000013  -0.000132  -0.004187   0.498086  -0.004198
    12  H   -0.004210  -0.000132   0.000013  -0.000131  -0.004198   0.498197
 Mulliken charges:
               1
     1  C   -0.205226
     2  C   -0.205262
     3  C   -0.205299
     4  C   -0.204613
     5  C   -0.205912
     6  C   -0.204641
     7  H    0.205145
     8  H    0.205189
     9  H    0.205136
    10  H    0.205167
    11  H    0.205181
    12  H    0.205134
 Sum of Mulliken charges =   0.00000
 Mulliken charges with hydrogens summed into heavy atoms:
               1
     1  C   -0.000081
     2  C   -0.000073
     3  C   -0.000163
     4  C    0.000555
     5  C   -0.000731
     6  C    0.000493
 Electronic spatial extent (au):  <R**2>=            459.5131
 Charge=              0.0000 electrons
 Dipole moment (field-independent basis, Debye):
    X=             -0.0002    Y=             -0.0001    Z=              0.0002  Tot=              0.0002
 Quadrupole moment (field-independent basis, Debye-Ang):
   XX=            -31.8510   YY=            -31.8567   ZZ=            -40.5257
   XY=             -0.0013   XZ=              0.0001   YZ=              0.0003
 Traceless Quadrupole moment (field-independent basis, Debye-Ang):
   XX=              2.8935   YY=              2.8878   ZZ=             -5.7813
   XY=             -0.0013   XZ=              0.0001   YZ=              0.0003
 Octapole moment (field-independent basis, Debye-Ang**2):
  XXX=             -0.0037  YYY=              0.0024  ZZZ=              0.0002  XYY=              0.0022
  XXY=             -0.0032  XXZ=              0.0002  XZZ=             -0.0012  YZZ=             -0.0005
  YYZ=              0.0012  XYZ=              0.0055
 Hexadecapole moment (field-independent basis, Debye-Ang**3):
 XXXX=           -274.8359 YYYY=           -274.8425 ZZZZ=            -50.6227 XXXY=              0.0046
 XXXZ=              0.0077 YYYX=             -0.0170 YYYZ=              0.0059 ZZZX=              0.0001
 ZZZY=              0.0004 XXYY=            -91.6015 XXZZ=            -65.5890 YYZZ=            -65.5835
 XXYZ=             -0.0034 YYXZ=             -0.0070 ZZXY=             -0.0017
 N-N= 2.034276339527D+02 E-N=-9.437246775717D+02  KE= 2.300486604177D+02
 Calling FoFJK, ICntrl=      2127 FMM=F ISym2X=0 I1Cent= 0 IOpClX= 0 NMat=1 NMatS=1 NMatT=0.
 ***** Axes restored to original set *****
 -------------------------------------------------------------------
 Center     Atomic                   Forces (Hartrees/Bohr)
 Number     Number              X              Y              Z
 -------------------------------------------------------------------
      1        6          -0.000124980   -0.000035676    0.000504765
      2        6          -0.000306699    0.000224977    0.000409219
      3        6          -0.000430092    0.000248439   -0.000364819
      4        6           0.000128308   -0.000108976   -0.000376910
      5        6           0.000461098   -0.000226134   -0.000436573
      6        6           0.000319731   -0.000139795    0.000365186
      7        1           0.000119322    0.000000265   -0.000227482
      8        1           0.000085367   -0.000089194   -0.000126671
      9        1           0.000168657   -0.000086367    0.000120727
     10        1          -0.000048464    0.000043930   -0.000007206
     11        1          -0.000227930    0.000124809    0.000185682
     12        1          -0.000144315    0.000043721   -0.000045918
 -------------------------------------------------------------------
 Cartesian Forces:  Max     0.000504765 RMS     0.000242809

 GradGradGradGradGradGradGradGradGradGradGradGradGradGradGradGradGradGrad
 Berny optimization.
 FormGI is forming the generalized inverse of G from B-inverse, IUseBI=4.
 Internal  Forces:  Max     0.000441505 RMS     0.000141114
 Search for a local minimum.
 Step number   1 out of a maximum of   64
 All quantities printed in internal units (Hartrees-Bohrs-Radians)
 Mixed Optimization -- En-DIIS/RFO-DIIS
 Second derivative matrix not updated -- first step.
 ITU=  0
     Eigenvalues ---    0.02156   0.02156   0.02156   0.02156   0.02156
     Eigenvalues ---    0.02156   0.02157   0.02157   0.02158   0.16000
     Eigenvalues ---    0.16000   0.16000   0.16000   0.16000   0.16000
     Eigenvalues ---    0.22000   0.22000   0.22000   0.35239   0.35265
     Eigenvalues ---    0.35268   0.35278   0.35279   0.35294   0.42129
     Eigenvalues ---    0.42137   0.46474   0.46474   0.46475   0.46494
 RFO step:  Lambda=-2.83472275D-06 EMin= 2.15602092D-02
 Linear search not attempted -- first point.
 Iteration  1 RMS(Cart)=  0.00046426 RMS(Int)=  0.00000024
 Iteration  2 RMS(Cart)=  0.00000019 RMS(Int)=  0.00000013
 Variable       Old X    -DE/DX   Delta X   Delta X   Delta X     New X
                                 (Linear)    (Quad)   (Total)
    R1        2.63599  -0.00028   0.00000  -0.00060  -0.00060   2.63539
    R2        2.63568  -0.00025   0.00000  -0.00053  -0.00053   2.63515
    R3        2.05224   0.00023   0.00000   0.00065   0.00065   2.05289
    R4        2.63600  -0.00044   0.00000  -0.00095  -0.00095   2.63505
    R5        2.05242   0.00016   0.00000   0.00046   0.00046   2.05288
    R6        2.63599  -0.00039   0.00000  -0.00084  -0.00084   2.63515
    R7        2.05226   0.00022   0.00000   0.00064   0.00064   2.05290
    R8        2.63600  -0.00030   0.00000  -0.00064  -0.00064   2.63536
    R9        2.05288  -0.00001   0.00000  -0.00002  -0.00002   2.05286
   R10        2.63601  -0.00044   0.00000  -0.00094  -0.00094   2.63507
   R11        2.05200   0.00032   0.00000   0.00090   0.00090   2.05290
   R12        2.05247   0.00015   0.00000   0.00042   0.00042   2.05290
    A1        2.09449   0.00000   0.00000   0.00005   0.00005   2.09453
    A2        2.09489  -0.00011   0.00000  -0.00069  -0.00069   2.09421
    A3        2.09381   0.00010   0.00000   0.00064   0.00064   2.09444
    A4        2.09432   0.00002   0.00000   0.00009   0.00009   2.09442
    A5        2.09487  -0.00006   0.00000  -0.00037  -0.00037   2.09450
    A6        2.09400   0.00004   0.00000   0.00027   0.00027   2.09427
    A7        2.09439  -0.00003   0.00000  -0.00018  -0.00018   2.09422
    A8        2.09427   0.00002   0.00000   0.00014   0.00014   2.09441
    A9        2.09452   0.00001   0.00000   0.00003   0.00003   2.09456
   A10        2.09439   0.00005   0.00000   0.00018   0.00018   2.09458
   A11        2.09414   0.00004   0.00000   0.00034   0.00034   2.09448
   A12        2.09465  -0.00009   0.00000  -0.00052  -0.00052   2.09413
   A13        2.09434   0.00001   0.00000   0.00004   0.00004   2.09438
   A14        2.09469  -0.00004   0.00000  -0.00024  -0.00024   2.09446
   A15        2.09415   0.00003   0.00000   0.00020   0.00020   2.09435
   A16        2.09444  -0.00005   0.00000  -0.00019  -0.00019   2.09425
   A17        2.09416   0.00006   0.00000   0.00032   0.00032   2.09447
   A18        2.09459  -0.00001   0.00000  -0.00013  -0.00013   2.09446
    D1       -0.00011   0.00001   0.00000   0.00024   0.00024   0.00013
    D2       -3.14094  -0.00001   0.00000  -0.00049  -0.00049  -3.14143
    D3       -3.14071  -0.00002   0.00000  -0.00072  -0.00072  -3.14143
    D4        0.00165  -0.00003   0.00000  -0.00145  -0.00145   0.00020
    D5        0.00007   0.00000   0.00000  -0.00017  -0.00017  -0.00010
    D6        3.14110   0.00001   0.00000   0.00033   0.00033   3.14143
    D7        3.14067   0.00002   0.00000   0.00079   0.00079   3.14146
    D8       -0.00148   0.00003   0.00000   0.00129   0.00129  -0.00019
    D9        0.00007   0.00000   0.00000  -0.00007  -0.00007   0.00000
   D10        3.14152   0.00000   0.00000   0.00002   0.00002   3.14154
   D11        3.14091   0.00001   0.00000   0.00066   0.00066   3.14156
   D12       -0.00083   0.00002   0.00000   0.00075   0.00075  -0.00009
   D13        0.00000   0.00000   0.00000  -0.00017  -0.00017  -0.00017
   D14        3.14119   0.00001   0.00000   0.00035   0.00035   3.14153
   D15       -3.14145  -0.00001   0.00000  -0.00026  -0.00026   3.14148
   D16       -0.00026   0.00001   0.00000   0.00026   0.00026   0.00000
   D17       -0.00004   0.00001   0.00000   0.00024   0.00024   0.00020
   D18        3.14153   0.00000   0.00000   0.00018   0.00018  -3.14147
   D19       -3.14123  -0.00001   0.00000  -0.00028  -0.00028  -3.14150
   D20        0.00035  -0.00001   0.00000  -0.00034  -0.00034   0.00001
   D21        0.00001   0.00000   0.00000  -0.00007  -0.00007  -0.00006
   D22       -3.14103  -0.00001   0.00000  -0.00057  -0.00057   3.14159
   D23       -3.14157   0.00000   0.00000  -0.00001  -0.00001  -3.14158
   D24        0.00058  -0.00001   0.00000  -0.00051  -0.00051   0.00007
         Item               Value     Threshold  Converged?
 Maximum Force            0.000442     0.000450     YES
 RMS     Force            0.000141     0.000300     YES
 Maximum Displacement     0.001767     0.001800     YES
 RMS     Displacement     0.000464     0.001200     YES
 Predicted change in Energy=-1.417361D-06
 Optimization completed.
    -- Stationary point found.
                           ----------------------------
                           !   Optimized Parameters   !
                           ! (Angstroms and Degrees)  !
 --------------------------                            --------------------------
 ! Name  Definition              Value          Derivative Info.                !
 --------------------------------------------------------------------------------
 ! R1    R(1,2)                  1.3949         -DE/DX =   -0.0003              !
 ! R2    R(1,6)                  1.3947         -DE/DX =   -0.0003              !
 ! R3    R(1,7)                  1.086          -DE/DX =    0.0002              !
 ! R4    R(2,3)                  1.3949         -DE/DX =   -0.0004              !
 ! R5    R(2,8)                  1.0861         -DE/DX =    0.0002              !
 ! R6    R(3,4)                  1.3949         -DE/DX =   -0.0004              !
 ! R7    R(3,9)                  1.086          -DE/DX =    0.0002              !
 ! R8    R(4,5)                  1.3949         -DE/DX =   -0.0003              !
 ! R9    R(4,10)                 1.0863         -DE/DX =    0.0                 !
 ! R10   R(5,6)                  1.3949         -DE/DX =   -0.0004              !
 ! R11   R(5,11)                 1.0859         -DE/DX =    0.0003              !
 ! R12   R(6,12)                 1.0861         -DE/DX =    0.0001              !
 ! A1    A(2,1,6)              120.0052         -DE/DX =    0.0                 !
 ! A2    A(2,1,7)              120.0285         -DE/DX =   -0.0001              !
 ! A3    A(6,1,7)              119.9663         -DE/DX =    0.0001              !
 ! A4    A(1,2,3)              119.9958         -DE/DX =    0.0                 !
 ! A5    A(1,2,8)              120.027          -DE/DX =   -0.0001              !
 ! A6    A(3,2,8)              119.9771         -DE/DX =    0.0                 !
 ! A7    A(2,3,4)              119.9999         -DE/DX =    0.0                 !
 ! A8    A(2,3,9)              119.9929         -DE/DX =    0.0                 !
 ! A9    A(4,3,9)              120.0073         -DE/DX =    0.0                 !
 ! A10   A(3,4,5)              119.9999         -DE/DX =    0.0                 !
 ! A11   A(3,4,10)             119.9854         -DE/DX =    0.0                 !
 ! A12   A(5,4,10)             120.0147         -DE/DX =   -0.0001              !
 ! A13   A(4,5,6)              119.9967         -DE/DX =    0.0                 !
 ! A14   A(4,5,11)             120.0171         -DE/DX =    0.0                 !
 ! A15   A(6,5,11)             119.9862         -DE/DX =    0.0                 !
 ! A16   A(1,6,5)              120.0026         -DE/DX =    0.0                 !
 ! A17   A(1,6,12)             119.9863         -DE/DX =    0.0001              !
 ! A18   A(5,6,12)             120.0111         -DE/DX =    0.0                 !
 ! D1    D(6,1,2,3)             -0.0063         -DE/DX =    0.0                 !
 ! D2    D(6,1,2,8)           -179.9626         -DE/DX =    0.0                 !
 ! D3    D(7,1,2,3)           -179.9494         -DE/DX =    0.0                 !
 ! D4    D(7,1,2,8)              0.0943         -DE/DX =    0.0                 !
 ! D5    D(2,1,6,5)              0.004          -DE/DX =    0.0                 !
 ! D6    D(2,1,6,12)           179.9718         -DE/DX =    0.0                 !
 ! D7    D(7,1,6,5)            179.9471         -DE/DX =    0.0                 !
 ! D8    D(7,1,6,12)            -0.085          -DE/DX =    0.0                 !
 ! D9    D(1,2,3,4)              0.0043         -DE/DX =    0.0                 !
 ! D10   D(1,2,3,9)            179.996          -DE/DX =    0.0                 !
 ! D11   D(8,2,3,4)            179.9606         -DE/DX =    0.0                 !
 ! D12   D(8,2,3,9)             -0.0477         -DE/DX =    0.0                 !
 ! D13   D(2,3,4,5)              0.0            -DE/DX =    0.0                 !
 ! D14   D(2,3,4,10)           179.9767         -DE/DX =    0.0                 !
 ! D15   D(9,3,4,5)            180.0083         -DE/DX =    0.0                 !
 ! D16   D(9,3,4,10)            -0.015          -DE/DX =    0.0                 !
 ! D17   D(3,4,5,6)             -0.0023         -DE/DX =    0.0                 !
 ! D18   D(3,4,5,11)          -180.0033         -DE/DX =    0.0                 !
 ! D19   D(10,4,5,6)          -179.9789         -DE/DX =    0.0                 !
 ! D20   D(10,4,5,11)            0.02           -DE/DX =    0.0                 !
 ! D21   D(4,5,6,1)              0.0003         -DE/DX =    0.0                 !
 ! D22   D(4,5,6,12)           180.0325         -DE/DX =    0.0                 !
 ! D23   D(11,5,6,1)          -179.9986         -DE/DX =    0.0                 !
 ! D24   D(11,5,6,12)            0.0335         -DE/DX =    0.0                 !
 --------------------------------------------------------------------------------
 GradGradGradGradGradGradGradGradGradGradGradGradGradGradGradGradGradGrad

                          Input orientation:                          
 ---------------------------------------------------------------------
 Center     Atomic      Atomic             Coordinates (Angstroms)
 Number     Number       Type             X           Y           Z
 ---------------------------------------------------------------------
      1          6           0        1.885100   -1.036300   -0.112400
      2          6           0        2.921000   -1.630900    0.608100
      3          6           0        2.878300   -1.652000    2.002200
      4          6           0        1.799700   -1.078600    2.675700
      5          6           0        0.763800   -0.484100    1.955100
      6          6           0        0.806600   -0.463000    0.561000
      7          1           0        1.917400   -1.020300   -1.197800
      8          1           0        3.761300   -2.076900    0.084100
      9          1           0        3.684800   -2.115000    2.563100
     10          1           0        1.766500   -1.095500    3.761400
     11          1           0       -0.076000   -0.037700    2.479100
     12          1           0        0.000400    0.000300   -0.000300
 ---------------------------------------------------------------------
                    Distance matrix (angstroms):
                    1          2          3          4          5
     1  C    0.000000
     2  C    1.394904   0.000000
     3  C    2.416002   1.394913   0.000000
     4  C    2.789728   2.416054   1.394908   0.000000
     5  C    2.415946   2.789816   2.416054   1.394913   0.000000
     6  C    1.394741   2.415967   2.789753   2.416023   1.394916
     7  H    1.085998   2.154372   3.400349   3.875726   3.399865
     8  H    2.154434   1.086092   2.153912   3.400128   3.875908
     9  H    3.400120   2.154012   1.086011   2.154160   3.400256
    10  H    3.876067   3.400415   2.154200   1.086339   2.154515
    11  H    3.399851   3.875685   3.400189   2.154153   1.085870
    12  H    2.153880   3.400128   3.875875   3.400365   2.154301
                    6          7          8          9         10
     6  C    0.000000
     7  H    2.153564   0.000000
     8  H    3.400347   2.481862   0.000000
     9  H    3.875764   4.297260   2.480473   0.000000
    10  H    3.400592   4.962065   4.297081   2.480963   0.000000
    11  H    2.153827   4.296364   4.961777   4.297191   2.481540
    12  H    1.086123   2.480024   4.297238   4.961886   4.297706
                   11         12
    11  H    0.000000
    12  H    2.480868   0.000000
 Stoichiometry    C6H6
 Framework group  C1[X(C6H6)]
 Deg. of freedom    30
 Full point group                 C1      NOp   1
 Largest Abelian subgroup         C1      NOp   1
 Largest concise Abelian subgroup C1      NOp   1
                         Standard orientation:                         
 ---------------------------------------------------------------------
 Center     Atomic      Atomic             Coordinates (Angstroms)
 Number     Number       Type             X           Y           Z
 ---------------------------------------------------------------------
      1          6           0       -0.893640   -1.070960   -0.000025
      2          6           0        0.480725   -1.309455    0.000033
      3          6           0        1.374378   -0.238396   -0.000015
      4          6           0        0.893639    1.071053   -0.000030
      5          6           0       -0.480753    1.309443    0.000002
      6          6           0       -1.374341    0.238326    0.000002
      7          1           0       -1.589862   -1.904426    0.000843
      8          1           0        0.855438   -2.328860   -0.000602
      9          1           0        2.444388   -0.424133    0.000096
     10          1           0        1.589813    1.905004    0.000316
     11          1           0       -0.855293    2.328675    0.000046
     12          1           0       -2.444532    0.423675   -0.000505
 ---------------------------------------------------------------------
 Rotational constants (GHZ):      5.7007875      5.7002355      2.8502558
 1\1\GINC-KATANA3\FOpt\RM062X\6-31+G(d)\C6H6\Z5358697\16-Mar-2025\0\\#m
 062X/6-31+G(d) OPT Freq=noraman\\benzene\\0,1\C,1.8851,-1.0363,-0.1124
 \C,2.921,-1.6309,0.6081\C,2.8783,-1.652,2.0022\C,1.7997,-1.0786,2.6757
 \C,0.7638,-0.4841,1.9551\C,0.8066,-0.463,0.561\H,1.9174,-1.0203,-1.197
 8\H,3.7613,-2.0769,0.0841\H,3.6848,-2.115,2.5631\H,1.7665,-1.0955,3.76
 14\H,-0.076,-0.0377,2.4791\H,0.0004,0.0003,-0.0003\\Version=ES64L-G09R
 evD.01\State=1-A\HF=-232.1443902\RMSD=5.326e-09\RMSF=2.428e-04\Dipole=
 -0.000053,-0.0000373,-0.0000687\Quadrupole=0.6471316,-2.7898961,2.1427
 644,-2.7251336,-0.0857388,-0.1594997\PG=C01 [X(C6H6)]\\@


 A SOLDIER'S LIFE IS A LIFE OF HONOR, BUT A DOG WOULD NOT LEAD IT.
 -- PRINCE RUPERT, FOUNDER OF THE HUDSON'S BAY COMPANY
 Job cpu time:       0 days  0 hours  0 minutes 19.7 seconds.
 File lengths (MBytes):  RWF=    132 Int=      0 D2E=      0 Chk=      3 Scr=      2
 Normal termination of Gaussian 09 at Sun Mar 16 20:10:56 2025.
 Link1:  Proceeding to internal job step number  2.
 ---------------------------------------------------------------------
 #N Geom=AllCheck Guess=TCheck SCRF=Check GenChk RM062X/6-31+G(d) Freq
 ---------------------------------------------------------------------
 1/10=4,29=7,30=1,38=1,40=1/1,3;
 2/12=2,40=1/2;
 3/5=1,6=6,7=11,11=2,14=-4,16=1,25=1,30=1,70=2,71=2,74=-55,116=1,140=1/1,2,3;
 4/5=101/1;
 5/5=2,98=1/2;
 8/6=4,10=90,11=11/1;
 11/6=1,8=1,9=11,15=111,16=1/1,2,10;
 10/6=1/2;
 6/7=2,8=2,9=2,10=2,18=1,28=1/1;
 7/8=1,10=1,25=1/1,2,3,16;
 1/10=4,30=1/3;
 99//99;
 Structure from the checkpoint file:  "/srv/scratch/z5358697/gauss/Gau-2398966.chk"
 -------
 benzene
 -------
 Charge =  0 Multiplicity = 1
 Redundant internal coordinates found in file.
 C,0,1.8851,-1.0363,-0.1124
 C,0,2.921,-1.6309,0.6081
 C,0,2.8783,-1.652,2.0022
 C,0,1.7997,-1.0786,2.6757
 C,0,0.7638,-0.4841,1.9551
 C,0,0.8066,-0.463,0.561
 H,0,1.9174,-1.0203,-1.1978
 H,0,3.7613,-2.0769,0.0841
 H,0,3.6848,-2.115,2.5631
 H,0,1.7665,-1.0955,3.7614
 H,0,-0.076,-0.0377,2.4791
 H,0,0.0004,0.0003,-0.0003
 Recover connectivity data from disk.

 GradGradGradGradGradGradGradGradGradGradGradGradGradGradGradGradGradGrad
 Berny optimization.
 Initialization pass.
                           ----------------------------
                           !    Initial Parameters    !
                           ! (Angstroms and Degrees)  !
 --------------------------                            --------------------------
 ! Name  Definition              Value          Derivative Info.                !
 --------------------------------------------------------------------------------
 ! R1    R(1,2)                  1.3949         calculate D2E/DX2 analytically  !
 ! R2    R(1,6)                  1.3947         calculate D2E/DX2 analytically  !
 ! R3    R(1,7)                  1.086          calculate D2E/DX2 analytically  !
 ! R4    R(2,3)                  1.3949         calculate D2E/DX2 analytically  !
 ! R5    R(2,8)                  1.0861         calculate D2E/DX2 analytically  !
 ! R6    R(3,4)                  1.3949         calculate D2E/DX2 analytically  !
 ! R7    R(3,9)                  1.086          calculate D2E/DX2 analytically  !
 ! R8    R(4,5)                  1.3949         calculate D2E/DX2 analytically  !
 ! R9    R(4,10)                 1.0863         calculate D2E/DX2 analytically  !
 ! R10   R(5,6)                  1.3949         calculate D2E/DX2 analytically  !
 ! R11   R(5,11)                 1.0859         calculate D2E/DX2 analytically  !
 ! R12   R(6,12)                 1.0861         calculate D2E/DX2 analytically  !
 ! A1    A(2,1,6)              120.0052         calculate D2E/DX2 analytically  !
 ! A2    A(2,1,7)              120.0285         calculate D2E/DX2 analytically  !
 ! A3    A(6,1,7)              119.9663         calculate D2E/DX2 analytically  !
 ! A4    A(1,2,3)              119.9958         calculate D2E/DX2 analytically  !
 ! A5    A(1,2,8)              120.027          calculate D2E/DX2 analytically  !
 ! A6    A(3,2,8)              119.9771         calculate D2E/DX2 analytically  !
 ! A7    A(2,3,4)              119.9999         calculate D2E/DX2 analytically  !
 ! A8    A(2,3,9)              119.9929         calculate D2E/DX2 analytically  !
 ! A9    A(4,3,9)              120.0073         calculate D2E/DX2 analytically  !
 ! A10   A(3,4,5)              119.9999         calculate D2E/DX2 analytically  !
 ! A11   A(3,4,10)             119.9854         calculate D2E/DX2 analytically  !
 ! A12   A(5,4,10)             120.0147         calculate D2E/DX2 analytically  !
 ! A13   A(4,5,6)              119.9967         calculate D2E/DX2 analytically  !
 ! A14   A(4,5,11)             120.0171         calculate D2E/DX2 analytically  !
 ! A15   A(6,5,11)             119.9862         calculate D2E/DX2 analytically  !
 ! A16   A(1,6,5)              120.0026         calculate D2E/DX2 analytically  !
 ! A17   A(1,6,12)             119.9863         calculate D2E/DX2 analytically  !
 ! A18   A(5,6,12)             120.0111         calculate D2E/DX2 analytically  !
 ! D1    D(6,1,2,3)             -0.0063         calculate D2E/DX2 analytically  !
 ! D2    D(6,1,2,8)           -179.9626         calculate D2E/DX2 analytically  !
 ! D3    D(7,1,2,3)           -179.9494         calculate D2E/DX2 analytically  !
 ! D4    D(7,1,2,8)              0.0943         calculate D2E/DX2 analytically  !
 ! D5    D(2,1,6,5)              0.004          calculate D2E/DX2 analytically  !
 ! D6    D(2,1,6,12)           179.9718         calculate D2E/DX2 analytically  !
 ! D7    D(7,1,6,5)            179.9471         calculate D2E/DX2 analytically  !
 ! D8    D(7,1,6,12)            -0.085          calculate D2E/DX2 analytically  !
 ! D9    D(1,2,3,4)              0.0043         calculate D2E/DX2 analytically  !
 ! D10   D(1,2,3,9)            179.996          calculate D2E/DX2 analytically  !
 ! D11   D(8,2,3,4)            179.9606         calculate D2E/DX2 analytically  !
 ! D12   D(8,2,3,9)             -0.0477         calculate D2E/DX2 analytically  !
 ! D13   D(2,3,4,5)              0.0            calculate D2E/DX2 analytically  !
 ! D14   D(2,3,4,10)           179.9767         calculate D2E/DX2 analytically  !
 ! D15   D(9,3,4,5)           -179.9917         calculate D2E/DX2 analytically  !
 ! D16   D(9,3,4,10)            -0.015          calculate D2E/DX2 analytically  !
 ! D17   D(3,4,5,6)             -0.0023         calculate D2E/DX2 analytically  !
 ! D18   D(3,4,5,11)           179.9967         calculate D2E/DX2 analytically  !
 ! D19   D(10,4,5,6)          -179.9789         calculate D2E/DX2 analytically  !
 ! D20   D(10,4,5,11)            0.02           calculate D2E/DX2 analytically  !
 ! D21   D(4,5,6,1)              0.0003         calculate D2E/DX2 analytically  !
 ! D22   D(4,5,6,12)          -179.9675         calculate D2E/DX2 analytically  !
 ! D23   D(11,5,6,1)          -179.9986         calculate D2E/DX2 analytically  !
 ! D24   D(11,5,6,12)            0.0335         calculate D2E/DX2 analytically  !
 --------------------------------------------------------------------------------
 Trust Radius=3.00D-01 FncErr=1.00D-07 GrdErr=1.00D-07
 Number of steps in this run=      2 maximum allowed number of steps=      2.
 GradGradGradGradGradGradGradGradGradGradGradGradGradGradGradGradGradGrad

                          Input orientation:                          
 ---------------------------------------------------------------------
 Center     Atomic      Atomic             Coordinates (Angstroms)
 Number     Number       Type             X           Y           Z
 ---------------------------------------------------------------------
      1          6           0        1.885100   -1.036300   -0.112400
      2          6           0        2.921000   -1.630900    0.608100
      3          6           0        2.878300   -1.652000    2.002200
      4          6           0        1.799700   -1.078600    2.675700
      5          6           0        0.763800   -0.484100    1.955100
      6          6           0        0.806600   -0.463000    0.561000
      7          1           0        1.917400   -1.020300   -1.197800
      8          1           0        3.761300   -2.076900    0.084100
      9          1           0        3.684800   -2.115000    2.563100
     10          1           0        1.766500   -1.095500    3.761400
     11          1           0       -0.076000   -0.037700    2.479100
     12          1           0        0.000400    0.000300   -0.000300
 ---------------------------------------------------------------------
                    Distance matrix (angstroms):
                    1          2          3          4          5
     1  C    0.000000
     2  C    1.394904   0.000000
     3  C    2.416002   1.394913   0.000000
     4  C    2.789728   2.416054   1.394908   0.000000
     5  C    2.415946   2.789816   2.416054   1.394913   0.000000
     6  C    1.394741   2.415967   2.789753   2.416023   1.394916
     7  H    1.085998   2.154372   3.400349   3.875726   3.399865
     8  H    2.154434   1.086092   2.153912   3.400128   3.875908
     9  H    3.400120   2.154012   1.086011   2.154160   3.400256
    10  H    3.876067   3.400415   2.154200   1.086339   2.154515
    11  H    3.399851   3.875685   3.400189   2.154153   1.085870
    12  H    2.153880   3.400128   3.875875   3.400365   2.154301
                    6          7          8          9         10
     6  C    0.000000
     7  H    2.153564   0.000000
     8  H    3.400347   2.481862   0.000000
     9  H    3.875764   4.297260   2.480473   0.000000
    10  H    3.400592   4.962065   4.297081   2.480963   0.000000
    11  H    2.153827   4.296364   4.961777   4.297191   2.481540
    12  H    1.086123   2.480024   4.297238   4.961886   4.297706
                   11         12
    11  H    0.000000
    12  H    2.480868   0.000000
 Stoichiometry    C6H6
 Framework group  C1[X(C6H6)]
 Deg. of freedom    30
 Full point group                 C1      NOp   1
 Largest Abelian subgroup         C1      NOp   1
 Largest concise Abelian subgroup C1      NOp   1
                         Standard orientation:                         
 ---------------------------------------------------------------------
 Center     Atomic      Atomic             Coordinates (Angstroms)
 Number     Number       Type             X           Y           Z
 ---------------------------------------------------------------------
      1          6           0       -0.893640   -1.070960   -0.000025
      2          6           0        0.480725   -1.309455    0.000033
      3          6           0        1.374378   -0.238396   -0.000015
      4          6           0        0.893639    1.071053   -0.000030
      5          6           0       -0.480753    1.309443    0.000002
      6          6           0       -1.374341    0.238326    0.000002
      7          1           0       -1.589862   -1.904426    0.000843
      8          1           0        0.855438   -2.328860   -0.000602
      9          1           0        2.444388   -0.424133    0.000096
     10          1           0        1.589813    1.905004    0.000316
     11          1           0       -0.855293    2.328675    0.000046
     12          1           0       -2.444532    0.423675   -0.000505
 ---------------------------------------------------------------------
 Rotational constants (GHZ):      5.7007875      5.7002355      2.8502558
 Standard basis: 6-31+G(d) (6D, 7F)
 There are   126 symmetry adapted cartesian basis functions of A   symmetry.
 There are   126 symmetry adapted basis functions of A   symmetry.
   126 basis functions,   216 primitive gaussians,   126 cartesian basis functions
    21 alpha electrons       21 beta electrons
       nuclear repulsion energy       203.4276339527 Hartrees.
 NAtoms=   12 NActive=   12 NUniq=   12 SFac= 1.00D+00 NAtFMM=   60 NAOKFM=F Big=F
 Integral buffers will be    131072 words long.
 Raffenetti 2 integral format.
 Two-electron integral symmetry is turned on.
 One-electron integrals computed using PRISM.
 NBasis=   126 RedAO= T EigKep=  6.37D-06  NBF=   126
 NBsUse=   126 1.00D-06 EigRej= -1.00D+00 NBFU=   126
 Initial guess from the checkpoint file:  "/srv/scratch/z5358697/gauss/Gau-2398966.chk"
 B after Tr=     0.000000    0.000000    0.000000
         Rot=    1.000000    0.000000    0.000000    0.000000 Ang=   0.00 deg.
 Keep R1 ints in memory in canonical form, NReq=33104011.
 Requested convergence on RMS density matrix=1.00D-08 within 128 cycles.
 Requested convergence on MAX density matrix=1.00D-06.
 Requested convergence on             energy=1.00D-06.
 No special actions if energy rises.
 SCF Done:  E(RM062X) =  -232.144390224     A.U. after    1 cycles
            NFock=  1  Conv=0.51D-09     -V/T= 2.0091
 DoSCS=F DFT=T ScalE2(SS,OS)=  1.000000  1.000000
 Range of M.O.s used for correlation:     1   126
 NBasis=   126 NAE=    21 NBE=    21 NFC=     0 NFV=     0
 NROrb=    126 NOA=    21 NOB=    21 NVA=   105 NVB=   105

 **** Warning!!: The largest alpha MO coefficient is  0.11340294D+03

 Symmetrizing basis deriv contribution to polar:
 IMax=3 JMax=2 DiffMx= 0.00D+00
 G2DrvN: will do    13 centers at a time, making    1 passes.
 Calling FoFCou, ICntrl=  3107 FMM=F I1Cent=   0 AccDes= 0.00D+00.
 End of G2Drv F.D. properties file   721 does not exist.
 End of G2Drv F.D. properties file   722 does not exist.
 End of G2Drv F.D. properties file   788 does not exist.
          IDoAtm=111111111111
          Differentiating once with respect to electric field.
                with respect to dipole field.
          Differentiating once with respect to nuclear coordinates.
 Keep R1 ints in memory in canonical form, NReq=33040129.
 CalDSu would require      161709 more words of memory to run efficiently.
 CalDSu:  MaxMB=  32 is small; additional memory will improve performance.
 CalDSu would require      152658 more words of memory to run efficiently.
 CalDSu:  MaxMB=  33 is small; additional memory will improve performance.
          There are    39 degrees of freedom in the 1st order CPHF.  IDoFFX=6 NUNeed=     3.
     39 vectors produced by pass  0 Test12= 5.65D-15 2.56D-09 XBig12= 5.54D+01 4.14D+00.
 AX will form    20 AO Fock derivatives at one time.
 CalDSu would require      153198 more words of memory to run efficiently.
 CalDSu:  MaxMB=  33 is small; additional memory will improve performance.
 CalDSu would require      152658 more words of memory to run efficiently.
 CalDSu:  MaxMB=  33 is small; additional memory will improve performance.
     36 vectors produced by pass  1 Test12= 5.65D-15 2.56D-09 XBig12= 4.78D+00 5.27D-01.
 Not enough memory to run CalDSu, short by      180220 words.
 Error termination via Lnk1e in /apps/z_install_tree/linux-rocky8-ivybridge/gcc-12.2.0/gaussian-09-D.01-wczn3gur5lpur3omlkzwa2l5ecyxp5ef/g09/l1002.exe at Sun Mar 16 20:12:04 2025.
 Job cpu time:       0 days  0 hours  1 minutes  6.3 seconds.
 File lengths (MBytes):  RWF=    132 Int=      0 D2E=      0 Chk=      3 Scr=      2
