 Entering Gaussian System, Link 0=g09
 Initial command:
 /apps/z_install_tree/linux-rocky8-ivybridge/gcc-12.2.0/gaussian-09-D.01-wczn3gur5lpur3omlkzwa2l5ecyxp5ef/g09/l1.exe "/srv/scratch/z5358697/gauss/Gau-2314969.inp" -scrdir="/srv/scratch/z5358697/gauss/"
 Entering Link 1 = /apps/z_install_tree/linux-rocky8-ivybridge/gcc-12.2.0/gaussian-09-D.01-wczn3gur5lpur3omlkzwa2l5ecyxp5ef/g09/l1.exe PID=   2314971.
  
 Copyright (c) 1988,1990,1992,1993,1995,1998,2003,2009,2013,
            Gaussian, Inc.  All Rights Reserved.
  
 This is part of the Gaussian(R) 09 program.  It is based on
 the Gaussian(R) 03 system (copyright 2003, Gaussian, Inc.),
 the Gaussian(R) 98 system (copyright 1998, Gaussian, Inc.),
 the Gaussian(R) 94 system (copyright 1995, Gaussian, Inc.),
 the Gaussian 92(TM) system (copyright 1992, Gaussian, Inc.),
 the Gaussian 90(TM) system (copyright 1990, Gaussian, Inc.),
 the Gaussian 88(TM) system (copyright 1988, Gaussian, Inc.),
 the Gaussian 86(TM) system (copyright 1986, Carnegie Mellon
 University), and the Gaussian 82(TM) system (copyright 1983,
 Carnegie Mellon University). Gaussian is a federally registered
 trademark of Gaussian, Inc.
  
 This software contains proprietary and confidential information,
 including trade secrets, belonging to Gaussian, Inc.
  
 This software is provided under written license and may be
 used, copied, transmitted, or stored only in accord with that
 written license.
  
 The following legend is applicable only to US Government
 contracts under FAR:
  
                    RESTRICTED RIGHTS LEGEND
  
 Use, reproduction and disclosure by the US Government is
 subject to restrictions as set forth in subparagraphs (a)
 and (c) of the Commercial Computer Software - Restricted
 Rights clause in FAR 52.227-19.
  
 Gaussian, Inc.
 340 Quinnipiac St., Bldg. 40, Wallingford CT 06492
  
  
 ---------------------------------------------------------------
 Warning -- This program may not be used in any manner that
 competes with the business of Gaussian, Inc. or will provide
 assistance to any competitor of Gaussian, Inc.  The licensee
 of this program is prohibited from giving any competitor of
 Gaussian, Inc. access to this program.  By using this program,
 the user acknowledges that Gaussian, Inc. is engaged in the
 business of creating and licensing software in the field of
 computational chemistry and represents and warrants to the
 licensee that it is not a competitor of Gaussian, Inc. and that
 it will not use this program in any manner prohibited above.
 ---------------------------------------------------------------
  

 Cite this work as:
 Gaussian 09, Revision D.01,
 M. J. Frisch, G. W. Trucks, H. B. Schlegel, G. E. Scuseria, 
 M. A. Robb, J. R. Cheeseman, G. Scalmani, V. Barone, B. Mennucci, 
 G. A. Petersson, H. Nakatsuji, M. Caricato, X. Li, H. P. Hratchian, 
 A. F. Izmaylov, J. Bloino, G. Zheng, J. L. Sonnenberg, M. Hada, 
 M. Ehara, K. Toyota, R. Fukuda, J. Hasegawa, M. Ishida, T. Nakajima, 
 Y. Honda, O. Kitao, H. Nakai, T. Vreven, J. A. Montgomery, Jr., 
 J. E. Peralta, F. Ogliaro, M. Bearpark, J. J. Heyd, E. Brothers, 
 K. N. Kudin, V. N. Staroverov, T. Keith, R. Kobayashi, J. Normand, 
 K. Raghavachari, A. Rendell, J. C. Burant, S. S. Iyengar, J. Tomasi, 
 M. Cossi, N. Rega, J. M. Millam, M. Klene, J. E. Knox, J. B. Cross, 
 V. Bakken, C. Adamo, J. Jaramillo, R. Gomperts, R. E. Stratmann, 
 O. Yazyev, A. J. Austin, R. Cammi, C. Pomelli, J. W. Ochterski, 
 R. L. Martin, K. Morokuma, V. G. Zakrzewski, G. A. Voth, 
 P. Salvador, J. J. Dannenberg, S. Dapprich, A. D. Daniels, 
 O. Farkas, J. B. Foresman, J. V. Ortiz, J. Cioslowski, 
 and D. J. Fox, Gaussian, Inc., Wallingford CT, 2013.
 
 ******************************************
 Gaussian 09:  ES64L-G09RevD.01 24-Apr-2013
                18-Mar-2025 
 ******************************************
 ---------------------------------
 #m062X/6-31+G(d) OPT Freq=noraman
 ---------------------------------
 1/14=-1,18=20,19=15,26=3,38=1/1,3;
 2/9=110,12=2,17=6,18=5,40=1/2;
 3/5=1,6=6,7=11,11=2,16=1,25=1,30=1,71=1,74=-55/1,2,3;
 4//1;
 5/5=2,38=5/2;
 6/7=2,8=2,9=2,10=2,28=1/1;
 7//1,2,3,16;
 1/14=-1,18=20,19=15,26=3/3(2);
 2/9=110/2;
 99//99;
 2/9=110/2;
 3/5=1,6=6,7=11,11=2,16=1,25=1,30=1,71=1,74=-55/1,2,3;
 4/5=5,16=3,69=1/1;
 5/5=2,38=5/2;
 7//1,2,3,16;
 1/14=-1,18=20,19=15,26=3/3(-5);
 2/9=110/2;
 6/7=2,8=2,9=2,10=2,19=2,28=1/1;
 99/9=1/99;
 -----------
 cyclohexene
 -----------
 Symbolic Z-matrix:
 Charge =  0 Multiplicity = 1
 C                    -0.7647   -1.2385   -0.1625 
 C                     0.6909   -1.2572    0.2957 
 C                     1.4653   -0.0602   -0.2621 
 C                     0.6947    1.2246   -0.1924 
 C                    -0.6207    1.2769    0.0589 
 C                    -1.4654    0.0545    0.2623 
 H                    -1.3007   -2.101     0.2494 
 H                    -0.801    -1.3331   -1.2555 
 H                     0.7252   -1.2374    1.3927 
 H                     1.1739   -2.189    -0.0196 
 H                     2.4036    0.0473    0.2935 
 H                     1.7312   -0.247    -1.3094 
 H                     1.2422    2.1491   -0.3513 
 H                    -1.1122    2.2436    0.117 
 H                    -1.7388   -0.004     1.3225 
 H                    -2.3975    0.1575   -0.3048 
 

 GradGradGradGradGradGradGradGradGradGradGradGradGradGradGradGradGradGrad
 Berny optimization.
 Initialization pass.
                           ----------------------------
                           !    Initial Parameters    !
                           ! (Angstroms and Degrees)  !
 --------------------------                            --------------------------
 ! Name  Definition              Value          Derivative Info.                !
 --------------------------------------------------------------------------------
 ! R1    R(1,2)                  1.5261         estimate D2E/DX2                !
 ! R2    R(1,6)                  1.5308         estimate D2E/DX2                !
 ! R3    R(1,7)                  1.0958         estimate D2E/DX2                !
 ! R4    R(1,8)                  1.0977         estimate D2E/DX2                !
 ! R5    R(2,3)                  1.5309         estimate D2E/DX2                !
 ! R6    R(2,9)                  1.0977         estimate D2E/DX2                !
 ! R7    R(2,10)                 1.0959         estimate D2E/DX2                !
 ! R8    R(3,4)                  1.4998         estimate D2E/DX2                !
 ! R9    R(3,11)                 1.0957         estimate D2E/DX2                !
 ! R10   R(3,12)                 1.0966         estimate D2E/DX2                !
 ! R11   R(4,5)                  1.3402         estimate D2E/DX2                !
 ! R12   R(4,13)                 1.0861         estimate D2E/DX2                !
 ! R13   R(5,6)                  1.4997         estimate D2E/DX2                !
 ! R14   R(5,14)                 1.086          estimate D2E/DX2                !
 ! R15   R(6,15)                 1.0964         estimate D2E/DX2                !
 ! R16   R(6,16)                 1.0959         estimate D2E/DX2                !
 ! A1    A(2,1,6)              111.3226         estimate D2E/DX2                !
 ! A2    A(2,1,7)              110.1221         estimate D2E/DX2                !
 ! A3    A(2,1,8)              109.2348         estimate D2E/DX2                !
 ! A4    A(6,1,7)              109.6706         estimate D2E/DX2                !
 ! A5    A(6,1,8)              109.5104         estimate D2E/DX2                !
 ! A6    A(7,1,8)              106.8739         estimate D2E/DX2                !
 ! A7    A(1,2,3)              111.315          estimate D2E/DX2                !
 ! A8    A(1,2,9)              109.2459         estimate D2E/DX2                !
 ! A9    A(1,2,10)             110.1457         estimate D2E/DX2                !
 ! A10   A(3,2,9)              109.5248         estimate D2E/DX2                !
 ! A11   A(3,2,10)             109.697          estimate D2E/DX2                !
 ! A12   A(9,2,10)             106.8036         estimate D2E/DX2                !
 ! A13   A(2,3,4)              113.1395         estimate D2E/DX2                !
 ! A14   A(2,3,11)             108.973          estimate D2E/DX2                !
 ! A15   A(2,3,12)             109.7221         estimate D2E/DX2                !
 ! A16   A(4,3,11)             109.4126         estimate D2E/DX2                !
 ! A17   A(4,3,12)             108.3552         estimate D2E/DX2                !
 ! A18   A(11,3,12)            107.0583         estimate D2E/DX2                !
 ! A19   A(3,4,5)              123.1227         estimate D2E/DX2                !
 ! A20   A(3,4,13)             117.6045         estimate D2E/DX2                !
 ! A21   A(5,4,13)             119.2724         estimate D2E/DX2                !
 ! A22   A(4,5,6)              123.1228         estimate D2E/DX2                !
 ! A23   A(4,5,14)             119.272          estimate D2E/DX2                !
 ! A24   A(6,5,14)             117.6048         estimate D2E/DX2                !
 ! A25   A(1,6,5)              113.1428         estimate D2E/DX2                !
 ! A26   A(1,6,15)             109.7188         estimate D2E/DX2                !
 ! A27   A(1,6,16)             108.972          estimate D2E/DX2                !
 ! A28   A(5,6,15)             108.3653         estimate D2E/DX2                !
 ! A29   A(5,6,16)             109.4061         estimate D2E/DX2                !
 ! A30   A(15,6,16)            107.0555         estimate D2E/DX2                !
 ! D1    D(6,1,2,3)            -57.994          estimate D2E/DX2                !
 ! D2    D(6,1,2,9)             63.085          estimate D2E/DX2                !
 ! D3    D(6,1,2,10)          -179.8989         estimate D2E/DX2                !
 ! D4    D(7,1,2,3)           -179.8544         estimate D2E/DX2                !
 ! D5    D(7,1,2,9)            -58.7754         estimate D2E/DX2                !
 ! D6    D(7,1,2,10)            58.2407         estimate D2E/DX2                !
 ! D7    D(8,1,2,3)             63.0646         estimate D2E/DX2                !
 ! D8    D(8,1,2,9)           -175.8565         estimate D2E/DX2                !
 ! D9    D(8,1,2,10)           -58.8404         estimate D2E/DX2                !
 ! D10   D(2,1,6,5)             42.7102         estimate D2E/DX2                !
 ! D11   D(2,1,6,15)           -78.4337         estimate D2E/DX2                !
 ! D12   D(2,1,6,16)           164.6503         estimate D2E/DX2                !
 ! D13   D(7,1,6,5)            164.8322         estimate D2E/DX2                !
 ! D14   D(7,1,6,15)            43.6883         estimate D2E/DX2                !
 ! D15   D(7,1,6,16)           -73.2277         estimate D2E/DX2                !
 ! D16   D(8,1,6,5)            -78.1869         estimate D2E/DX2                !
 ! D17   D(8,1,6,15)           160.6692         estimate D2E/DX2                !
 ! D18   D(8,1,6,16)            43.7532         estimate D2E/DX2                !
 ! D19   D(1,2,3,4)             42.7119         estimate D2E/DX2                !
 ! D20   D(1,2,3,11)           164.6589         estimate D2E/DX2                !
 ! D21   D(1,2,3,12)           -78.4192         estimate D2E/DX2                !
 ! D22   D(9,2,3,4)            -78.2037         estimate D2E/DX2                !
 ! D23   D(9,2,3,11)            43.7433         estimate D2E/DX2                !
 ! D24   D(9,2,3,12)           160.6652         estimate D2E/DX2                !
 ! D25   D(10,2,3,4)           164.8768         estimate D2E/DX2                !
 ! D26   D(10,2,3,11)          -73.1762         estimate D2E/DX2                !
 ! D27   D(10,2,3,12)           43.7457         estimate D2E/DX2                !
 ! D28   D(2,3,4,5)            -13.4436         estimate D2E/DX2                !
 ! D29   D(2,3,4,13)           166.3123         estimate D2E/DX2                !
 ! D30   D(11,3,4,5)          -135.144          estimate D2E/DX2                !
 ! D31   D(11,3,4,13)           44.6118         estimate D2E/DX2                !
 ! D32   D(12,3,4,5)           108.4568         estimate D2E/DX2                !
 ! D33   D(12,3,4,13)          -71.7873         estimate D2E/DX2                !
 ! D34   D(3,4,5,6)             -1.592          estimate D2E/DX2                !
 ! D35   D(3,4,5,14)           178.6518         estimate D2E/DX2                !
 ! D36   D(13,4,5,6)           178.656          estimate D2E/DX2                !
 ! D37   D(13,4,5,14)           -1.1002         estimate D2E/DX2                !
 ! D38   D(4,5,6,1)            -13.4369         estimate D2E/DX2                !
 ! D39   D(4,5,6,15)           108.4685         estimate D2E/DX2                !
 ! D40   D(4,5,6,16)          -135.1336         estimate D2E/DX2                !
 ! D41   D(14,5,6,1)           166.3231         estimate D2E/DX2                !
 ! D42   D(14,5,6,15)          -71.7714         estimate D2E/DX2                !
 ! D43   D(14,5,6,16)           44.6265         estimate D2E/DX2                !
 --------------------------------------------------------------------------------
 Trust Radius=3.00D-01 FncErr=1.00D-07 GrdErr=1.00D-06
 Number of steps in this run=     99 maximum allowed number of steps=    100.
 GradGradGradGradGradGradGradGradGradGradGradGradGradGradGradGradGradGrad

                          Input orientation:                          
 ---------------------------------------------------------------------
 Center     Atomic      Atomic             Coordinates (Angstroms)
 Number     Number       Type             X           Y           Z
 ---------------------------------------------------------------------
      1          6           0       -0.764700   -1.238500   -0.162500
      2          6           0        0.690900   -1.257200    0.295700
      3          6           0        1.465300   -0.060200   -0.262100
      4          6           0        0.694700    1.224600   -0.192400
      5          6           0       -0.620700    1.276900    0.058900
      6          6           0       -1.465400    0.054500    0.262300
      7          1           0       -1.300700   -2.101000    0.249400
      8          1           0       -0.801000   -1.333100   -1.255500
      9          1           0        0.725200   -1.237400    1.392700
     10          1           0        1.173900   -2.189000   -0.019600
     11          1           0        2.403600    0.047300    0.293500
     12          1           0        1.731200   -0.247000   -1.309400
     13          1           0        1.242200    2.149100   -0.351300
     14          1           0       -1.112200    2.243600    0.117000
     15          1           0       -1.738800   -0.004000    1.322500
     16          1           0       -2.397500    0.157500   -0.304800
 ---------------------------------------------------------------------
                    Distance matrix (angstroms):
                    1          2          3          4          5
     1  C    0.000000
     2  C    1.526129   0.000000
     3  C    2.524126   1.530897   0.000000
     4  C    2.863146   2.529345   1.499798   0.000000
     5  C    2.529227   2.863220   2.498454   1.340210   0.000000
     6  C    1.530779   2.524144   2.979455   2.498383   1.499717
     7  H    1.095839   2.163472   3.475234   3.903386   3.450927
     8  H    1.097687   2.153543   2.782667   3.147877   2.927841
     9  H    2.153706   1.097715   2.161460   2.928296   3.148360
    10  H    2.163802   1.095881   2.162293   3.451399   3.903744
    11  H    3.449542   2.152920   1.095744   2.131308   3.273124
    12  H    2.920269   2.163117   1.096556   2.118402   3.118645
    13  H    3.941970   3.510758   2.222327   1.086143   2.097473
    14  H    3.510541   3.941916   3.477746   2.097374   1.086028
    15  H    2.162888   2.920320   3.574965   3.118702   2.118381
    16  H    2.152929   3.449665   3.869165   3.273078   2.131279
                    6          7          8          9         10
     6  C    0.000000
     7  H    2.161822   0.000000
     8  H    2.161152   1.761844   0.000000
     9  H    2.783081   2.481373   3.058007   0.000000
    10  H    3.475437   2.490733   2.481984   1.761098   0.000000
    11  H    3.869132   4.282403   3.817639   2.382377   2.571231
    12  H    3.574828   3.880669   2.755822   3.048651   2.396984
    13  H    3.477780   4.989041   4.137386   3.844113   4.351299
    14  H    2.222166   4.350702   3.843616   4.137730   4.989274
    15  H    1.096446   2.396014   3.048288   2.756356   3.880629
    16  H    1.095911   2.571173   2.382127   3.818181   4.282791
                   11         12         13         14         15
    11  H    0.000000
    12  H    1.762958   0.000000
    13  H    2.486399   2.626475   0.000000
    14  H    4.149185   4.040127   2.402381   0.000000
    15  H    4.268601   4.361977   4.040273   2.626321   0.000000
    16  H    4.839490   4.268373   4.149223   2.486307   1.762973
                   16
    16  H    0.000000
 Stoichiometry    C6H10
 Framework group  C1[X(C6H10)]
 Deg. of freedom    42
 Full point group                 C1      NOp   1
 Largest Abelian subgroup         C1      NOp   1
 Largest concise Abelian subgroup C1      NOp   1
                         Standard orientation:                         
 ---------------------------------------------------------------------
 Center     Atomic      Atomic             Coordinates (Angstroms)
 Number     Number       Type             X           Y           Z
 ---------------------------------------------------------------------
      1          6           0        0.699180   -1.195760    0.304169
      2          6           0       -0.700507   -1.195102   -0.304061
      3          6           0       -1.485791    0.052717    0.108158
      4          6           0       -0.666972    1.308205    0.056385
      5          6           0        0.668473    1.307427   -0.056530
      6          6           0        1.485808    0.051060   -0.108073
      7          1           0        1.244195   -2.094748   -0.005092
      8          1           0        0.618035   -1.232929    1.398221
      9          1           0       -0.619615   -1.232865   -1.398139
     10          1           0       -1.246519   -2.093793    0.004451
     11          1           0       -2.356691    0.158579   -0.548333
     12          1           0       -1.865814   -0.069829    1.129431
     13          1           0       -1.194858    2.255917    0.110072
     14          1           0        1.197380    2.254426   -0.110452
     15          1           0        1.865915   -0.072147   -1.129118
     16          1           0        2.356825    0.156102    0.548673
 ---------------------------------------------------------------------
 Rotational constants (GHZ):      4.7100314      4.5880610      2.5522531
 Standard basis: 6-31+G(d) (6D, 7F)
 There are   134 symmetry adapted cartesian basis functions of A   symmetry.
 There are   134 symmetry adapted basis functions of A   symmetry.
   134 basis functions,   232 primitive gaussians,   134 cartesian basis functions
    23 alpha electrons       23 beta electrons
       nuclear repulsion energy       236.9051359696 Hartrees.
 NAtoms=   16 NActive=   16 NUniq=   16 SFac= 1.00D+00 NAtFMM=   60 NAOKFM=F Big=F
 Integral buffers will be    131072 words long.
 Raffenetti 2 integral format.
 Two-electron integral symmetry is turned on.
 One-electron integrals computed using PRISM.
 NBasis=   134 RedAO= T EigKep=  2.81D-05  NBF=   134
 NBsUse=   134 1.00D-06 EigRej= -1.00D+00 NBFU=   134
 ExpMin= 4.38D-02 ExpMax= 3.05D+03 ExpMxC= 4.57D+02 IAcc=2 IRadAn=         4 AccDes= 0.00D+00
 Harris functional with IExCor= 1009 and IRadAn=       4 diagonalized for initial guess.
 HarFok:  IExCor= 1009 AccDes= 0.00D+00 IRadAn=         4 IDoV= 1 UseB2=F ITyADJ=14
 ICtDFT=  3500011 ScaDFX=  1.000000  1.000000  1.000000  1.000000
 FoFCou: FMM=F IPFlag=           0 FMFlag=      100000 FMFlg1=           0
         NFxFlg=           0 DoJE=T BraDBF=F KetDBF=T FulRan=T
         wScrn=  0.000000 ICntrl=     500 IOpCl=  0 I1Cent=   200000004 NGrid=           0
         NMat0=    1 NMatS0=      1 NMatT0=    0 NMatD0=    1 NMtDS0=    0 NMtDT0=    0
 Petite list used in FoFCou.
 Requested convergence on RMS density matrix=1.00D-08 within 128 cycles.
 Requested convergence on MAX density matrix=1.00D-06.
 Requested convergence on             energy=1.00D-06.
 No special actions if energy rises.
 SCF Done:  E(RM062X) =  -234.531037221     A.U. after   12 cycles
            NFock= 12  Conv=0.11D-08     -V/T= 2.0090

 **********************************************************************

            Population analysis using the SCF density.

 **********************************************************************

 Orbital symmetries:
       Occupied  (A) (A) (A) (A) (A) (A) (A) (A) (A) (A) (A) (A)
                 (A) (A) (A) (A) (A) (A) (A) (A) (A) (A) (A)
       Virtual   (A) (A) (A) (A) (A) (A) (A) (A) (A) (A) (A) (A)
                 (A) (A) (A) (A) (A) (A) (A) (A) (A) (A) (A) (A)
                 (A) (A) (A) (A) (A) (A) (A) (A) (A) (A) (A) (A)
                 (A) (A) (A) (A) (A) (A) (A) (A) (A) (A) (A) (A)
                 (A) (A) (A) (A) (A) (A) (A) (A) (A) (A) (A) (A)
                 (A) (A) (A) (A) (A) (A) (A) (A) (A) (A) (A) (A)
                 (A) (A) (A) (A) (A) (A) (A) (A) (A) (A) (A) (A)
                 (A) (A) (A) (A) (A) (A) (A) (A) (A) (A) (A) (A)
                 (A) (A) (A) (A) (A) (A) (A) (A) (A) (A) (A) (A)
                 (A) (A) (A)
 The electronic state is 1-A.
 Alpha  occ. eigenvalues --  -10.54228 -10.54220 -10.54181 -10.54082 -10.54018
 Alpha  occ. eigenvalues --  -10.53981  -0.93400  -0.83676  -0.83518  -0.70269
 Alpha  occ. eigenvalues --   -0.68171  -0.58365  -0.56407  -0.51882  -0.49546
 Alpha  occ. eigenvalues --   -0.46906  -0.45293  -0.44641  -0.43722  -0.38603
 Alpha  occ. eigenvalues --   -0.37010  -0.36138  -0.29388
 Alpha virt. eigenvalues --    0.02326   0.03773   0.03902   0.04572   0.05047
 Alpha virt. eigenvalues --    0.05525   0.05725   0.08286   0.08690   0.09057
 Alpha virt. eigenvalues --    0.10677   0.10999   0.12284   0.12869   0.13383
 Alpha virt. eigenvalues --    0.13644   0.14449   0.15226   0.15630   0.17431
 Alpha virt. eigenvalues --    0.18528   0.19941   0.20062   0.20727   0.21857
 Alpha virt. eigenvalues --    0.24251   0.25502   0.27949   0.29016   0.29156
 Alpha virt. eigenvalues --    0.29580   0.31600   0.33557   0.34657   0.35384
 Alpha virt. eigenvalues --    0.37236   0.39538   0.40135   0.44683   0.44699
 Alpha virt. eigenvalues --    0.52212   0.64337   0.66944   0.67015   0.70458
 Alpha virt. eigenvalues --    0.72674   0.75028   0.76519   0.77120   0.78133
 Alpha virt. eigenvalues --    0.79293   0.80498   0.81574   0.81714   0.88283
 Alpha virt. eigenvalues --    0.94262   0.96729   1.00408   1.03257   1.04015
 Alpha virt. eigenvalues --    1.05725   1.06491   1.07200   1.09772   1.16776
 Alpha virt. eigenvalues --    1.16947   1.18780   1.20624   1.21600   1.23724
 Alpha virt. eigenvalues --    1.25004   1.33070   1.48030   1.49222   1.52354
 Alpha virt. eigenvalues --    1.59607   1.67222   1.71022   1.75574   1.80296
 Alpha virt. eigenvalues --    1.86804   1.91523   1.97412   1.97819   2.01622
 Alpha virt. eigenvalues --    2.02997   2.03780   2.09123   2.16556   2.22518
 Alpha virt. eigenvalues --    2.24145   2.25446   2.35177   2.41847   2.43707
 Alpha virt. eigenvalues --    2.44686   2.47445   2.51383   2.59539   2.62693
 Alpha virt. eigenvalues --    2.64195   2.73795   2.74158   2.92217   3.05463
 Alpha virt. eigenvalues --    4.21780   4.30547   4.32846   4.48097   4.55553
 Alpha virt. eigenvalues --    4.65893
          Condensed to atoms (all electrons):
               1          2          3          4          5          6
     1  C    6.003720  -0.029447  -0.100230  -0.067351  -0.023334   0.019556
     2  C   -0.029447   6.004388   0.019427  -0.023411  -0.067406  -0.100493
     3  C   -0.100230   0.019427   6.053686  -0.065778   0.112978  -0.112175
     4  C   -0.067351  -0.023411  -0.065778   5.541723   0.281503   0.112988
     5  C   -0.023334  -0.067406   0.112978   0.281503   5.541928  -0.065960
     6  C    0.019556  -0.100493  -0.112175   0.112988  -0.065960   6.054084
     7  H    0.409590  -0.066704   0.031265  -0.019302   0.033855  -0.068220
     8  H    0.464571  -0.061223  -0.000022  -0.017811   0.017224  -0.089572
     9  H   -0.061197   0.464586  -0.089505   0.017198  -0.017800  -0.000079
    10  H   -0.066649   0.409508  -0.068117   0.033813  -0.019276   0.031246
    11  H    0.040294  -0.085525   0.426275  -0.065768   0.009862  -0.009823
    12  H   -0.039234   0.004609   0.413093  -0.059106  -0.018909   0.004689
    13  H   -0.002801   0.004774   0.003921   0.265202   0.039033  -0.002455
    14  H    0.004767  -0.002806  -0.002457   0.039029   0.265216   0.003923
    15  H    0.004586  -0.039207   0.004682  -0.018870  -0.059085   0.413045
    16  H   -0.085586   0.040328  -0.009836   0.009878  -0.065834   0.426346
               7          8          9         10         11         12
     1  C    0.409590   0.464571  -0.061197  -0.066649   0.040294  -0.039234
     2  C   -0.066704  -0.061223   0.464586   0.409508  -0.085525   0.004609
     3  C    0.031265  -0.000022  -0.089505  -0.068117   0.426275   0.413093
     4  C   -0.019302  -0.017811   0.017198   0.033813  -0.065768  -0.059106
     5  C    0.033855   0.017224  -0.017800  -0.019276   0.009862  -0.018909
     6  C   -0.068220  -0.089572  -0.000079   0.031246  -0.009823   0.004689
     7  H    0.514373  -0.030014  -0.004162  -0.002273  -0.000102  -0.000112
     8  H   -0.030014   0.499914   0.004144  -0.004165  -0.000026   0.001557
     9  H   -0.004162   0.004144   0.499977  -0.030115  -0.004904   0.003643
    10  H   -0.002273  -0.004165  -0.030115   0.514408  -0.001206  -0.005222
    11  H   -0.000102  -0.000026  -0.004904  -0.001206   0.512628  -0.031840
    12  H   -0.000112   0.001557   0.003643  -0.005222  -0.031840   0.504040
    13  H    0.000008  -0.000043  -0.000082  -0.000085  -0.003401  -0.000009
    14  H   -0.000085  -0.000083  -0.000043   0.000008  -0.000107  -0.000152
    15  H   -0.005227   0.003646   0.001556  -0.000113   0.000089  -0.000069
    16  H   -0.001209  -0.004911  -0.000026  -0.000102  -0.000005   0.000089
              13         14         15         16
     1  C   -0.002801   0.004767   0.004586  -0.085586
     2  C    0.004774  -0.002806  -0.039207   0.040328
     3  C    0.003921  -0.002457   0.004682  -0.009836
     4  C    0.265202   0.039029  -0.018870   0.009878
     5  C    0.039033   0.265216  -0.059085  -0.065834
     6  C   -0.002455   0.003923   0.413045   0.426346
     7  H    0.000008  -0.000085  -0.005227  -0.001209
     8  H   -0.000043  -0.000083   0.003646  -0.004911
     9  H   -0.000082  -0.000043   0.001556  -0.000026
    10  H   -0.000085   0.000008  -0.000113  -0.000102
    11  H   -0.003401  -0.000107   0.000089  -0.000005
    12  H   -0.000009  -0.000152  -0.000069   0.000089
    13  H    0.511677  -0.006301  -0.000152  -0.000107
    14  H   -0.006301   0.511679  -0.000011  -0.003402
    15  H   -0.000152  -0.000011   0.504032  -0.031844
    16  H   -0.000107  -0.003402  -0.031844   0.512682
 Mulliken charges:
               1
     1  C   -0.471255
     2  C   -0.471396
     3  C   -0.617208
     4  C    0.036064
     5  C    0.036004
     6  C   -0.617100
     7  H    0.208319
     8  H    0.216813
     9  H    0.216808
    10  H    0.208338
    11  H    0.213558
    12  H    0.222935
    13  H    0.190821
    14  H    0.190822
    15  H    0.222941
    16  H    0.213537
 Sum of Mulliken charges =   0.00000
 Mulliken charges with hydrogens summed into heavy atoms:
               1
     1  C   -0.046122
     2  C   -0.046250
     3  C   -0.180716
     4  C    0.226884
     5  C    0.226826
     6  C   -0.180621
 Electronic spatial extent (au):  <R**2>=            552.7159
 Charge=              0.0000 electrons
 Dipole moment (field-independent basis, Debye):
    X=             -0.0002    Y=             -0.3398    Z=             -0.0004  Tot=              0.3398
 Quadrupole moment (field-independent basis, Debye-Ang):
   XX=            -37.4512   YY=            -38.4897   ZZ=            -39.9759
   XY=             -0.0003   XZ=             -0.2284   YZ=              0.0019
 Traceless Quadrupole moment (field-independent basis, Debye-Ang):
   XX=              1.1877   YY=              0.1492   ZZ=             -1.3370
   XY=             -0.0003   XZ=             -0.2284   YZ=              0.0019
 Octapole moment (field-independent basis, Debye-Ang**2):
  XXX=              0.0021  YYY=              1.8382  ZZZ=              0.0017  XYY=             -0.0024
  XXY=              1.6338  XXZ=             -0.0025  XZZ=             -0.0015  YZZ=             -3.3578
  YYZ=             -0.0069  XYZ=              0.2571
 Hexadecapole moment (field-independent basis, Debye-Ang**3):
 XXXX=           -355.8370 YYYY=           -332.9222 ZZZZ=            -84.9646 XXXY=              0.0073
 XXXZ=              3.0275 YYYX=              0.0027 YYYZ=              0.0123 ZZZX=             -1.2438
 ZZZY=              0.0027 XXYY=           -112.2336 XXZZ=            -71.5615 YYZZ=            -77.6125
 XXYZ=              0.0003 YYXZ=             -2.1349 ZZXY=             -0.0037
 N-N= 2.369051359696D+02 E-N=-1.015709914362D+03  KE= 2.324289708308D+02
 Calling FoFJK, ICntrl=      2127 FMM=F ISym2X=0 I1Cent= 0 IOpClX= 0 NMat=1 NMatS=1 NMatT=0.
 ***** Axes restored to original set *****
 -------------------------------------------------------------------
 Center     Atomic                   Forces (Hartrees/Bohr)
 Number     Number              X              Y              Z
 -------------------------------------------------------------------
      1        6           0.000178632   -0.000117910    0.000082060
      2        6          -0.000110395   -0.000099310   -0.000010113
      3        6           0.001730421   -0.002620016    0.000655491
      4        6          -0.009880533    0.001221029    0.003317554
      5        6           0.009980319    0.000246936   -0.003388228
      6        6          -0.001983256   -0.002515985   -0.000468304
      7        1          -0.000435724   -0.000186066   -0.000863629
      8        1           0.000390346    0.000819519   -0.000601499
      9        1          -0.000375071    0.000991814    0.000506822
     10        1           0.000401173   -0.000071881    0.000770403
     11        1           0.002130251    0.000506991   -0.001858049
     12        1           0.002731912   -0.001076230   -0.001509172
     13        1           0.001380065    0.001323813   -0.000334338
     14        1          -0.001332531    0.001502365    0.000185972
     15        1          -0.002799789   -0.000731263    0.001674583
     16        1          -0.002005819    0.000806191    0.001840447
 -------------------------------------------------------------------
 Cartesian Forces:  Max     0.009980319 RMS     0.002469117

 GradGradGradGradGradGradGradGradGradGradGradGradGradGradGradGradGradGrad
 Berny optimization.
 FormGI is forming the generalized inverse of G from B-inverse, IUseBI=4.
 Internal  Forces:  Max     0.004787117 RMS     0.001330545
 Search for a local minimum.
 Step number   1 out of a maximum of   99
 All quantities printed in internal units (Hartrees-Bohrs-Radians)
 Mixed Optimization -- RFO/linear search
 Second derivative matrix not updated -- first step.
 ITU=  0
     Eigenvalues ---    0.00572   0.00632   0.01281   0.01348   0.01791
     Eigenvalues ---    0.03014   0.03101   0.04152   0.04208   0.04927
     Eigenvalues ---    0.05287   0.05780   0.05908   0.07546   0.08125
     Eigenvalues ---    0.08128   0.09507   0.09508   0.09654   0.11880
     Eigenvalues ---    0.12255   0.16000   0.16000   0.18913   0.19242
     Eigenvalues ---    0.21992   0.28434   0.28624   0.28687   0.31639
     Eigenvalues ---    0.32038   0.33936   0.33939   0.34066   0.34078
     Eigenvalues ---    0.34138   0.34142   0.34146   0.34157   0.35262
     Eigenvalues ---    0.35276   0.54969
 RFO step:  Lambda=-1.12089201D-03 EMin= 5.72284566D-03
 Linear search not attempted -- first point.
 Iteration  1 RMS(Cart)=  0.02545531 RMS(Int)=  0.00038519
 Iteration  2 RMS(Cart)=  0.00043160 RMS(Int)=  0.00010984
 Iteration  3 RMS(Cart)=  0.00000007 RMS(Int)=  0.00010984
 Variable       Old X    -DE/DX   Delta X   Delta X   Delta X     New X
                                 (Linear)    (Quad)   (Total)
    R1        2.88396   0.00237   0.00000   0.00651   0.00637   2.89034
    R2        2.89275   0.00127   0.00000   0.00225   0.00228   2.89503
    R3        2.07084   0.00004   0.00000   0.00011   0.00011   2.07094
    R4        2.07433   0.00051   0.00000   0.00150   0.00150   2.07583
    R5        2.89298   0.00118   0.00000   0.00195   0.00198   2.89496
    R6        2.07438   0.00051   0.00000   0.00149   0.00149   2.07587
    R7        2.07091   0.00002   0.00000   0.00005   0.00005   2.07097
    R8        2.83421   0.00408   0.00000   0.01395   0.01398   2.84818
    R9        2.07066   0.00093   0.00000   0.00270   0.00270   2.07336
   R10        2.07219   0.00229   0.00000   0.00671   0.00671   2.07890
   R11        2.53263  -0.00479   0.00000  -0.00688  -0.00684   2.52579
   R12        2.05251   0.00187   0.00000   0.00529   0.00529   2.05780
   R13        2.83405   0.00412   0.00000   0.01408   0.01411   2.84816
   R14        2.05230   0.00195   0.00000   0.00551   0.00551   2.05781
   R15        2.07198   0.00236   0.00000   0.00691   0.00691   2.07889
   R16        2.07097   0.00082   0.00000   0.00241   0.00241   2.07338
    A1        1.94295   0.00076   0.00000  -0.00639  -0.00680   1.93614
    A2        1.92199   0.00052   0.00000   0.00811   0.00835   1.93035
    A3        1.90651  -0.00074   0.00000  -0.00257  -0.00260   1.90391
    A4        1.91411  -0.00115   0.00000   0.00211   0.00216   1.91628
    A5        1.91132   0.00046   0.00000  -0.00218  -0.00201   1.90931
    A6        1.86530   0.00013   0.00000   0.00117   0.00111   1.86641
    A7        1.94281   0.00083   0.00000  -0.00619  -0.00660   1.93621
    A8        1.90670  -0.00076   0.00000  -0.00268  -0.00270   1.90400
    A9        1.92241   0.00048   0.00000   0.00771   0.00795   1.93035
   A10        1.91157   0.00043   0.00000  -0.00243  -0.00226   1.90931
   A11        1.91457  -0.00119   0.00000   0.00167   0.00172   1.91630
   A12        1.86407   0.00020   0.00000   0.00220   0.00214   1.86622
   A13        1.97466  -0.00297   0.00000  -0.02093  -0.02096   1.95370
   A14        1.90194   0.00204   0.00000   0.01573   0.01573   1.91767
   A15        1.91501   0.00053   0.00000   0.00474   0.00488   1.91989
   A16        1.90961   0.00058   0.00000   0.00286   0.00307   1.91268
   A17        1.89116   0.00171   0.00000   0.01758   0.01753   1.90869
   A18        1.86852  -0.00187   0.00000  -0.02025  -0.02028   1.84824
   A19        2.14890   0.00189   0.00000   0.00623   0.00608   2.15497
   A20        2.05258  -0.00148   0.00000  -0.00641  -0.00634   2.04625
   A21        2.08170  -0.00042   0.00000   0.00018   0.00026   2.08195
   A22        2.14890   0.00189   0.00000   0.00621   0.00605   2.15495
   A23        2.08169  -0.00042   0.00000   0.00016   0.00024   2.08193
   A24        2.05259  -0.00147   0.00000  -0.00637  -0.00630   2.04629
   A25        1.97471  -0.00296   0.00000  -0.02092  -0.02095   1.95376
   A26        1.91495   0.00055   0.00000   0.00487   0.00501   1.91996
   A27        1.90192   0.00202   0.00000   0.01567   0.01568   1.91760
   A28        1.89133   0.00169   0.00000   0.01742   0.01737   1.90871
   A29        1.90950   0.00059   0.00000   0.00293   0.00315   1.91264
   A30        1.86847  -0.00187   0.00000  -0.02025  -0.02028   1.84819
    D1       -1.01219  -0.00169   0.00000  -0.05225  -0.05238  -1.06457
    D2        1.10104  -0.00113   0.00000  -0.06105  -0.06116   1.03988
    D3       -3.13983  -0.00107   0.00000  -0.05550  -0.05555   3.08781
    D4       -3.13905  -0.00110   0.00000  -0.05620  -0.05625   3.08788
    D5       -1.02582  -0.00054   0.00000  -0.06500  -0.06503  -1.09086
    D6        1.01649  -0.00048   0.00000  -0.05945  -0.05942   0.95707
    D7        1.10068  -0.00112   0.00000  -0.06080  -0.06091   1.03977
    D8       -3.06927  -0.00056   0.00000  -0.06960  -0.06969  -3.13897
    D9       -1.02696  -0.00049   0.00000  -0.06405  -0.06408  -1.09104
   D10        0.74543  -0.00013   0.00000   0.02932   0.02913   0.77456
   D11       -1.36893  -0.00068   0.00000   0.01768   0.01759  -1.35134
   D12        2.87369   0.00009   0.00000   0.03027   0.03013   2.90382
   D13        2.87686   0.00025   0.00000   0.03675   0.03661   2.91348
   D14        0.76251  -0.00031   0.00000   0.02512   0.02507   0.78758
   D15       -1.27806   0.00047   0.00000   0.03770   0.03762  -1.24045
   D16       -1.36462   0.00000   0.00000   0.03812   0.03804  -1.32658
   D17        2.80421  -0.00055   0.00000   0.02649   0.02650   2.83071
   D18        0.76364   0.00022   0.00000   0.03907   0.03904   0.80268
   D19        0.74546  -0.00011   0.00000   0.02945   0.02927   0.77473
   D20        2.87384   0.00010   0.00000   0.03034   0.03021   2.90405
   D21       -1.36867  -0.00067   0.00000   0.01771   0.01762  -1.35105
   D22       -1.36491   0.00003   0.00000   0.03843   0.03835  -1.32656
   D23        0.76346   0.00024   0.00000   0.03932   0.03929   0.80276
   D24        2.80414  -0.00054   0.00000   0.02669   0.02671   2.83084
   D25        2.87764   0.00023   0.00000   0.03621   0.03607   2.91371
   D26       -1.27717   0.00044   0.00000   0.03710   0.03701  -1.24015
   D27        0.76351  -0.00033   0.00000   0.02447   0.02443   0.78793
   D28       -0.23463   0.00013   0.00000  -0.00579  -0.00579  -0.24042
   D29        2.90270   0.00027   0.00000  -0.00695  -0.00691   2.89579
   D30       -2.35871  -0.00089   0.00000  -0.01381  -0.01388  -2.37259
   D31        0.77862  -0.00076   0.00000  -0.01497  -0.01500   0.76362
   D32        1.89293   0.00007   0.00000  -0.00103  -0.00115   1.89178
   D33       -1.25293   0.00021   0.00000  -0.00219  -0.00227  -1.25520
   D34       -0.02779   0.00007   0.00000  -0.00536  -0.00534  -0.03312
   D35        3.11806  -0.00008   0.00000  -0.00399  -0.00401   3.11405
   D36        3.11814  -0.00007   0.00000  -0.00416  -0.00418   3.11395
   D37       -0.01920  -0.00021   0.00000  -0.00280  -0.00286  -0.02206
   D38       -0.23452   0.00011   0.00000  -0.00577  -0.00577  -0.24029
   D39        1.89313   0.00006   0.00000  -0.00096  -0.00108   1.89206
   D40       -2.35853  -0.00090   0.00000  -0.01378  -0.01386  -2.37238
   D41        2.90289   0.00025   0.00000  -0.00710  -0.00706   2.89583
   D42       -1.25265   0.00021   0.00000  -0.00228  -0.00236  -1.25501
   D43        0.77888  -0.00076   0.00000  -0.01511  -0.01514   0.76374
         Item               Value     Threshold  Converged?
 Maximum Force            0.004787     0.000450     NO 
 RMS     Force            0.001331     0.000300     NO 
 Maximum Displacement     0.096442     0.001800     NO 
 RMS     Displacement     0.025531     0.001200     NO 
 Predicted change in Energy=-5.901905D-04
 GradGradGradGradGradGradGradGradGradGradGradGradGradGradGradGradGradGrad

                          Input orientation:                          
 ---------------------------------------------------------------------
 Center     Atomic      Atomic             Coordinates (Angstroms)
 Number     Number       Type             X           Y           Z
 ---------------------------------------------------------------------
      1          6           0       -0.762137   -1.232977   -0.175643
      2          6           0        0.688711   -1.250015    0.308221
      3          6           0        1.473217   -0.069067   -0.272095
      4          6           0        0.691709    1.217491   -0.196948
      5          6           0       -0.618048    1.270198    0.064269
      6          6           0       -1.473818    0.047255    0.273241
      7          1           0       -1.303660   -2.109252    0.198365
      8          1           0       -0.775714   -1.292486   -1.272428
      9          1           0        0.702305   -1.193228    1.405174
     10          1           0        1.176486   -2.191536    0.031400
     11          1           0        2.423967    0.046259    0.263225
     12          1           0        1.740078   -0.273000   -1.319680
     13          1           0        1.239698    2.143931   -0.361910
     14          1           0       -1.109906    2.239637    0.128031
     15          1           0       -1.749193   -0.027970    1.335662
     16          1           0       -2.417696    0.160859   -0.274484
 ---------------------------------------------------------------------
                    Distance matrix (angstroms):
                    1          2          3          4          5
     1  C    0.000000
     2  C    1.529502   0.000000
     3  C    2.522062   1.531945   0.000000
     4  C    2.849371   2.518688   1.507194   0.000000
     5  C    2.518770   2.849317   2.506026   1.336592   0.000000
     6  C    1.531986   2.522036   2.999324   2.506000   1.507183
     7  H    1.095896   2.172533   3.477749   3.899357   3.450902
     8  H    1.098482   2.155179   2.748656   3.099996   2.894644
     9  H    2.155261   1.098506   2.161313   2.894559   3.099972
    10  H    2.172547   1.095909   2.164493   3.450886   3.899364
    11  H    3.461258   2.166440   1.097175   2.141088   3.285037
    12  H    2.914010   2.170252   1.100108   2.140366   3.139671
    13  H    3.930081   3.503074   2.227096   1.088942   2.096726
    14  H    3.503171   3.930033   3.487512   2.096714   1.088944
    15  H    2.170337   2.914173   3.601458   3.139756   2.140367
    16  H    2.166431   3.461196   3.897702   3.284948   2.141056
                    6          7          8          9         10
     6  C    0.000000
     7  H    2.164505   0.000000
     8  H    2.161330   1.763254   0.000000
     9  H    2.748741   2.513838   3.060056   0.000000
    10  H    3.477756   2.487122   2.513831   1.763157   0.000000
    11  H    3.897798   4.306465   3.793208   2.409252   2.572484
    12  H    3.601262   3.865310   2.714921   3.057552   2.413262
    13  H    3.487497   4.987198   4.086550   3.814184   4.353729
    14  H    2.227118   4.353770   3.814297   4.086533   4.987205
    15  H    1.100104   2.413229   3.057580   2.715234   3.865451
    16  H    1.097185   2.572560   2.409192   3.793311   4.306446
                   11         12         13         14         15
    11  H    0.000000
    12  H    1.753630   0.000000
    13  H    2.488677   2.647500   0.000000
    14  H    4.161422   4.065909   2.402049   0.000000
    15  H    4.309396   4.391571   4.066002   2.647471   0.000000
    16  H    4.872778   4.309032   4.161340   2.488705   1.753604
                   16
    16  H    0.000000
 Stoichiometry    C6H10
 Framework group  C1[X(C6H10)]
 Deg. of freedom    42
 Full point group                 C1      NOp   1
 Largest Abelian subgroup         C1      NOp   1
 Largest concise Abelian subgroup C1      NOp   1
                         Standard orientation:                         
 ---------------------------------------------------------------------
 Center     Atomic      Atomic             Coordinates (Angstroms)
 Number     Number       Type             X           Y           Z
 ---------------------------------------------------------------------
      1          6           0        0.694560   -1.187242    0.319974
      2          6           0       -0.694614   -1.187138   -0.320002
      3          6           0       -1.495585    0.045719    0.110534
      4          6           0       -0.665698    1.302783    0.058472
      5          6           0        0.665764    1.302762   -0.058515
      6          6           0        1.495584    0.045662   -0.110477
      7          1           0        1.242401   -2.097821    0.052195
      8          1           0        0.586432   -1.188616    1.413121
      9          1           0       -0.586580   -1.188491   -1.413182
     10          1           0       -1.242520   -2.097745   -0.052403
     11          1           0       -2.377681    0.160418   -0.531762
     12          1           0       -1.882033   -0.094141    1.130992
     13          1           0       -1.195414    2.252488    0.115540
     14          1           0        1.195492    2.252464   -0.115564
     15          1           0        1.882271   -0.094160   -1.130846
     16          1           0        2.377568    0.160332    0.531995
 ---------------------------------------------------------------------
 Rotational constants (GHZ):      4.7401560      4.5465235      2.5563203
 Standard basis: 6-31+G(d) (6D, 7F)
 There are   134 symmetry adapted cartesian basis functions of A   symmetry.
 There are   134 symmetry adapted basis functions of A   symmetry.
   134 basis functions,   232 primitive gaussians,   134 cartesian basis functions
    23 alpha electrons       23 beta electrons
       nuclear repulsion energy       236.7154124376 Hartrees.
 NAtoms=   16 NActive=   16 NUniq=   16 SFac= 1.00D+00 NAtFMM=   60 NAOKFM=F Big=F
 Integral buffers will be    131072 words long.
 Raffenetti 2 integral format.
 Two-electron integral symmetry is turned on.
 One-electron integrals computed using PRISM.
 NBasis=   134 RedAO= T EigKep=  2.75D-05  NBF=   134
 NBsUse=   134 1.00D-06 EigRej= -1.00D+00 NBFU=   134
 Initial guess from the checkpoint file:  "/srv/scratch/z5358697/gauss/Gau-2314971.chk"
 B after Tr=     0.000000    0.000000    0.000000
         Rot=    0.999998   -0.000027    0.001914   -0.000265 Ang=  -0.22 deg.
 ExpMin= 4.38D-02 ExpMax= 3.05D+03 ExpMxC= 4.57D+02 IAcc=2 IRadAn=         4 AccDes= 0.00D+00
 Harris functional with IExCor= 1009 and IRadAn=       4 diagonalized for initial guess.
 HarFok:  IExCor= 1009 AccDes= 0.00D+00 IRadAn=         4 IDoV= 1 UseB2=F ITyADJ=14
 ICtDFT=  3500011 ScaDFX=  1.000000  1.000000  1.000000  1.000000
 FoFCou: FMM=F IPFlag=           0 FMFlag=      100000 FMFlg1=           0
         NFxFlg=           0 DoJE=T BraDBF=F KetDBF=T FulRan=T
         wScrn=  0.000000 ICntrl=     500 IOpCl=  0 I1Cent=   200000004 NGrid=           0
         NMat0=    1 NMatS0=      1 NMatT0=    0 NMatD0=    1 NMtDS0=    0 NMtDT0=    0
 Petite list used in FoFCou.
 Requested convergence on RMS density matrix=1.00D-08 within 128 cycles.
 Requested convergence on MAX density matrix=1.00D-06.
 Requested convergence on             energy=1.00D-06.
 No special actions if energy rises.
 SCF Done:  E(RM062X) =  -234.531706907     A.U. after   10 cycles
            NFock= 10  Conv=0.85D-08     -V/T= 2.0093
 Calling FoFJK, ICntrl=      2127 FMM=F ISym2X=0 I1Cent= 0 IOpClX= 0 NMat=1 NMatS=1 NMatT=0.
 ***** Axes restored to original set *****
 -------------------------------------------------------------------
 Center     Atomic                   Forces (Hartrees/Bohr)
 Number     Number              X              Y              Z
 -------------------------------------------------------------------
      1        6          -0.000294425   -0.000078058    0.000395657
      2        6           0.000306005   -0.000181122   -0.000344008
      3        6          -0.000212663   -0.000578658    0.000371424
      4        6          -0.001036692    0.000058706    0.000296377
      5        6           0.001050284   -0.000038059   -0.000304863
      6        6           0.000154841   -0.000637386   -0.000321879
      7        1           0.000210715   -0.000222380   -0.000398172
      8        1           0.000165314    0.000540813   -0.000100166
      9        1          -0.000145073    0.000566768    0.000029127
     10        1          -0.000225853   -0.000160200    0.000407425
     11        1           0.000206390    0.000278525   -0.000330432
     12        1          -0.000037545    0.000024361   -0.000001975
     13        1           0.000045668    0.000042607   -0.000012882
     14        1          -0.000045512    0.000042258    0.000011365
     15        1           0.000044793    0.000016776    0.000001557
     16        1          -0.000186248    0.000325048    0.000301447
 -------------------------------------------------------------------
 Cartesian Forces:  Max     0.001050284 RMS     0.000340050

 GradGradGradGradGradGradGradGradGradGradGradGradGradGradGradGradGradGrad
 Berny optimization.
 Using GEDIIS/GDIIS optimizer.
 FormGI is forming the generalized inverse of G from B-inverse, IUseBI=4.
 Internal  Forces:  Max     0.001053080 RMS     0.000175307
 Search for a local minimum.
 Step number   2 out of a maximum of   99
 All quantities printed in internal units (Hartrees-Bohrs-Radians)
 Mixed Optimization -- En-DIIS/RFO-DIIS
 Update second derivatives using D2CorX and points    1    2
 DE= -6.70D-04 DEPred=-5.90D-04 R= 1.13D+00
 TightC=F SS=  1.41D+00  RLast= 2.37D-01 DXNew= 5.0454D-01 7.1244D-01
 Trust test= 1.13D+00 RLast= 2.37D-01 DXMaxT set to 5.05D-01
 ITU=  1  0
 Use linear search instead of GDIIS.
     Eigenvalues ---    0.00532   0.00578   0.01276   0.01351   0.01794
     Eigenvalues ---    0.03040   0.03120   0.04219   0.04252   0.04945
     Eigenvalues ---    0.05292   0.05784   0.06052   0.07359   0.08060
     Eigenvalues ---    0.08085   0.09295   0.09374   0.09514   0.11694
     Eigenvalues ---    0.12192   0.16000   0.16007   0.18684   0.19960
     Eigenvalues ---    0.21977   0.28430   0.28610   0.28769   0.31629
     Eigenvalues ---    0.32656   0.33933   0.33938   0.34072   0.34134
     Eigenvalues ---    0.34136   0.34145   0.34153   0.34382   0.35268
     Eigenvalues ---    0.35410   0.54267
 RFO step:  Lambda=-8.26965454D-05 EMin= 5.31658918D-03
 Quartic linear search produced a step of  0.23686.
 Iteration  1 RMS(Cart)=  0.01502918 RMS(Int)=  0.00015210
 Iteration  2 RMS(Cart)=  0.00016285 RMS(Int)=  0.00005335
 Iteration  3 RMS(Cart)=  0.00000001 RMS(Int)=  0.00005335
 Variable       Old X    -DE/DX   Delta X   Delta X   Delta X     New X
                                 (Linear)    (Quad)   (Total)
    R1        2.89034  -0.00005   0.00151  -0.00227  -0.00083   2.88951
    R2        2.89503  -0.00020   0.00054  -0.00201  -0.00147   2.89357
    R3        2.07094  -0.00006   0.00003  -0.00024  -0.00022   2.07073
    R4        2.07583   0.00007   0.00036  -0.00002   0.00033   2.07616
    R5        2.89496  -0.00019   0.00047  -0.00188  -0.00141   2.89354
    R6        2.07587   0.00006   0.00035  -0.00007   0.00029   2.07616
    R7        2.07097  -0.00007   0.00001  -0.00024  -0.00023   2.07073
    R8        2.84818   0.00003   0.00331  -0.00175   0.00157   2.84976
    R9        2.07336   0.00004   0.00064  -0.00032   0.00032   2.07368
   R10        2.07890  -0.00001   0.00159  -0.00123   0.00036   2.07926
   R11        2.52579  -0.00105  -0.00162  -0.00042  -0.00201   2.52379
   R12        2.05780   0.00006   0.00125  -0.00073   0.00052   2.05833
   R13        2.84816   0.00004   0.00334  -0.00176   0.00160   2.84976
   R14        2.05781   0.00006   0.00131  -0.00078   0.00053   2.05834
   R15        2.07889  -0.00001   0.00164  -0.00126   0.00038   2.07927
   R16        2.07338   0.00004   0.00057  -0.00028   0.00029   2.07367
    A1        1.93614  -0.00011  -0.00161  -0.00535  -0.00719   1.92895
    A2        1.93035  -0.00006   0.00198   0.00077   0.00287   1.93322
    A3        1.90391   0.00002  -0.00062  -0.00074  -0.00138   1.90253
    A4        1.91628   0.00017   0.00051   0.00617   0.00674   1.92301
    A5        1.90931  -0.00003  -0.00048  -0.00250  -0.00292   1.90639
    A6        1.86641   0.00003   0.00026   0.00183   0.00207   1.86848
    A7        1.93621  -0.00012  -0.00156  -0.00548  -0.00727   1.92894
    A8        1.90400   0.00002  -0.00064  -0.00083  -0.00149   1.90250
    A9        1.93035  -0.00006   0.00188   0.00085   0.00286   1.93321
   A10        1.90931  -0.00003  -0.00053  -0.00244  -0.00292   1.90639
   A11        1.91630   0.00017   0.00041   0.00625   0.00671   1.92301
   A12        1.86622   0.00003   0.00051   0.00183   0.00231   1.86852
   A13        1.95370  -0.00004  -0.00496  -0.00042  -0.00544   1.94826
   A14        1.91767   0.00036   0.00373   0.00288   0.00662   1.92429
   A15        1.91989  -0.00003   0.00116  -0.00066   0.00054   1.92043
   A16        1.91268  -0.00022   0.00073  -0.00139  -0.00056   1.91212
   A17        1.90869   0.00005   0.00415  -0.00281   0.00133   1.91001
   A18        1.84824  -0.00012  -0.00480   0.00253  -0.00230   1.84594
   A19        2.15497   0.00008   0.00144  -0.00171  -0.00035   2.15463
   A20        2.04625  -0.00006  -0.00150   0.00130  -0.00017   2.04608
   A21        2.08195  -0.00002   0.00006   0.00041   0.00050   2.08245
   A22        2.15495   0.00009   0.00143  -0.00167  -0.00031   2.15465
   A23        2.08193  -0.00002   0.00006   0.00042   0.00052   2.08244
   A24        2.04629  -0.00007  -0.00149   0.00123  -0.00022   2.04607
   A25        1.95376  -0.00005  -0.00496  -0.00048  -0.00550   1.94827
   A26        1.91996  -0.00004   0.00119  -0.00078   0.00046   1.92042
   A27        1.91760   0.00036   0.00371   0.00296   0.00669   1.92429
   A28        1.90871   0.00005   0.00412  -0.00278   0.00132   1.91002
   A29        1.91264  -0.00022   0.00075  -0.00136  -0.00052   1.91212
   A30        1.84819  -0.00012  -0.00480   0.00257  -0.00225   1.84594
    D1       -1.06457  -0.00012  -0.01241  -0.01485  -0.02730  -1.09186
    D2        1.03988  -0.00022  -0.01449  -0.02186  -0.03638   1.00350
    D3        3.08781  -0.00021  -0.01316  -0.01963  -0.03280   3.05501
    D4        3.08788  -0.00021  -0.01332  -0.01956  -0.03289   3.05499
    D5       -1.09086  -0.00031  -0.01540  -0.02656  -0.04198  -1.13284
    D6        0.95707  -0.00030  -0.01407  -0.02434  -0.03840   0.91867
    D7        1.03977  -0.00022  -0.01443  -0.02179  -0.03626   1.00352
    D8       -3.13897  -0.00032  -0.01651  -0.02879  -0.04534   3.09888
    D9       -1.09104  -0.00031  -0.01518  -0.02657  -0.04176  -1.13280
   D10        0.77456   0.00008   0.00690   0.01069   0.01752   0.79208
   D11       -1.35134   0.00007   0.00417   0.01510   0.01924  -1.33210
   D12        2.90382   0.00002   0.00714   0.01071   0.01779   2.92161
   D13        2.91348   0.00004   0.00867   0.01229   0.02090   2.93438
   D14        0.78758   0.00003   0.00594   0.01670   0.02262   0.81020
   D15       -1.24045  -0.00002   0.00891   0.01230   0.02117  -1.21928
   D16       -1.32658   0.00014   0.00901   0.01662   0.02560  -1.30098
   D17        2.83071   0.00014   0.00628   0.02103   0.02732   2.85803
   D18        0.80268   0.00009   0.00925   0.01664   0.02587   0.82855
   D19        0.77473   0.00008   0.00693   0.01061   0.01747   0.79220
   D20        2.90405   0.00002   0.00715   0.01058   0.01768   2.92172
   D21       -1.35105   0.00007   0.00417   0.01494   0.01908  -1.33197
   D22       -1.32656   0.00015   0.00908   0.01669   0.02574  -1.30083
   D23        0.80276   0.00009   0.00931   0.01666   0.02595   0.82870
   D24        2.83084   0.00014   0.00633   0.02102   0.02735   2.85819
   D25        2.91371   0.00003   0.00854   0.01228   0.02076   2.93447
   D26       -1.24015  -0.00002   0.00877   0.01225   0.02097  -1.21918
   D27        0.78793   0.00002   0.00579   0.01661   0.02237   0.81031
   D28       -0.24042   0.00005  -0.00137  -0.00062  -0.00199  -0.24241
   D29        2.89579   0.00002  -0.00164  -0.00270  -0.00432   2.89147
   D30       -2.37259  -0.00022  -0.00329  -0.00303  -0.00634  -2.37893
   D31        0.76362  -0.00025  -0.00355  -0.00511  -0.00867   0.75495
   D32        1.89178   0.00002  -0.00027  -0.00370  -0.00401   1.88776
   D33       -1.25520  -0.00001  -0.00054  -0.00578  -0.00634  -1.26154
   D34       -0.03312  -0.00016  -0.00126  -0.00504  -0.00629  -0.03942
   D35        3.11405  -0.00013  -0.00095  -0.00311  -0.00406   3.10999
   D36        3.11395  -0.00013  -0.00099  -0.00292  -0.00392   3.11004
   D37       -0.02206  -0.00010  -0.00068  -0.00099  -0.00169  -0.02375
   D38       -0.24029   0.00006  -0.00137  -0.00063  -0.00200  -0.24229
   D39        1.89206   0.00001  -0.00026  -0.00387  -0.00417   1.88788
   D40       -2.37238  -0.00022  -0.00328  -0.00312  -0.00643  -2.37881
   D41        2.89583   0.00003  -0.00167  -0.00253  -0.00418   2.89165
   D42       -1.25501  -0.00001  -0.00056  -0.00577  -0.00636  -1.26137
   D43        0.76374  -0.00025  -0.00359  -0.00502  -0.00861   0.75512
         Item               Value     Threshold  Converged?
 Maximum Force            0.001053     0.000450     NO 
 RMS     Force            0.000175     0.000300     YES
 Maximum Displacement     0.061431     0.001800     NO 
 RMS     Displacement     0.015067     0.001200     NO 
 Predicted change in Energy=-6.766139D-05
 GradGradGradGradGradGradGradGradGradGradGradGradGradGradGradGradGradGrad

                          Input orientation:                          
 ---------------------------------------------------------------------
 Center     Atomic      Atomic             Coordinates (Angstroms)
 Number     Number       Type             X           Y           Z
 ---------------------------------------------------------------------
      1          6           0       -0.759012   -1.230909   -0.184038
      2          6           0        0.685761   -1.246922    0.316372
      3          6           0        1.471912   -0.073934   -0.275768
      4          6           0        0.690369    1.213554   -0.200190
      5          6           0       -0.616917    1.266543    0.067837
      6          6           0       -1.472801    0.042739    0.277403
      7          1           0       -1.301349   -2.116258    0.166341
      8          1           0       -0.757781   -1.267387   -1.282089
      9          1           0        0.685815   -1.166157    1.412057
     10          1           0        1.173854   -2.194958    0.063908
     11          1           0        2.428383    0.045646    0.248663
     12          1           0        1.730224   -0.284411   -1.324401
     13          1           0        1.238171    2.139774   -0.368797
     14          1           0       -1.108598    2.236131    0.135346
     15          1           0       -1.739888   -0.039396    1.341632
     16          1           0       -2.422143    0.162044   -0.259875
 ---------------------------------------------------------------------
                    Distance matrix (angstroms):
                    1          2          3          4          5
     1  C    0.000000
     2  C    1.529063   0.000000
     3  C    2.514761   1.531196   0.000000
     4  C    2.841894   2.514120   1.508027   0.000000
     5  C    2.514139   2.841873   2.505623   1.335530   0.000000
     6  C    1.531209   2.514783   2.998490   2.505635   1.508029
     7  H    1.095782   2.174134   3.472394   3.897298   3.452751
     8  H    1.098658   2.153906   2.721864   3.069644   2.874534
     9  H    2.153889   1.098658   2.158623   2.874437   3.069538
    10  H    2.174130   1.095786   2.168631   3.452747   3.897289
    11  H    3.460680   2.170725   1.097345   2.141535   3.285900
    12  H    2.896995   2.170130   1.100299   2.142206   3.138925
    13  H    3.922293   3.499189   2.227957   1.089220   2.096314
    14  H    3.499226   3.922263   3.487756   2.096313   1.089224
    15  H    2.170136   2.897076   3.596225   3.138988   2.142217
    16  H    2.170731   3.460681   3.901231   3.285874   2.141531
                    6          7          8          9         10
     6  C    0.000000
     7  H    2.168639   0.000000
     8  H    2.158634   1.764652   0.000000
     9  H    2.721855   2.530479   3.058209   0.000000
    10  H    3.472413   2.478572   2.530477   1.764687   0.000000
    11  H    3.901291   4.311787   3.770796   2.420433   2.574546
    12  H    3.596133   3.842969   2.675482   3.058835   2.426343
    13  H    3.487764   4.984911   4.052984   3.795487   4.356751
    14  H    2.227957   4.356765   3.795634   4.052836   4.984902
    15  H    1.100303   2.426310   3.058825   2.675554   3.843036
    16  H    1.097339   2.574587   2.420392   3.770793   4.311786
                   11         12         13         14         15
    11  H    0.000000
    12  H    1.752397   0.000000
    13  H    2.486611   2.651786   0.000000
    14  H    4.161887   4.067296   2.402242   0.000000
    15  H    4.310023   4.382858   4.067332   2.651731   0.000000
    16  H    4.878501   4.309836   4.161872   2.486652   1.752392
                   16
    16  H    0.000000
 Stoichiometry    C6H10
 Framework group  C1[X(C6H10)]
 Deg. of freedom    42
 Full point group                 C1      NOp   1
 Largest Abelian subgroup         C1      NOp   1
 Largest concise Abelian subgroup C1      NOp   1
                         Standard orientation:                         
 ---------------------------------------------------------------------
 Center     Atomic      Atomic             Coordinates (Angstroms)
 Number     Number       Type             X           Y           Z
 ---------------------------------------------------------------------
      1          6           0        0.690099   -1.183314    0.329083
      2          6           0       -0.690044   -1.183325   -0.329128
      3          6           0       -1.495058    0.042230    0.111926
      4          6           0       -0.665029    1.300240    0.060841
      5          6           0        0.664946    1.300275   -0.060851
      6          6           0        1.495069    0.042323   -0.111870
      7          1           0        1.236328   -2.101690    0.086273
      8          1           0        0.566010   -1.161187    1.420486
      9          1           0       -0.565932   -1.161084   -1.420526
     10          1           0       -1.236224   -2.101749   -0.086368
     11          1           0       -2.382765    0.161872   -0.521972
     12          1           0       -1.875152   -0.104365    1.134030
     13          1           0       -1.195118    2.249889    0.120613
     14          1           0        1.194971    2.249958   -0.120724
     15          1           0        1.875284   -0.104240   -1.133937
     16          1           0        2.382699    0.162018    0.522117
 ---------------------------------------------------------------------
 Rotational constants (GHZ):      4.7533014      4.5502928      2.5666188
 Standard basis: 6-31+G(d) (6D, 7F)
 There are   134 symmetry adapted cartesian basis functions of A   symmetry.
 There are   134 symmetry adapted basis functions of A   symmetry.
   134 basis functions,   232 primitive gaussians,   134 cartesian basis functions
    23 alpha electrons       23 beta electrons
       nuclear repulsion energy       236.9093607538 Hartrees.
 NAtoms=   16 NActive=   16 NUniq=   16 SFac= 1.00D+00 NAtFMM=   60 NAOKFM=F Big=F
 Integral buffers will be    131072 words long.
 Raffenetti 2 integral format.
 Two-electron integral symmetry is turned on.
 One-electron integrals computed using PRISM.
 NBasis=   134 RedAO= T EigKep=  2.72D-05  NBF=   134
 NBsUse=   134 1.00D-06 EigRej= -1.00D+00 NBFU=   134
 Initial guess from the checkpoint file:  "/srv/scratch/z5358697/gauss/Gau-2314971.chk"
 B after Tr=     0.000000    0.000000    0.000000
         Rot=    1.000000    0.000001    0.000758   -0.000026 Ang=   0.09 deg.
 ExpMin= 4.38D-02 ExpMax= 3.05D+03 ExpMxC= 4.57D+02 IAcc=2 IRadAn=         4 AccDes= 0.00D+00
 Harris functional with IExCor= 1009 and IRadAn=       4 diagonalized for initial guess.
 HarFok:  IExCor= 1009 AccDes= 0.00D+00 IRadAn=         4 IDoV= 1 UseB2=F ITyADJ=14
 ICtDFT=  3500011 ScaDFX=  1.000000  1.000000  1.000000  1.000000
 FoFCou: FMM=F IPFlag=           0 FMFlag=      100000 FMFlg1=           0
         NFxFlg=           0 DoJE=T BraDBF=F KetDBF=T FulRan=T
         wScrn=  0.000000 ICntrl=     500 IOpCl=  0 I1Cent=   200000004 NGrid=           0
         NMat0=    1 NMatS0=      1 NMatT0=    0 NMatD0=    1 NMtDS0=    0 NMtDT0=    0
 Petite list used in FoFCou.
 Requested convergence on RMS density matrix=1.00D-08 within 128 cycles.
 Requested convergence on MAX density matrix=1.00D-06.
 Requested convergence on             energy=1.00D-06.
 No special actions if energy rises.
 SCF Done:  E(RM062X) =  -234.531779134     A.U. after    9 cycles
            NFock=  9  Conv=0.81D-08     -V/T= 2.0092
 Calling FoFJK, ICntrl=      2127 FMM=F ISym2X=0 I1Cent= 0 IOpClX= 0 NMat=1 NMatS=1 NMatT=0.
 ***** Axes restored to original set *****
 -------------------------------------------------------------------
 Center     Atomic                   Forces (Hartrees/Bohr)
 Number     Number              X              Y              Z
 -------------------------------------------------------------------
      1        6          -0.000480814   -0.000002175    0.000247015
      2        6           0.000472761   -0.000060284   -0.000247660
      3        6           0.000082247   -0.000134560    0.000111600
      4        6           0.000629663    0.000088768   -0.000089492
      5        6          -0.000625481    0.000139081    0.000081020
      6        6          -0.000083722   -0.000146477   -0.000093811
      7        1          -0.000014490    0.000039389   -0.000117602
      8        1          -0.000002081    0.000071624   -0.000048735
      9        1           0.000010093    0.000073270    0.000040559
     10        1           0.000016198    0.000052685    0.000116832
     11        1          -0.000088150    0.000048072    0.000025694
     12        1          -0.000188560   -0.000006833    0.000008622
     13        1          -0.000073109   -0.000086411    0.000063030
     14        1           0.000068213   -0.000099527   -0.000055117
     15        1           0.000189532   -0.000016518   -0.000009515
     16        1           0.000087700    0.000039896   -0.000032439
 -------------------------------------------------------------------
 Cartesian Forces:  Max     0.000629663 RMS     0.000185915

 GradGradGradGradGradGradGradGradGradGradGradGradGradGradGradGradGradGrad
 Berny optimization.
 Using GEDIIS/GDIIS optimizer.
 FormGI is forming the generalized inverse of G from B-inverse, IUseBI=4.
 Internal  Forces:  Max     0.000456900 RMS     0.000082468
 Search for a local minimum.
 Step number   3 out of a maximum of   99
 All quantities printed in internal units (Hartrees-Bohrs-Radians)
 Mixed Optimization -- En-DIIS/RFO-DIIS
 Swapping is turned off.
 Update second derivatives using D2CorX and points    1    2    3
 DE= -7.22D-05 DEPred=-6.77D-05 R= 1.07D+00
 TightC=F SS=  1.41D+00  RLast= 1.50D-01 DXNew= 8.4853D-01 4.4859D-01
 Trust test= 1.07D+00 RLast= 1.50D-01 DXMaxT set to 5.05D-01
 ITU=  1  1  0
     Eigenvalues ---    0.00476   0.00581   0.01299   0.01351   0.01797
     Eigenvalues ---    0.03045   0.03142   0.04241   0.04283   0.04966
     Eigenvalues ---    0.05346   0.05786   0.06182   0.07316   0.07989
     Eigenvalues ---    0.08052   0.09286   0.09343   0.09451   0.11606
     Eigenvalues ---    0.12147   0.16000   0.16016   0.18577   0.20100
     Eigenvalues ---    0.21975   0.28425   0.28626   0.28761   0.31620
     Eigenvalues ---    0.32642   0.33924   0.33938   0.34072   0.34127
     Eigenvalues ---    0.34138   0.34145   0.34155   0.34432   0.35269
     Eigenvalues ---    0.35594   0.55547
 En-DIIS/RFO-DIIS IScMMF=        0 using points:     3    2
 RFO step:  Lambda=-1.27821690D-06.
 DidBck=F Rises=F RFO-DIIS coefs:    1.07403   -0.07403
 Iteration  1 RMS(Cart)=  0.00170764 RMS(Int)=  0.00000306
 Iteration  2 RMS(Cart)=  0.00000204 RMS(Int)=  0.00000228
 Iteration  3 RMS(Cart)=  0.00000000 RMS(Int)=  0.00000228
 Variable       Old X    -DE/DX   Delta X   Delta X   Delta X     New X
                                 (Linear)    (Quad)   (Total)
    R1        2.88951   0.00038  -0.00006   0.00144   0.00137   2.89088
    R2        2.89357  -0.00016  -0.00011  -0.00057  -0.00068   2.89289
    R3        2.07073  -0.00006  -0.00002  -0.00018  -0.00020   2.07053
    R4        2.07616   0.00005   0.00002   0.00014   0.00017   2.07633
    R5        2.89354  -0.00016  -0.00010  -0.00056  -0.00066   2.89288
    R6        2.07616   0.00005   0.00002   0.00014   0.00017   2.07633
    R7        2.07073  -0.00007  -0.00002  -0.00019  -0.00021   2.07053
    R8        2.84976  -0.00003   0.00012  -0.00001   0.00011   2.84987
    R9        2.07368  -0.00006   0.00002  -0.00017  -0.00015   2.07353
   R10        2.07926  -0.00005   0.00003  -0.00012  -0.00009   2.07917
   R11        2.52379   0.00046  -0.00015   0.00094   0.00079   2.52458
   R12        2.05833  -0.00012   0.00004  -0.00034  -0.00030   2.05803
   R13        2.84976  -0.00003   0.00012  -0.00002   0.00010   2.84986
   R14        2.05834  -0.00012   0.00004  -0.00034  -0.00031   2.05803
   R15        2.07927  -0.00006   0.00003  -0.00013  -0.00010   2.07917
   R16        2.07367  -0.00005   0.00002  -0.00016  -0.00014   2.07353
    A1        1.92895   0.00000  -0.00053  -0.00003  -0.00058   1.92838
    A2        1.93322   0.00005   0.00021   0.00110   0.00132   1.93454
    A3        1.90253  -0.00001  -0.00010  -0.00032  -0.00043   1.90210
    A4        1.92301   0.00000   0.00050   0.00027   0.00078   1.92379
    A5        1.90639  -0.00004  -0.00022  -0.00079  -0.00101   1.90538
    A6        1.86848  -0.00001   0.00015  -0.00027  -0.00012   1.86836
    A7        1.92894   0.00000  -0.00054  -0.00002  -0.00057   1.92837
    A8        1.90250   0.00000  -0.00011  -0.00029  -0.00041   1.90210
    A9        1.93321   0.00006   0.00021   0.00111   0.00132   1.93454
   A10        1.90639  -0.00004  -0.00022  -0.00080  -0.00102   1.90538
   A11        1.92301   0.00001   0.00050   0.00028   0.00078   1.92379
   A12        1.86852  -0.00001   0.00017  -0.00031  -0.00014   1.86838
   A13        1.94826   0.00010  -0.00040   0.00023  -0.00018   1.94808
   A14        1.92429  -0.00002   0.00049   0.00016   0.00065   1.92494
   A15        1.92043  -0.00006   0.00004  -0.00077  -0.00073   1.91970
   A16        1.91212  -0.00006  -0.00004  -0.00023  -0.00027   1.91186
   A17        1.91001  -0.00005   0.00010  -0.00061  -0.00051   1.90950
   A18        1.84594   0.00009  -0.00017   0.00126   0.00109   1.84703
   A19        2.15463  -0.00007  -0.00003  -0.00014  -0.00017   2.15446
   A20        2.04608   0.00006  -0.00001   0.00023   0.00022   2.04630
   A21        2.08245   0.00001   0.00004  -0.00008  -0.00005   2.08241
   A22        2.15465  -0.00007  -0.00002  -0.00015  -0.00018   2.15447
   A23        2.08244   0.00001   0.00004  -0.00008  -0.00004   2.08241
   A24        2.04607   0.00006  -0.00002   0.00024   0.00022   2.04629
   A25        1.94827   0.00010  -0.00041   0.00024  -0.00018   1.94809
   A26        1.92042  -0.00006   0.00003  -0.00075  -0.00071   1.91970
   A27        1.92429  -0.00002   0.00050   0.00015   0.00065   1.92493
   A28        1.91002  -0.00005   0.00010  -0.00063  -0.00053   1.90949
   A29        1.91212  -0.00006  -0.00004  -0.00023  -0.00027   1.91185
   A30        1.84594   0.00009  -0.00017   0.00126   0.00109   1.84703
    D1       -1.09186   0.00005  -0.00202   0.00033  -0.00169  -1.09356
    D2        1.00350   0.00000  -0.00269  -0.00086  -0.00355   0.99995
    D3        3.05501   0.00001  -0.00243  -0.00077  -0.00320   3.05181
    D4        3.05499   0.00001  -0.00244  -0.00075  -0.00319   3.05180
    D5       -1.13284  -0.00004  -0.00311  -0.00194  -0.00504  -1.13788
    D6        0.91867  -0.00003  -0.00284  -0.00185  -0.00469   0.91399
    D7        1.00352   0.00000  -0.00268  -0.00087  -0.00356   0.99996
    D8        3.09888  -0.00006  -0.00336  -0.00206  -0.00542   3.09346
    D9       -1.13280  -0.00005  -0.00309  -0.00197  -0.00506  -1.13786
   D10        0.79208  -0.00003   0.00130   0.00024   0.00154   0.79361
   D11       -1.33210   0.00000   0.00142   0.00139   0.00282  -1.32928
   D12        2.92161  -0.00006   0.00132   0.00021   0.00153   2.92313
   D13        2.93438   0.00004   0.00155   0.00180   0.00334   2.93772
   D14        0.81020   0.00007   0.00167   0.00295   0.00462   0.81482
   D15       -1.21928   0.00001   0.00157   0.00177   0.00333  -1.21594
   D16       -1.30098   0.00000   0.00189   0.00116   0.00305  -1.29793
   D17        2.85803   0.00004   0.00202   0.00231   0.00434   2.86236
   D18        0.82855  -0.00002   0.00192   0.00113   0.00305   0.83159
   D19        0.79220  -0.00003   0.00129   0.00020   0.00149   0.79369
   D20        2.92172  -0.00006   0.00131   0.00018   0.00149   2.92322
   D21       -1.33197   0.00000   0.00141   0.00136   0.00277  -1.32920
   D22       -1.30083   0.00000   0.00191   0.00108   0.00299  -1.29784
   D23        0.82870  -0.00002   0.00192   0.00106   0.00298   0.83169
   D24        2.85819   0.00004   0.00202   0.00224   0.00426   2.86246
   D25        2.93447   0.00004   0.00154   0.00178   0.00331   2.93779
   D26       -1.21918   0.00001   0.00155   0.00176   0.00331  -1.21588
   D27        0.81031   0.00007   0.00166   0.00293   0.00459   0.81489
   D28       -0.24241  -0.00002  -0.00015  -0.00160  -0.00175  -0.24416
   D29        2.89147  -0.00002  -0.00032  -0.00076  -0.00108   2.89039
   D30       -2.37893  -0.00002  -0.00047  -0.00181  -0.00228  -2.38121
   D31        0.75495  -0.00002  -0.00064  -0.00097  -0.00161   0.75334
   D32        1.88776  -0.00007  -0.00030  -0.00285  -0.00314   1.88462
   D33       -1.26154  -0.00007  -0.00047  -0.00201  -0.00248  -1.26402
   D34       -0.03942  -0.00001  -0.00047   0.00220   0.00173  -0.03768
   D35        3.10999  -0.00001  -0.00030   0.00140   0.00110   3.11109
   D36        3.11004  -0.00001  -0.00029   0.00134   0.00105   3.11109
   D37       -0.02375  -0.00001  -0.00012   0.00054   0.00042  -0.02333
   D38       -0.24229  -0.00002  -0.00015  -0.00165  -0.00179  -0.24408
   D39        1.88788  -0.00007  -0.00031  -0.00286  -0.00317   1.88471
   D40       -2.37881  -0.00002  -0.00048  -0.00183  -0.00231  -2.38112
   D41        2.89165  -0.00002  -0.00031  -0.00087  -0.00118   2.89047
   D42       -1.26137  -0.00007  -0.00047  -0.00208  -0.00256  -1.26392
   D43        0.75512  -0.00002  -0.00064  -0.00105  -0.00169   0.75343
         Item               Value     Threshold  Converged?
 Maximum Force            0.000457     0.000450     NO 
 RMS     Force            0.000082     0.000300     YES
 Maximum Displacement     0.006966     0.001800     NO 
 RMS     Displacement     0.001708     0.001200     NO 
 Predicted change in Energy=-2.286314D-06
 GradGradGradGradGradGradGradGradGradGradGradGradGradGradGradGradGradGrad

                          Input orientation:                          
 ---------------------------------------------------------------------
 Center     Atomic      Atomic             Coordinates (Angstroms)
 Number     Number       Type             X           Y           Z
 ---------------------------------------------------------------------
      1          6           0       -0.759188   -1.230837   -0.184655
      2          6           0        0.685933   -1.246806    0.316969
      3          6           0        1.471871   -0.074497   -0.275890
      4          6           0        0.690644    1.213219   -0.199811
      5          6           0       -0.617218    1.266187    0.067497
      6          6           0       -1.472785    0.042189    0.277607
      7          1           0       -1.302199   -2.116843    0.162676
      8          1           0       -0.756682   -1.264520   -1.282883
      9          1           0        0.684901   -1.163211    1.412530
     10          1           0        1.174663   -2.195204    0.067595
     11          1           0        2.428900    0.045373    0.247292
     12          1           0        1.727752   -0.285414   -1.324979
     13          1           0        1.238431    2.139355   -0.367904
     14          1           0       -1.108909    2.235628    0.134443
     15          1           0       -1.737432   -0.040465    1.342351
     16          1           0       -2.422681    0.161945   -0.258438
 ---------------------------------------------------------------------
                    Distance matrix (angstroms):
                    1          2          3          4          5
     1  C    0.000000
     2  C    1.529789   0.000000
     3  C    2.514571   1.530846   0.000000
     4  C    2.841769   2.513724   1.508084   0.000000
     5  C    2.513735   2.841755   2.505921   1.335949   0.000000
     6  C    1.530850   2.514581   2.998495   2.505925   1.508082
     7  H    1.095677   2.175647   3.472605   3.897709   3.452992
     8  H    1.098747   2.154293   2.719677   3.067082   2.871839
     9  H    2.154291   1.098746   2.157633   2.871776   3.067019
    10  H    2.175641   1.095675   2.168805   3.452989   3.897700
    11  H    3.461097   2.170833   1.097266   2.141331   3.286570
    12  H    2.894656   2.169253   1.100250   2.141845   3.137729
    13  H    3.922022   3.498627   2.228026   1.089061   2.096528
    14  H    3.498643   3.922004   3.487904   2.096529   1.089063
    15  H    2.169262   2.894713   3.594369   3.137760   2.141839
    16  H    2.170828   3.461091   3.901762   3.286549   2.141327
                    6          7          8          9         10
     6  C    0.000000
     7  H    2.168808   0.000000
     8  H    2.157642   1.764563   0.000000
     9  H    2.719678   2.533795   3.058378   0.000000
    10  H    3.472609   2.479924   2.533783   1.764576   0.000000
    11  H    3.901803   4.313170   3.768977   2.420741   2.574022
    12  H    3.594307   3.840294   2.670737   3.058107   2.427441
    13  H    3.487905   4.985132   4.050189   3.792530   4.356849
    14  H    2.228020   4.356852   3.792613   4.050107   4.985122
    15  H    1.100250   2.427428   3.058110   2.670802   3.840339
    16  H    1.097264   2.574042   2.420711   3.768984   4.313158
                   11         12         13         14         15
    11  H    0.000000
    12  H    1.753016   0.000000
    13  H    2.486049   2.652345   0.000000
    14  H    4.162456   4.065982   2.402422   0.000000
    15  H    4.308694   4.379744   4.066000   2.652298   0.000000
    16  H    4.879261   4.308566   4.162437   2.486063   1.753016
                   16
    16  H    0.000000
 Stoichiometry    C6H10
 Framework group  C1[X(C6H10)]
 Deg. of freedom    42
 Full point group                 C1      NOp   1
 Largest Abelian subgroup         C1      NOp   1
 Largest concise Abelian subgroup C1      NOp   1
                         Standard orientation:                         
 ---------------------------------------------------------------------
 Center     Atomic      Atomic             Coordinates (Angstroms)
 Number     Number       Type             X           Y           Z
 ---------------------------------------------------------------------
      1          6           0        0.690255   -1.183049    0.329575
      2          6           0       -0.690230   -1.183050   -0.329604
      3          6           0       -1.495028    0.041873    0.112382
      4          6           0       -0.665240    1.300080    0.060585
      5          6           0        0.665202    1.300095   -0.060596
      6          6           0        1.495033    0.041916   -0.112346
      7          1           0        1.236730   -2.101947    0.089789
      8          1           0        0.565199   -1.158082    1.420897
      9          1           0       -0.565173   -1.158012   -1.420922
[...]
 ! D16   D(8,1,6,5)            -74.3304         -DE/DX =    0.0                 !
 ! D17   D(8,1,6,15)           164.069          -DE/DX =    0.0                 !
 ! D18   D(8,1,6,16)            47.6937         -DE/DX =    0.0                 !
 ! D19   D(1,2,3,4)             45.5003         -DE/DX =    0.0                 !
 ! D20   D(1,2,3,11)           167.5247         -DE/DX =    0.0                 !
 ! D21   D(1,2,3,12)           -76.1            -DE/DX =    0.0                 !
 ! D22   D(9,2,3,4)            -74.328          -DE/DX =    0.0                 !
 ! D23   D(9,2,3,11)            47.6963         -DE/DX =    0.0                 !
 ! D24   D(9,2,3,12)           164.0716         -DE/DX =    0.0                 !
 ! D25   D(10,2,3,4)           168.343          -DE/DX =    0.0                 !
 ! D26   D(10,2,3,11)          -69.6327         -DE/DX =    0.0                 !
 ! D27   D(10,2,3,12)           46.7426         -DE/DX =    0.0                 !
 ! D28   D(2,3,4,5)            -14.0266         -DE/DX =    0.0                 !
 ! D29   D(2,3,4,13)           165.5814         -DE/DX =    0.0                 !
 ! D30   D(11,3,4,5)          -136.4749         -DE/DX =    0.0                 !
 ! D31   D(11,3,4,13)           43.1331         -DE/DX =    0.0                 !
 ! D32   D(12,3,4,5)           107.9226         -DE/DX =    0.0                 !
 ! D33   D(12,3,4,13)          -72.4694         -DE/DX =    0.0                 !
 ! D34   D(3,4,5,6)             -2.1148         -DE/DX =    0.0                 !
 ! D35   D(3,4,5,14)           178.2841         -DE/DX =    0.0                 !
 ! D36   D(13,4,5,6)           178.2849         -DE/DX =    0.0                 !
 ! D37   D(13,4,5,14)           -1.3162         -DE/DX =    0.0                 !
 ! D38   D(4,5,6,1)            -14.0241         -DE/DX =    0.0                 !
 ! D39   D(4,5,6,15)           107.9257         -DE/DX =    0.0                 !
 ! D40   D(4,5,6,16)          -136.4721         -DE/DX =    0.0                 !
 ! D41   D(14,5,6,1)           165.5846         -DE/DX =    0.0                 !
 ! D42   D(14,5,6,15)          -72.4656         -DE/DX =    0.0                 !
 ! D43   D(14,5,6,16)           43.1366         -DE/DX =    0.0                 !
 --------------------------------------------------------------------------------
 GradGradGradGradGradGradGradGradGradGradGradGradGradGradGradGradGradGrad

 1\1\GINC-KATANA1\Freq\RM062X\6-31+G(d)\C6H10\Z5358697\18-Mar-2025\0\\#
 N Geom=AllCheck Guess=TCheck SCRF=Check GenChk RM062X/6-31+G(d) Freq\\
 cyclohexene\\0,1\C,-0.7591315079,-1.2308561469,-0.1848304123\C,0.68587
 02646,-1.2468091734,0.3171393167\C,1.4717096726,-0.0745173133,-0.27583
 13007\C,0.6906969511,1.2133232112,-0.1996075019\C,-0.6172716601,1.2662
 723083,0.0672660111\C,-1.4726225498,0.0421517518,0.2775643449\H,-1.302
 1320927,-2.1169139462,0.1622646715\H,-0.756209129,-1.2645104701,-1.283
 1030264\H,0.6844301263,-1.1631840537,1.4127434712\H,1.1745885773,-2.19
 52315287,0.0679978076\H,2.428887232,0.0450916018,0.2470368302\H,1.7267
 917319,-0.2852516325,-1.3251368923\H,1.2384651719,2.1394893725,-0.3673
 516147\H,-1.1089442947,2.2357037986,0.1338463797\H,-1.7364278698,-0.04
 03474343,1.3425139952\H,-2.4227006237,0.1616896547,-0.2581120796\\Vers
 ion=ES64L-G09RevD.01\State=1-A\HF=-234.5317818\RMSD=1.449e-09\RMSF=5.9
 87e-06\ZeroPoint=0.147827\Thermal=0.1532945\Dipole=-0.0037888,-0.12792
 95,0.0068308\DipoleDeriv=0.0298703,0.0204943,-0.0091535,0.019902,0.108
 5844,-0.0165053,-0.0018833,0.0034974,0.1350989,0.0277329,-0.0164725,-0
 .0061072,-0.0151758,0.1124186,0.0194939,-0.0001346,-0.0008996,0.133400
 2,0.0651555,0.0163479,0.0305237,-0.003724,0.0046385,0.0184843,0.060593
 ,0.0112488,0.1958986,0.037788,-0.0866194,-0.0551415,-0.0996307,0.12208
 4,0.0115101,-0.0716099,0.0071467,-0.2434673,0.0486504,0.084385,-0.0659
 96,0.0955843,0.1055788,-0.0458513,-0.0834672,-0.0404835,-0.2378146,0.0
 644728,-0.0166357,0.0317411,0.0065473,0.0040442,0.0002406,0.059874,0.0
 057541,0.1971732,-0.0355142,-0.0937491,0.0234574,-0.1007105,-0.1328657
 ,0.0324642,0.039019,0.0648839,0.0421712,0.0173048,0.0271288,0.0175526,
 0.0214684,0.0338939,0.0122491,-0.0202634,-0.0409352,-0.169175,0.014497
 6,-0.023978,0.0188782,-0.0222058,0.0374279,-0.0353057,-0.0161227,0.020
 0329,-0.1699005,-0.0242274,0.0889466,0.0123174,0.0974227,-0.1525988,-0
 .0132666,0.0251123,-0.0465244,0.0506176,-0.1406198,-0.0219372,-0.05532
 52,-0.0098574,0.0088521,-0.0182137,-0.1109368,0.0033388,0.0295917,0.02
 5244,0.0081108,0.0287532,0.0809915,-0.0056999,-0.038366,0.0868795,-0.0
 229573,-0.1313349,-0.0094145,-0.0599804,0.0306074,-0.0619666,-0.124440
 1,0.0354278,0.0279988,0.0270097,0.1363536,-0.0024626,0.0554708,0.02313
 48,0.0571954,-0.1351876,-0.0083178,0.0208328,0.0002413,0.1401453,0.020
 2616,-0.0062677,0.0313412,-0.0725989,0.0039494,0.0223459,0.0958787,0.0
 033092,-0.1360023,-0.1387394,0.0247559,-0.0565836,0.0067581,0.0093203,
 0.0236106,-0.1117702,0.0053372,0.0272444\Polar=76.5807083,-0.5137349,6
 6.5182169,-4.0517204,-0.4801155,55.2875493\PG=C01 [X(C6H10)]\NImag=0\\
 0.49517148,0.05746054,0.54969503,-0.01937245,-0.02520192,0.58335599,-0
 .18489220,0.00270957,-0.03937076,0.48848484,-0.00066659,-0.07960293,-0
 .00165752,-0.05533181,0.56217916,-0.03907653,0.00218457,-0.09638533,-0
 .01173291,0.02874906,0.57756058,-0.02323437,-0.02841998,0.01142687,-0.
 11181244,-0.04414520,0.02521495,0.56609057,-0.00818632,-0.00003138,-0.
 00115884,-0.04608353,-0.14958691,0.03864722,0.00397432,0.48100981,-0.0
 0580412,-0.01048458,0.00582587,0.02557662,0.03859642,-0.10107726,0.017
 35673,0.01768773,0.55527048,-0.00034087,0.00135021,0.00032639,0.013813
 10,-0.01415254,-0.00226107,-0.12492133,0.05914958,0.00463505,0.8369053
 6,0.00043920,0.00221351,0.00044073,0.01024532,-0.03129808,-0.00105569,
 0.05690624,-0.19138582,-0.00092358,0.03235261,0.59928228,-0.00088859,-
 0.00097815,0.00062691,-0.00729421,0.01199125,0.00120678,0.00611006,-0.
 00691143,-0.07491798,-0.14563491,-0.03306163,0.18135976,0.01385451,0.0
 1114521,-0.00343967,-0.00043903,-0.00115129,0.00042820,-0.01615217,0.0
 1039616,0.00461743,-0.54345498,0.01524426,0.09996893,0.83136233,-0.013
 69130,-0.03209630,0.00479369,-0.00037012,0.00235147,-0.00064271,0.0305
 6584,0.00286959,-0.00739445,0.02080144,-0.11502256,-0.00088851,-0.0611
 9314,0.60797487,-0.00660912,-0.00800937,0.00196441,-0.00079117,0.00084
 829,0.00058699,0.00530330,-0.00212929,0.00564108,0.09967476,-0.0008172
 5,-0.07507684,-0.13976391,-0.00379339,0.17821198,-0.10648814,0.0436845
 2,0.01836639,-0.02097869,0.03075320,0.00833481,0.00194558,-0.00060683,
 0.00006678,-0.01846411,-0.02853064,0.00857829,-0.13194854,-0.05935883,
 0.01307370,0.56542491,0.04565043,-0.16266289,-0.03362835,0.00883086,-0
 .00099368,0.00118107,0.00039779,-0.00165393,0.00005087,-0.00853166,0.0
 0617557,0.00178097,-0.06176581,-0.18228569,0.01821548,-0.00723308,0.47
 866087,0.01852154,-0.03359307,-0.09332615,-0.00606570,0.01144299,0.004
 53294,-0.00000941,-0.00071318,-0.00782782,0.00606295,0.00714094,0.0046
 4758,0.01149573,0.01231926,-0.07699264,0.01711642,-0.01046500,0.558286
 36,-0.11293902,-0.10629603,0.04234794,-0.01534523,-0.02574162,0.012471
 52,-0.00571035,0.00154808,-0.00423128,-0.00004290,0.00090919,-0.000056
 55,-0.00189701,0.00237148,0.00118451,0.00916201,0.01426755,-0.00557433
 ,0.12438576,-0.10597843,-0.22062216,0.07047433,0.00143058,0.00222210,-
 0.00112527,0.00068719,0.00107040,-0.00014764,0.00041365,0.00020716,0.0
 0001573,0.00481881,-0.00332771,-0.00206549,-0.01430829,-0.02183833,0.0
 0864447,0.11387058,0.24022229,0.04292457,0.07173714,-0.07967192,-0.006
 21843,-0.01026978,0.00368112,-0.00187103,0.00038051,-0.00025911,-0.000
 07904,0.00000686,0.00004921,0.00182729,-0.00185711,0.00015950,-0.00600
 137,-0.01070548,0.00235747,-0.04668299,-0.07577573,0.08181606,-0.04752
 549,-0.00234007,0.00176854,-0.00178399,-0.00166628,-0.03414278,0.00186
 458,0.00065622,-0.00072517,0.00022286,-0.00015954,0.00006153,-0.000295
 74,-0.00078959,-0.00068130,-0.00206565,0.00140081,0.01758808,-0.000315
 10,0.00102961,0.01643265,0.05570201,-0.00201421,-0.05068628,-0.0045652
 6,-0.00035823,-0.00022533,0.00126507,-0.00045712,0.00022054,-0.0009670
 5,-0.00010880,-0.00007288,0.00016853,0.00085514,0.00131415,-0.00053326
 ,0.00120488,-0.00176220,-0.02890987,0.00075114,0.00114481,0.02695145,-
 0.00169736,0.05232375,0.00232268,-0.00611741,-0.30730463,-0.00106000,0
 .00007755,-0.01230521,0.00095114,0.00025428,0.00082844,-0.00045363,-0.
 00056130,0.00004923,0.00031744,0.00053871,0.00040391,0.00082493,-0.000
 25928,-0.00956286,0.00012635,-0.00002561,-0.01008040,-0.00074976,0.007
 88924,0.33457545,-0.00177010,-0.00189710,-0.03418327,-0.04726802,0.002
 27488,0.00097857,-0.00215445,0.00068148,0.01927562,-0.00029509,0.00080
 915,-0.00073680,0.00023647,0.00014762,0.00003539,0.00184793,-0.0008201
 6,-0.00058606,0.00101672,-0.00030693,0.00060622,-0.00624258,0.00029953
 ,-0.00242697,0.05588475,0.00032606,-0.00040689,-0.00051258,0.00201477,
 -0.05273259,-0.02279552,-0.00099716,0.00126568,0.02666069,-0.00072351,
 0.00130386,0.00047888,0.00004471,-0.00004220,-0.00016228,0.00046119,0.
 00031859,0.00106142,0.00008734,-0.00014717,-0.00024393,-0.00014889,0.0
 0068803,0.00054136,0.00141796,0.05367524,-0.00113692,-0.00128176,-0.01
 213692,0.00165465,-0.02127969,-0.30551657,0.00092687,-0.00095084,-0.01
 250228,0.00036640,-0.00065557,0.00041378,-0.00042756,0.00059653,0.0000
 0506,0.00088708,-0.00025305,0.00074691,-0.00030871,-0.00022192,0.00035
 228,-0.00243034,-0.00038287,0.00082418,-0.00048890,0.02222314,0.333041
 77,-0.01383149,0.02791028,0.00965651,-0.10057749,0.10248728,0.02743650
 ,0.00902054,-0.01661475,-0.00435241,-0.00231487,-0.00227188,0.00156271
 ,-0.00012033,-0.00089091,0.00003815,-0.00583734,-0.00158222,-0.0040523
 5,0.00090771,-0.00029678,0.00072828,0.00102662,-0.00018669,-0.00027893
 ,-0.00036788,-0.00073232,0.00017595,0.11111848,-0.00106740,0.00191902,
 0.00057573,0.10222884,-0.24662863,-0.05532077,0.01181420,-0.02116870,-
 0.00581896,-0.00463740,-0.00246720,0.00228751,-0.00040053,0.00028034,-
 0.00003580,-0.00047678,0.00117626,0.00024618,0.00035846,0.00067299,0.0
 0012376,0.00030274,-0.00010299,0.00028759,0.00064087,-0.00183057,-0.00
 086666,-0.10990483,0.26794510,-0.00546446,0.01072061,0.00247030,0.0279
 6820,-0.05661635,-0.06602736,-0.00667575,0.01361258,0.00182945,0.00244
 879,0.00203371,-0.00028317,-0.00003638,-0.00002408,0.00005346,-0.00183
 235,-0.00041753,-0.00023780,0.00068339,-0.00021074,0.00025284,0.000588
 55,0.00025687,0.00029821,0.01480019,-0.02875888,-0.00705214,-0.0307069
 8,0.05884279,0.06736070,-0.00053173,-0.00349935,0.00210813,-0.01365029
 ,-0.00098799,-0.00752252,-0.24365833,-0.02626897,-0.11166888,-0.016992
 60,-0.00030316,-0.00685700,0.00097187,0.00284501,-0.00066517,0.0004998
 1,-0.00034654,-0.00067378,-0.00110768,0.00022243,-0.00032889,0.0002925
 1,0.00002654,0.00001362,0.00033052,0.00047816,0.00033245,0.00023951,-0
 .00021567,-0.00001637,0.26658020,-0.00158915,-0.00477819,0.00289067,-0
 .02295426,-0.00178006,-0.01320014,-0.02549025,-0.05010165,-0.01314883,
 0.02899332,0.00300751,0.01502278,0.00042978,-0.00466230,-0.00001614,0.
 00023784,-0.00028404,0.00040513,-0.00180678,0.00016233,-0.00028071,0.0
 0043102,0.00000711,0.00011905,0.00057140,0.00120520,0.00000102,0.00057
 482,0.00019313,-0.00062772,0.02699597,0.05671981,0.00119275,0.00243202
 ,-0.00096786,0.01426471,0.00138375,0.00595654,-0.11236684,-0.01370084,
 -0.10930760,0.00395999,-0.00053931,0.00169965,0.00054345,0.00028432,-0
 .00027442,-0.00036177,0.00005388,0.00037107,0.00076215,0.00007754,0.00
 046826,0.00024539,0.00004785,0.00033801,0.00019365,-0.00043063,0.00081
 417,-0.00058454,-0.00044814,0.00005920,0.12065820,0.01430263,0.1172590
 2,0.00091938,0.00055865,0.00136296,-0.00383415,0.00301615,0.01582128,-
 0.05877989,0.00866782,0.05507742,-0.00784400,0.00631363,0.01820220,0.0
 0060209,0.00245878,-0.00029075,-0.00027705,0.00009642,0.00099527,0.000
 14000,-0.00011046,-0.00038572,-0.00033869,-0.00013397,-0.00061325,-0.0
 0120739,-0.00224561,0.00117128,0.00085486,0.00044824,-0.00058413,0.006
 67099,-0.00620392,-0.02817473,0.06389935,0.00163428,0.00033640,0.00026
 119,-0.00587736,0.00367789,0.02703418,0.01020342,-0.05660315,-0.050987
 00,0.00890091,-0.00542454,-0.02775306,-0.00007966,-0.00294502,0.000684
 17,-0.00028038,-0.00038467,-0.00124183,0.00017000,-0.00000189,-0.00012
 379,-0.00011578,0.00020685,-0.00053072,-0.00364153,-0.00363569,0.00234
 254,0.00057346,0.00107814,0.00000111,0.00063676,-0.00097687,-0.0036996
 4,-0.01288591,0.06419320,-0.00028725,-0.00019395,0.00031024,0.00175343
 ,-0.00127381,-0.01299044,0.05303358,-0.04579932,-0.27921656,0.00198947
 ,-0.00219886,0.00158723,-0.00120018,-0.00048167,0.00043072,-0.00031265
 ,0.00013436,0.00020305,0.00004124,0.00007785,0.00014822,0.00071481,-0.
 00004896,0.00030458,0.00158983,0.00240100,0.00043037,-0.00027094,0.000
 31422,0.00064112,0.00304505,-0.00335107,-0.01659283,-0.06067079,0.0509
 8708,0.30505837,-0.00013191,0.00058451,0.00009737,-0.00207107,0.002875
 65,0.00092376,0.01037836,0.01461178,-0.00343583,-0.12484796,-0.1169844
 2,0.02522453,-0.01427624,-0.02956529,0.00533374,-0.00292171,0.00275183
 ,0.00299474,0.00013754,-0.00009648,-0.00004144,0.00011124,-0.00003571,
 -0.00008467,-0.00006961,-0.00006632,-0.00005654,0.00060542,0.00094783,
 -0.00044524,0.00086511,-0.00079108,-0.00030811,0.00009973,-0.00037047,
 0.00052295,0.13310154,0.00061775,0.00040566,0.00007929,0.00431901,-0.0
 0286251,-0.00189349,-0.01451005,-0.01684320,0.00534470,-0.12111640,-0.
 26098456,0.03719094,0.00306768,0.00393969,-0.00053695,0.00106771,0.001
 18583,0.00037801,-0.00012573,0.00005814,0.00000806,-0.00003226,0.00003
 646,-0.00007375,-0.00002252,0.00003995,0.00017947,-0.00095206,-0.00119
 160,0.00071057,0.00024735,0.00092536,0.00046605,0.00015588,-0.00024793
 ,-0.00062610,0.12755040,0.27418074,0.00040657,0.00025231,-0.00025994,0
 .00006380,0.00017270,0.00111005,-0.00218839,-0.00105898,0.00315541,0.0
 2629822,0.03549816,-0.04612134,0.00333835,0.00631516,0.00401599,0.0033
 0284,-0.00091057,0.01222804,-0.00006036,0.00016082,-0.00009514,0.00011
 562,0.00010794,-0.00011984,-0.00014924,-0.00031598,0.00009861,0.000118
 75,0.00012971,0.00012646,0.00043997,-0.00012685,0.00039267,-0.00027627
 ,0.00101757,-0.00031212,-0.02942978,-0.04080541,0.03358705,-0.00249397
 ,-0.00277014,0.00134740,-0.00019927,-0.00053662,0.00015028,-0.00311227
 ,-0.00215966,0.00326372,-0.01262681,0.03092685,0.00213169,-0.11115643,
 0.10987950,0.01157350,0.01025933,-0.01651886,-0.00202210,0.00059825,-0
 .00109998,-0.00037292,-0.00006461,0.00006597,-0.00007395,0.00011508,0.
 00002192,-0.00008372,0.00014998,0.00008549,-0.00005200,-0.00050408,0.0
 0055755,0.00005999,-0.00073238,0.00099494,0.00015740,0.00035278,-0.000
 15263,-0.00166468,0.11840488,-0.00430344,-0.00221821,0.00220493,-0.000
 53735,0.00042847,-0.00015687,-0.00044827,0.00153672,0.00058991,-0.0017
 5463,0.00166205,0.00047698,0.11410747,-0.28001250,-0.01396887,0.012590
 83,-0.01693391,-0.00302284,0.00085097,-0.00125737,-0.00053755,0.000014
 14,0.00005070,-0.00017073,0.00003923,0.00002718,0.00006280,0.00011208,
 0.00002649,-0.00001895,0.00010598,-0.00006832,-0.00013397,0.00005219,0
 .00005406,0.00000816,0.00002990,0.00127329,-0.00034681,-0.12045071,0.2
 9488344,0.00052533,0.00018875,0.00088881,0.00045059,-0.00034798,-0.000
 21535,0.00346642,0.00186360,0.01206751,0.00321731,-0.00634829,0.004644
 21,0.01229982,-0.01232981,-0.04078479,-0.00350327,0.00338779,0.0033647
 9,0.00001903,0.00001497,0.00019936,-0.00013209,0.00032923,0.00008282,0
 .00010474,-0.00013041,-0.00011438,-0.00008292,-0.00017026,-0.00007591,
 0.00111841,-0.00209109,-0.00018797,-0.00144367,0.00216631,-0.00008807,
 -0.00167878,-0.00049584,-0.00752765,-0.01451314,0.01491547,0.02758104,
 -0.00358964,-0.00105841,0.01436417,0.00079155,-0.00043835,0.00139818,-
 0.00026415,0.00001052,0.00107323,0.00044508,-0.00267777,-0.00004611,-0
 .00866311,-0.00396666,0.02037677,-0.05953289,-0.00219765,0.05786889,0.
 00079284,-0.00049212,-0.00053432,-0.00086152,0.00217272,0.00080851,-0.
 00032170,0.00010269,-0.00059322,0.00013489,0.00006132,-0.00038644,0.00
 005744,0.00005185,-0.00008907,-0.00022528,0.00016492,-0.00011577,-0.00
 079576,-0.00016891,-0.00155755,0.00011190,-0.00021005,-0.00031666,0.06
 502505,0.00637819,0.00046537,-0.02938443,-0.00168195,0.00045246,-0.000
 35147,0.00024166,-0.00027582,0.00123105,-0.00024686,-0.00276743,-0.000
 32285,-0.00834537,-0.00142697,0.02697377,-0.00395841,-0.04848440,0.022
 95706,-0.00058425,0.00110432,-0.00001425,0.00360510,-0.00444398,-0.001
 89770,0.00022439,0.00025202,0.00057106,-0.00017272,0.00001078,0.000161
 73,0.00003805,0.00021333,-0.00001316,-0.00013619,0.00046053,0.00011978
 ,-0.00092927,-0.00011045,-0.00207155,0.00040358,-0.00030271,-0.0010016
 6,0.00591089,0.05540364,0.00112378,-0.00026871,-0.01002178,-0.00009832
 ,0.00019664,0.00032172,-0.00034624,-0.00006437,0.00008139,-0.00115004,
 0.00090259,0.00041000,0.00305267,0.00241185,-0.00159133,0.05569752,0.0
 1789435,-0.28658393,-0.00022860,-0.00034561,0.00067713,0.00107211,-0.0
 0197630,0.00089287,0.00069850,0.00001179,0.00024230,0.00005534,-0.0000
 6565,0.00014056,0.00000974,0.00004656,0.00000897,-0.00010782,-0.000154
 83,0.00007153,0.00025916,-0.00001456,0.00013981,0.00051763,0.00059370,
 -0.00026919,-0.06381781,-0.02060726,0.31272337,-0.01217644,0.00087759,
 -0.00680654,-0.00023763,0.00341111,0.00157776,0.00050012,0.00022408,-0
 .00072492,0.00075914,-0.00321904,-0.00032576,-0.01862369,0.00075618,-0
 .00779239,-0.24062546,0.02560031,-0.11365987,0.00021647,0.00021663,-0.
 00000286,0.00027355,-0.00038383,0.00037649,0.00026536,-0.00004098,0.00
 001122,-0.00100861,-0.00018538,-0.00028903,-0.00006325,-0.00000811,0.0
 0000479,0.00005243,-0.00002761,0.00000983,-0.00053747,0.00005478,0.001
 24217,0.00089764,-0.00019835,0.00046886,0.00689532,-0.00074684,0.00326
 236,0.26341253,0.02499039,-0.00192976,0.01438832,0.00141564,-0.0056008
 4,-0.00251924,-0.00032264,-0.00032217,-0.00028930,-0.00068992,-0.00442
 887,0.00050206,-0.02717343,0.00309114,-0.01465360,0.02475308,-0.050233
 37,0.01335033,-0.00063038,0.00033009,0.00060054,-0.00048988,0.00130125
 ,-0.00007129,-0.00041827,0.00001937,-0.00008422,0.00194724,0.00008742,
 0.00033429,0.00002542,0.00021766,-0.00008234,-0.00005167,0.00021269,-0
 .00006868,-0.00051287,0.00019513,0.00198180,0.00075280,0.00085062,0.00
 004922,0.00273501,-0.00055067,0.00143979,-0.02633052,0.05676030,0.0116
 2224,-0.00138646,0.00463200,0.00089949,-0.00201354,-0.00043920,-0.0003
 3225,0.00004118,0.00040897,0.00059936,0.00013848,-0.00029502,0.0069783
 6,0.00015221,0.00324693,-0.11423734,0.01394049,-0.11220700,-0.00049332
 ,0.00045231,-0.00005489,0.00027415,0.00036740,0.00077524,0.00028851,-0
 .00002809,0.00035285,0.00055687,-0.00008125,0.00044407,0.00000705,0.00
 005470,-0.00003689,-0.00008326,-0.00000329,0.00001459,0.00012411,0.000
 08902,-0.00041807,-0.00041910,-0.00049536,0.00043475,-0.02843279,0.003
 64988,-0.01724341,0.12264791,-0.01487768,0.12038507\\-0.00000063,-0.00
 000783,0.00000766,0.00000031,-0.00000917,-0.00000673,-0.00001187,-0.00
 000420,-0.00001193,0.00000786,0.00000213,-0.00000031,-0.00000778,0.000
 00216,-0.00000043,0.00001186,-0.00000360,0.00001292,0.00000512,0.00000
 069,-0.00000792,0.00000276,0.00000284,-0.00000632,-0.00000259,0.000003
 91,0.00000589,-0.00000522,0.00000207,0.00000776,-0.00000050,0.00000549
 ,0.00000832,0.00000880,0.00000282,0.00000286,-0.00000111,-0.00000259,-
 0.00000193,0.00000084,-0.00000246,0.00000266,-0.00000885,0.00000324,-0
 .00000330,0.00000098,0.00000451,-0.00000918\\\@


 MICHAEL FARADAY, ASKED BY A POLITICIAN WHAT GOOD
 HIS ELECTRICAL DISCOVERIES WERE, REPLIED 
 "AT PRESENT I DO NOT KNOW, BUT ONE DAY YOU WILL BE
 ABLE TO TAX THEM."
 Job cpu time:       0 days  0 hours  4 minutes  1.8 seconds.
 File lengths (MBytes):  RWF=    133 Int=      0 D2E=      0 Chk=      3 Scr=      2
 Normal termination of Gaussian 09 at Tue Mar 18 10:00:37 2025.
