 Entering Gaussian System, Link 0=g09
 Initial command:
 /apps/z_install_tree/linux-rocky8-ivybridge/gcc-12.2.0/gaussian-09-D.01-wczn3gur5lpur3omlkzwa2l5ecyxp5ef/g09/l1.exe "/srv/scratch/z5358697/gauss/Gau-3540083.inp" -scrdir="/srv/scratch/z5358697/gauss/"
 Entering Link 1 = /apps/z_install_tree/linux-rocky8-ivybridge/gcc-12.2.0/gaussian-09-D.01-wczn3gur5lpur3omlkzwa2l5ecyxp5ef/g09/l1.exe PID=   3540104.
  
 Copyright (c) 1988,1990,1992,1993,1995,1998,2003,2009,2013,
            Gaussian, Inc.  All Rights Reserved.
  
 This is part of the Gaussian(R) 09 program.  It is based on
 the Gaussian(R) 03 system (copyright 2003, Gaussian, Inc.),
 the Gaussian(R) 98 system (copyright 1998, Gaussian, Inc.),
 the Gaussian(R) 94 system (copyright 1995, Gaussian, Inc.),
 the Gaussian 92(TM) system (copyright 1992, Gaussian, Inc.),
 the Gaussian 90(TM) system (copyright 1990, Gaussian, Inc.),
 the Gaussian 88(TM) system (copyright 1988, Gaussian, Inc.),
 the Gaussian 86(TM) system (copyright 1986, Carnegie Mellon
 University), and the Gaussian 82(TM) system (copyright 1983,
 Carnegie Mellon University). Gaussian is a federally registered
 trademark of Gaussian, Inc.
  
 This software contains proprietary and confidential information,
 including trade secrets, belonging to Gaussian, Inc.
  
 This software is provided under written license and may be
 used, copied, transmitted, or stored only in accord with that
 written license.
  
 The following legend is applicable only to US Government
 contracts under FAR:
  
                    RESTRICTED RIGHTS LEGEND
  
 Use, reproduction and disclosure by the US Government is
 subject to restrictions as set forth in subparagraphs (a)
 and (c) of the Commercial Computer Software - Restricted
 Rights clause in FAR 52.227-19.
  
 Gaussian, Inc.
 340 Quinnipiac St., Bldg. 40, Wallingford CT 06492
  
  
 ---------------------------------------------------------------
 Warning -- This program may not be used in any manner that
 competes with the business of Gaussian, Inc. or will provide
 assistance to any competitor of Gaussian, Inc.  The licensee
 of this program is prohibited from giving any competitor of
 Gaussian, Inc. access to this program.  By using this program,
 the user acknowledges that Gaussian, Inc. is engaged in the
 business of creating and licensing software in the field of
 computational chemistry and represents and warrants to the
 licensee that it is not a competitor of Gaussian, Inc. and that
 it will not use this program in any manner prohibited above.
 ---------------------------------------------------------------
  

 Cite this work as:
 Gaussian 09, Revision D.01,
 M. J. Frisch, G. W. Trucks, H. B. Schlegel, G. E. Scuseria, 
 M. A. Robb, J. R. Cheeseman, G. Scalmani, V. Barone, B. Mennucci, 
 G. A. Petersson, H. Nakatsuji, M. Caricato, X. Li, H. P. Hratchian, 
 A. F. Izmaylov, J. Bloino, G. Zheng, J. L. Sonnenberg, M. Hada, 
 M. Ehara, K. Toyota, R. Fukuda, J. Hasegawa, M. Ishida, T. Nakajima, 
 Y. Honda, O. Kitao, H. Nakai, T. Vreven, J. A. Montgomery, Jr., 
 J. E. Peralta, F. Ogliaro, M. Bearpark, J. J. Heyd, E. Brothers, 
 K. N. Kudin, V. N. Staroverov, T. Keith, R. Kobayashi, J. Normand, 
 K. Raghavachari, A. Rendell, J. C. Burant, S. S. Iyengar, J. Tomasi, 
 M. Cossi, N. Rega, J. M. Millam, M. Klene, J. E. Knox, J. B. Cross, 
 V. Bakken, C. Adamo, J. Jaramillo, R. Gomperts, R. E. Stratmann, 
 O. Yazyev, A. J. Austin, R. Cammi, C. Pomelli, J. W. Ochterski, 
 R. L. Martin, K. Morokuma, V. G. Zakrzewski, G. A. Voth, 
 P. Salvador, J. J. Dannenberg, S. Dapprich, A. D. Daniels, 
 O. Farkas, J. B. Foresman, J. V. Ortiz, J. Cioslowski, 
 and D. J. Fox, Gaussian, Inc., Wallingford CT, 2013.
 
 ******************************************
 Gaussian 09:  ES64L-G09RevD.01 24-Apr-2013
                16-Mar-2025 
 ******************************************
 ---------------------------------
 #m062X/6-31+G(d) OPT Freq=noraman
 ---------------------------------
 1/14=-1,18=20,19=15,26=3,38=1/1,3;
 2/9=110,12=2,17=6,18=5,40=1/2;
 3/5=1,6=6,7=11,11=2,16=1,25=1,30=1,71=1,74=-55/1,2,3;
 4//1;
 5/5=2,38=5/2;
 6/7=2,8=2,9=2,10=2,28=1/1;
 7//1,2,3,16;
 1/14=-1,18=20,19=15,26=3/3(2);
 2/9=110/2;
 99//99;
 2/9=110/2;
 3/5=1,6=6,7=11,11=2,16=1,25=1,30=1,71=1,74=-55/1,2,3;
 4/5=5,16=3,69=1/1;
 5/5=2,38=5/2;
 7//1,2,3,16;
 1/14=-1,18=20,19=15,26=3/3(-5);
 2/9=110/2;
 6/7=2,8=2,9=2,10=2,19=2,28=1/1;
 99/9=1/99;
 --------------------------------
 5-fluoro-1H-pyrimidine-2,4-dione
 --------------------------------
 Symbolic Z-matrix:
 Charge =  0 Multiplicity = 1
 C                     0.661     1.3814   -0.0454 
 C                    -0.2001    0.9155    0.8573 
 C                    -0.7437   -0.4518    0.7476 
 O                    -1.5372   -0.8927    1.5724 
 N                    -0.273    -1.1575   -0.3544 
 C                     0.6325   -0.6865   -1.314 
 O                     1.0071   -1.3718   -2.2663 
 N                     1.0723    0.6151   -1.1019 
 F                    -0.6189    1.6484    1.9046 
 H                     1.0776    2.3791    0.0083 
 H                    -0.6179   -2.1056   -0.476 
 H                     1.7313    1.0249   -1.7571 
 

 GradGradGradGradGradGradGradGradGradGradGradGradGradGradGradGradGradGrad
 Berny optimization.
 Initialization pass.
                           ----------------------------
                           !    Initial Parameters    !
                           ! (Angstroms and Degrees)  !
 --------------------------                            --------------------------
 ! Name  Definition              Value          Derivative Info.                !
 --------------------------------------------------------------------------------
 ! R1    R(1,2)                  1.3317         estimate D2E/DX2                !
 ! R2    R(1,8)                  1.3684         estimate D2E/DX2                !
 ! R3    R(1,10)                 1.0825         estimate D2E/DX2                !
 ! R4    R(2,3)                  1.4755         estimate D2E/DX2                !
 ! R5    R(2,9)                  1.3451         estimate D2E/DX2                !
 ! R6    R(3,4)                  1.2265         estimate D2E/DX2                !
 ! R7    R(3,5)                  1.3907         estimate D2E/DX2                !
 ! R8    R(5,6)                  1.4009         estimate D2E/DX2                !
 ! R9    R(5,11)                 1.0162         estimate D2E/DX2                !
 ! R10   R(6,7)                  1.2316         estimate D2E/DX2                !
 ! R11   R(6,8)                  1.3902         estimate D2E/DX2                !
 ! R12   R(8,12)                 1.0156         estimate D2E/DX2                !
 ! A1    A(2,1,8)              121.4518         estimate D2E/DX2                !
 ! A2    A(2,1,10)             122.5246         estimate D2E/DX2                !
 ! A3    A(8,1,10)             116.0236         estimate D2E/DX2                !
 ! A4    A(1,2,3)              120.7994         estimate D2E/DX2                !
 ! A5    A(1,2,9)              122.5796         estimate D2E/DX2                !
 ! A6    A(3,2,9)              116.621          estimate D2E/DX2                !
 ! A7    A(2,3,4)              121.4312         estimate D2E/DX2                !
 ! A8    A(2,3,5)              113.8574         estimate D2E/DX2                !
 ! A9    A(4,3,5)              124.7114         estimate D2E/DX2                !
 ! A10   A(3,5,6)              126.2246         estimate D2E/DX2                !
 ! A11   A(3,5,11)             116.9618         estimate D2E/DX2                !
 ! A12   A(6,5,11)             116.8136         estimate D2E/DX2                !
 ! A13   A(5,6,7)              122.6262         estimate D2E/DX2                !
 ! A14   A(5,6,8)              114.5043         estimate D2E/DX2                !
 ! A15   A(7,6,8)              122.8695         estimate D2E/DX2                !
 ! A16   A(1,8,6)              123.1626         estimate D2E/DX2                !
 ! A17   A(1,8,12)             117.8488         estimate D2E/DX2                !
 ! A18   A(6,8,12)             118.9886         estimate D2E/DX2                !
 ! D1    D(8,1,2,3)             -0.022          estimate D2E/DX2                !
 ! D2    D(8,1,2,9)            179.9587         estimate D2E/DX2                !
 ! D3    D(10,1,2,3)          -179.9522         estimate D2E/DX2                !
 ! D4    D(10,1,2,9)             0.0285         estimate D2E/DX2                !
 ! D5    D(2,1,8,6)              0.0137         estimate D2E/DX2                !
 ! D6    D(2,1,8,12)          -179.9314         estimate D2E/DX2                !
 ! D7    D(10,1,8,6)           179.9481         estimate D2E/DX2                !
 ! D8    D(10,1,8,12)            0.0031         estimate D2E/DX2                !
 ! D9    D(1,2,3,4)            179.9911         estimate D2E/DX2                !
 ! D10   D(1,2,3,5)             -0.0107         estimate D2E/DX2                !
 ! D11   D(9,2,3,4)              0.0094         estimate D2E/DX2                !
 ! D12   D(9,2,3,5)           -179.9925         estimate D2E/DX2                !
 ! D13   D(2,3,5,6)              0.0566         estimate D2E/DX2                !
 ! D14   D(2,3,5,11)          -179.967          estimate D2E/DX2                !
 ! D15   D(4,3,5,6)           -179.9453         estimate D2E/DX2                !
 ! D16   D(4,3,5,11)             0.0311         estimate D2E/DX2                !
 ! D17   D(3,5,6,7)            179.9034         estimate D2E/DX2                !
 ! D18   D(3,5,6,8)             -0.0647         estimate D2E/DX2                !
 ! D19   D(11,5,6,7)            -0.073          estimate D2E/DX2                !
 ! D20   D(11,5,6,8)           179.9589         estimate D2E/DX2                !
 ! D21   D(5,6,8,1)              0.027          estimate D2E/DX2                !
 ! D22   D(5,6,8,12)           179.9714         estimate D2E/DX2                !
 ! D23   D(7,6,8,1)           -179.941          estimate D2E/DX2                !
 ! D24   D(7,6,8,12)             0.0034         estimate D2E/DX2                !
 --------------------------------------------------------------------------------
 Trust Radius=3.00D-01 FncErr=1.00D-07 GrdErr=1.00D-06
 Number of steps in this run=     64 maximum allowed number of steps=    100.
 GradGradGradGradGradGradGradGradGradGradGradGradGradGradGradGradGradGrad

                          Input orientation:                          
 ---------------------------------------------------------------------
 Center     Atomic      Atomic             Coordinates (Angstroms)
 Number     Number       Type             X           Y           Z
 ---------------------------------------------------------------------
      1          6           0        0.661000    1.381400   -0.045400
      2          6           0       -0.200100    0.915500    0.857300
      3          6           0       -0.743700   -0.451800    0.747600
      4          8           0       -1.537200   -0.892700    1.572400
      5          7           0       -0.273000   -1.157500   -0.354400
      6          6           0        0.632500   -0.686500   -1.314000
      7          8           0        1.007100   -1.371800   -2.266300
      8          7           0        1.072300    0.615100   -1.101900
      9          9           0       -0.618900    1.648400    1.904600
     10          1           0        1.077600    2.379100    0.008300
     11          1           0       -0.617900   -2.105600   -0.476000
     12          1           0        1.731300    1.024900   -1.757100
 ---------------------------------------------------------------------
                    Distance matrix (angstroms):
                    1          2          3          4          5
     1  C    0.000000
     2  C    1.331699   0.000000
     3  C    2.441854   1.475481   0.000000
     4  O    3.552589   2.359829   1.226511   0.000000
     5  N    2.722839   2.402261   1.390674   2.319672   0.000000
     6  C    2.426184   2.823857   2.489820   3.616825   1.400929
     7  O    3.554194   4.055361   3.604899   4.630185   2.310831
     8  N    1.368421   2.355357   2.802995   4.029247   2.347488
     9  F    2.347751   1.345129   2.401055   2.722282   3.618812
    10  H    1.082518   2.120246   3.446403   4.470824   3.803053
    11  H    3.739007   3.328557   2.061086   2.551898   1.016187
    12  H    2.050012   3.252286   3.818349   5.044388   3.278362
                    6          7          8          9         10
     6  C    0.000000
     7  O    1.231599   0.000000
     8  N    1.390170   2.303877   0.000000
     9  F    4.168590   5.400175   3.600959   0.000000
    10  H    3.368159   4.387257   2.084291   2.647261   0.000000
    11  H    2.068717   2.526710   3.263546   4.445197   4.818900
    12  H    2.081487   2.554980   1.015630   4.395479   2.319012
                   11         12
    11  H    0.000000
    12  H    4.118251   0.000000
 Stoichiometry    C4H3FN2O2
 Framework group  C1[X(C4H3FN2O2)]
 Deg. of freedom    30
 Full point group                 C1      NOp   1
 Largest Abelian subgroup         C1      NOp   1
 Largest concise Abelian subgroup C1      NOp   1
                         Standard orientation:                         
 ---------------------------------------------------------------------
 Center     Atomic      Atomic             Coordinates (Angstroms)
 Number     Number       Type             X           Y           Z
 ---------------------------------------------------------------------
      1          6           0       -0.214998   -1.500586    0.000493
      2          6           0       -1.131138   -0.534092    0.000175
      3          6           0       -0.731060    0.886113    0.000171
      4          8           0       -1.564969    1.785516   -0.000281
      5          7           0        0.645656    1.082653    0.000758
      6          6           0        1.624947    0.080860    0.000205
      7          8           0        2.830856    0.331097   -0.000964
      8          7           0        1.123440   -1.215698    0.000377
      9          9           0       -2.452051   -0.788179   -0.000538
     10          1           0       -0.477019   -2.550914   -0.000258
     11          1           0        0.973761    2.044414    0.001302
     12          1           0        1.774438   -1.995252   -0.000441
 ---------------------------------------------------------------------
 Rotational constants (GHZ):      3.2326210      1.3910242      0.9725346
 Standard basis: 6-31+G(d) (6D, 7F)
 There are   177 symmetry adapted cartesian basis functions of A   symmetry.
 There are   177 symmetry adapted basis functions of A   symmetry.
   177 basis functions,   300 primitive gaussians,   177 cartesian basis functions
    33 alpha electrons       33 beta electrons
       nuclear repulsion energy       439.2456779072 Hartrees.
 NAtoms=   12 NActive=   12 NUniq=   12 SFac= 1.00D+00 NAtFMM=   60 NAOKFM=F Big=F
 Integral buffers will be    131072 words long.
 Raffenetti 2 integral format.
 Two-electron integral symmetry is turned on.
 One-electron integrals computed using PRISM.
 NBasis=   177 RedAO= T EigKep=  2.10D-05  NBF=   177
 NBsUse=   177 1.00D-06 EigRej= -1.00D+00 NBFU=   177
 ExpMin= 4.38D-02 ExpMax= 7.00D+03 ExpMxC= 1.05D+03 IAcc=2 IRadAn=         4 AccDes= 0.00D+00
 Harris functional with IExCor= 1009 and IRadAn=       4 diagonalized for initial guess.
 HarFok:  IExCor= 1009 AccDes= 0.00D+00 IRadAn=         4 IDoV= 1 UseB2=F ITyADJ=14
 ICtDFT=  3500011 ScaDFX=  1.000000  1.000000  1.000000  1.000000
 FoFCou: FMM=F IPFlag=           0 FMFlag=      100000 FMFlg1=           0
         NFxFlg=           0 DoJE=T BraDBF=F KetDBF=T FulRan=T
         wScrn=  0.000000 ICntrl=     500 IOpCl=  0 I1Cent=   200000004 NGrid=           0
         NMat0=    1 NMatS0=      1 NMatT0=    0 NMatD0=    1 NMtDS0=    0 NMtDT0=    0
 Petite list used in FoFCou.
 Requested convergence on RMS density matrix=1.00D-08 within 128 cycles.
 Requested convergence on MAX density matrix=1.00D-06.
 Requested convergence on             energy=1.00D-06.
 No special actions if energy rises.
 SCF Done:  E(RM062X) =  -513.863363528     A.U. after   14 cycles
            NFock= 14  Conv=0.92D-08     -V/T= 2.0084

 **********************************************************************

            Population analysis using the SCF density.

 **********************************************************************

 Orbital symmetries:
       Occupied  (A) (A) (A) (A) (A) (A) (A) (A) (A) (A) (A) (A)
                 (A) (A) (A) (A) (A) (A) (A) (A) (A) (A) (A) (A)
                 (A) (A) (A) (A) (A) (A) (A) (A) (A)
       Virtual   (A) (A) (A) (A) (A) (A) (A) (A) (A) (A) (A) (A)
                 (A) (A) (A) (A) (A) (A) (A) (A) (A) (A) (A) (A)
                 (A) (A) (A) (A) (A) (A) (A) (A) (A) (A) (A) (A)
                 (A) (A) (A) (A) (A) (A) (A) (A) (A) (A) (A) (A)
                 (A) (A) (A) (A) (A) (A) (A) (A) (A) (A) (A) (A)
                 (A) (A) (A) (A) (A) (A) (A) (A) (A) (A) (A) (A)
                 (A) (A) (A) (A) (A) (A) (A) (A) (A) (A) (A) (A)
                 (A) (A) (A) (A) (A) (A) (A) (A) (A) (A) (A) (A)
                 (A) (A) (A) (A) (A) (A) (A) (A) (A) (A) (A) (A)
                 (A) (A) (A) (A) (A) (A) (A) (A) (A) (A) (A) (A)
                 (A) (A) (A) (A) (A) (A) (A) (A) (A) (A) (A) (A)
                 (A) (A) (A) (A) (A) (A) (A) (A) (A) (A) (A) (A)
 The electronic state is 1-A.
 Alpha  occ. eigenvalues --  -25.30315 -19.65192 -19.65138 -14.86022 -14.84909
 Alpha  occ. eigenvalues --  -10.73794 -10.70296 -10.66858 -10.64983  -1.39493
 Alpha  occ. eigenvalues --   -1.21973  -1.18785  -1.11745  -1.06554  -0.92059
 Alpha  occ. eigenvalues --   -0.80846  -0.78065  -0.71263  -0.68515  -0.62787
 Alpha  occ. eigenvalues --   -0.61008  -0.60245  -0.58329  -0.56746  -0.54847
 Alpha  occ. eigenvalues --   -0.53376  -0.50078  -0.49454  -0.45397  -0.39355
 Alpha  occ. eigenvalues --   -0.37317  -0.36557  -0.31714
 Alpha virt. eigenvalues --   -0.02659  -0.01328   0.01265   0.02142   0.02515
 Alpha virt. eigenvalues --    0.03309   0.04076   0.05959   0.06839   0.07409
 Alpha virt. eigenvalues --    0.08813   0.09393   0.10037   0.12042   0.12115
 Alpha virt. eigenvalues --    0.12750   0.13271   0.14725   0.15562   0.16201
 Alpha virt. eigenvalues --    0.16859   0.17324   0.19461   0.19883   0.21668
 Alpha virt. eigenvalues --    0.22136   0.23930   0.25366   0.26256   0.27300
 Alpha virt. eigenvalues --    0.27525   0.28219   0.28784   0.30765   0.32372
 Alpha virt. eigenvalues --    0.32413   0.33435   0.33982   0.34614   0.36113
 Alpha virt. eigenvalues --    0.37005   0.37903   0.40230   0.41606   0.42616
 Alpha virt. eigenvalues --    0.44061   0.44972   0.49479   0.55464   0.57626
 Alpha virt. eigenvalues --    0.60549   0.68107   0.71535   0.74024   0.74488
 Alpha virt. eigenvalues --    0.76894   0.82377   0.83104   0.86441   0.91216
 Alpha virt. eigenvalues --    0.91803   0.92684   0.94217   0.99487   1.01623
 Alpha virt. eigenvalues --    1.02923   1.07914   1.10673   1.12857   1.17029
 Alpha virt. eigenvalues --    1.18308   1.20721   1.21596   1.28669   1.29501
 Alpha virt. eigenvalues --    1.31504   1.34102   1.35170   1.35904   1.37802
 Alpha virt. eigenvalues --    1.38062   1.39946   1.41268   1.43966   1.44176
 Alpha virt. eigenvalues --    1.45060   1.47204   1.49501   1.54217   1.59634
 Alpha virt. eigenvalues --    1.69013   1.73998   1.74462   1.76857   1.77674
 Alpha virt. eigenvalues --    1.79295   1.82559   1.84958   1.86254   1.87610
 Alpha virt. eigenvalues --    1.91168   1.92925   1.93289   1.95741   2.00415
 Alpha virt. eigenvalues --    2.00846   2.03194   2.07542   2.11408   2.11496
 Alpha virt. eigenvalues --    2.13198   2.17917   2.21860   2.29164   2.31359
 Alpha virt. eigenvalues --    2.32983   2.35044   2.38814   2.42780   2.48606
 Alpha virt. eigenvalues --    2.60426   2.61263   2.64753   2.67037   2.71219
 Alpha virt. eigenvalues --    2.75758   2.83284   2.87473   2.91478   3.03600
 Alpha virt. eigenvalues --    3.15333   3.22090   3.26319   3.27385   3.47702
 Alpha virt. eigenvalues --    4.11334   4.16739   4.26109   4.33443   4.40275
 Alpha virt. eigenvalues --    4.51689   4.66932   4.75147   6.39486
          Condensed to atoms (all electrons):
               1          2          3          4          5          6
     1  C    6.689256  -0.295951  -0.319877  -0.024650   0.160807  -0.272213
     2  C   -0.295951   6.781865  -0.889696  -0.158335  -0.376952   0.292036
     3  C   -0.319877  -0.889696   6.332811   0.463659   0.164930  -0.261103
     4  O   -0.024650  -0.158335   0.463659   8.273636  -0.121506   0.039897
     5  N    0.160807  -0.376952   0.164930  -0.121506   7.757690   0.159588
     6  C   -0.272213   0.292036  -0.261103   0.039897   0.159588   4.719624
     7  O    0.062794  -0.032535   0.026679   0.001637  -0.079108   0.373005
     8  N   -0.075502  -0.011084   0.106369  -0.001483  -0.202710   0.282798
     9  F   -0.145369   0.193056  -0.060165  -0.008704   0.015994  -0.003704
    10  H    0.346509   0.013280   0.003370  -0.000307  -0.001156   0.001004
    11  H   -0.016911   0.027074  -0.012082   0.003145   0.257991  -0.010646
    12  H   -0.027288   0.011833  -0.014641   0.000100   0.013185  -0.001654
               7          8          9         10         11         12
     1  C    0.062794  -0.075502  -0.145369   0.346509  -0.016911  -0.027288
     2  C   -0.032535  -0.011084   0.193056   0.013280   0.027074   0.011833
     3  C    0.026679   0.106369  -0.060165   0.003370  -0.012082  -0.014641
     4  O    0.001637  -0.001483  -0.008704  -0.000307   0.003145   0.000100
     5  N   -0.079108  -0.202710   0.015994  -0.001156   0.257991   0.013185
     6  C    0.373005   0.282798  -0.003704   0.001004  -0.010646  -0.001654
     7  O    8.278761  -0.115003   0.000070  -0.000444   0.000695   0.000084
     8  N   -0.115003   7.403849   0.014793  -0.048161   0.013754   0.280234
     9  F    0.000070   0.014793   9.332613  -0.001390  -0.000170  -0.000234
    10  H   -0.000444  -0.048161  -0.001390   0.433850   0.000012  -0.003942
    11  H    0.000695   0.013754  -0.000170   0.000012   0.256467  -0.000062
    12  H    0.000084   0.280234  -0.000234  -0.003942  -0.000062   0.268286
 Mulliken charges:
               1
     1  C   -0.081605
     2  C    0.445409
     3  C    0.459745
     4  O   -0.467088
     5  N   -0.748754
     6  C    0.681369
     7  O   -0.516635
     8  N   -0.647855
     9  F   -0.336791
    10  H    0.257374
    11  H    0.480732
    12  H    0.474099
 Sum of Mulliken charges =   0.00000
 Mulliken charges with hydrogens summed into heavy atoms:
               1
     1  C    0.175769
     2  C    0.445409
     3  C    0.459745
     4  O   -0.467088
     5  N   -0.268022
     6  C    0.681369
     7  O   -0.516635
     8  N   -0.173756
     9  F   -0.336791
 Electronic spatial extent (au):  <R**2>=           1069.4749
 Charge=              0.0000 electrons
 Dipole moment (field-independent basis, Debye):
    X=              1.4117    Y=             -3.9852    Z=              0.0026  Tot=              4.2278
 Quadrupole moment (field-independent basis, Debye-Ang):
   XX=            -67.7762   YY=            -42.3965   ZZ=            -50.3659
   XY=              0.9844   XZ=              0.0039   YZ=              0.0089
 Traceless Quadrupole moment (field-independent basis, Debye-Ang):
   XX=            -14.2633   YY=             11.1164   ZZ=              3.1469
   XY=              0.9844   XZ=              0.0039   YZ=              0.0089
 Octapole moment (field-independent basis, Debye-Ang**2):
  XXX=            -31.1298  YYY=            -23.5142  ZZZ=             -0.0107  XYY=             19.0367
  XXY=            -16.6417  XXZ=              0.0184  XZZ=             -4.1521  YZZ=              1.2040
  YYZ=              0.0006  XYZ=              0.0089
 Hexadecapole moment (field-independent basis, Debye-Ang**3):
 XXXX=           -960.5269 YYYY=           -356.8177 ZZZZ=            -47.5811 XXXY=            -16.4213
 XXXZ=              0.0426 YYYX=             23.1748 YYYZ=              0.0508 ZZZX=              0.0053
 ZZZY=              0.0084 XXYY=           -199.3695 XXZZ=           -140.3279 YYZZ=            -80.7763
 XXYZ=              0.0219 YYXZ=              0.0013 ZZXY=              2.1164
 N-N= 4.392456779072D+02 E-N=-2.082364551696D+03  KE= 5.095887566406D+02
 Calling FoFJK, ICntrl=      2127 FMM=F ISym2X=0 I1Cent= 0 IOpClX= 0 NMat=1 NMatS=1 NMatT=0.
 ***** Axes restored to original set *****
 -------------------------------------------------------------------
 Center     Atomic                   Forces (Hartrees/Bohr)
 Number     Number              X              Y              Z
 -------------------------------------------------------------------
      1        6           0.002539594    0.013456183    0.005140828
      2        6          -0.007203068   -0.006138487    0.006127834
      3        6          -0.018070362    0.006250402    0.029066271
      4        8           0.015252032   -0.000879812   -0.021788320
      5        7           0.007019729    0.010723080   -0.003020965
      6        6           0.009678961   -0.017968616   -0.024612466
      7        8          -0.009858863    0.017548148    0.024657953
      8        7          -0.001577605   -0.009715894   -0.004024063
      9        9           0.004240418   -0.005999845   -0.009725198
     10        1          -0.000398090    0.001451523    0.001411304
     11        1           0.001436686    0.000499769   -0.001632325
     12        1          -0.003059433   -0.009226450   -0.001600853
 -------------------------------------------------------------------
 Cartesian Forces:  Max     0.029066271 RMS     0.011590745

 GradGradGradGradGradGradGradGradGradGradGradGradGradGradGradGradGradGrad
 Berny optimization.
 FormGI is forming the generalized inverse of G from B-inverse, IUseBI=4.
 Internal  Forces:  Max     0.031829266 RMS     0.007405697
 Search for a local minimum.
 Step number   1 out of a maximum of   64
 All quantities printed in internal units (Hartrees-Bohrs-Radians)
 Mixed Optimization -- RFO/linear search
 Second derivative matrix not updated -- first step.
 ITU=  0
     Eigenvalues ---    0.01411   0.01598   0.01735   0.01772   0.01818
     Eigenvalues ---    0.01965   0.02082   0.02364   0.02633   0.16000
     Eigenvalues ---    0.16000   0.16000   0.22359   0.23456   0.24548
     Eigenvalues ---    0.25000   0.25000   0.25000   0.34310   0.35692
     Eigenvalues ---    0.43142   0.44940   0.44952   0.45043   0.46835
     Eigenvalues ---    0.50235   0.56071   0.57431   0.90423   0.92556
 RFO step:  Lambda=-6.17092976D-03 EMin= 1.41079893D-02
 Linear search not attempted -- first point.
 Iteration  1 RMS(Cart)=  0.02682949 RMS(Int)=  0.00067719
 Iteration  2 RMS(Cart)=  0.00072954 RMS(Int)=  0.00001926
 Iteration  3 RMS(Cart)=  0.00000028 RMS(Int)=  0.00001926
 Variable       Old X    -DE/DX   Delta X   Delta X   Delta X     New X
                                 (Linear)    (Quad)   (Total)
    R1        2.51655   0.00672   0.00000   0.01304   0.01304   2.52959
    R2        2.58594   0.01298   0.00000   0.02644   0.02641   2.61235
    R3        2.04566   0.00125   0.00000   0.00345   0.00345   2.04911
    R4        2.78826  -0.00586   0.00000  -0.01538  -0.01536   2.77290
    R5        2.54193  -0.01216   0.00000  -0.02145  -0.02145   2.52048
    R6        2.31777  -0.02420   0.00000  -0.02598  -0.02598   2.29179
    R7        2.62799   0.00070   0.00000  -0.00020  -0.00017   2.62782
    R8        2.64737  -0.01055   0.00000  -0.02523  -0.02523   2.62215
    R9        1.92032  -0.00076   0.00000  -0.00166  -0.00166   1.91865
   R10        2.32739  -0.03183   0.00000  -0.03496  -0.03496   2.29242
   R11        2.62704  -0.01079   0.00000  -0.02307  -0.02310   2.60394
   R12        1.91926  -0.00467   0.00000  -0.01024  -0.01024   1.90902
    A1        2.11973  -0.00606   0.00000  -0.01938  -0.01941   2.10032
    A2        2.13846   0.00133   0.00000  -0.00058  -0.00056   2.13790
    A3        2.02499   0.00474   0.00000   0.01996   0.01997   2.04497
    A4        2.10835   0.00097   0.00000   0.00892   0.00894   2.11729
    A5        2.13942  -0.00148   0.00000  -0.00833  -0.00835   2.13107
    A6        2.03542   0.00051   0.00000  -0.00058  -0.00059   2.03483
    A7        2.11937   0.01485   0.00000   0.05916   0.05913   2.17851
    A8        1.98719  -0.00400   0.00000  -0.01796  -0.01790   1.96929
    A9        2.17662  -0.01086   0.00000  -0.04121  -0.04124   2.13539
   A10        2.20303   0.00920   0.00000   0.03219   0.03222   2.23526
   A11        2.04137  -0.00256   0.00000  -0.00380  -0.00382   2.03755
   A12        2.03878  -0.00664   0.00000  -0.02839  -0.02841   2.01038
   A13        2.14023   0.00117   0.00000   0.00761   0.00763   2.14786
   A14        1.99848  -0.00282   0.00000  -0.01710  -0.01713   1.98135
   A15        2.14448   0.00165   0.00000   0.00949   0.00950   2.15398
   A16        2.14959   0.00271   0.00000   0.01332   0.01326   2.16286
   A17        2.05685   0.00694   0.00000   0.04324   0.04327   2.10012
   A18        2.07674  -0.00965   0.00000  -0.05657  -0.05654   2.02020
    D1       -0.00038   0.00001   0.00000   0.00037   0.00037  -0.00002
    D2        3.14087   0.00003   0.00000   0.00080   0.00079  -3.14152
    D3       -3.14076  -0.00002   0.00000  -0.00077  -0.00077  -3.14153
    D4        0.00050  -0.00001   0.00000  -0.00034  -0.00034   0.00015
    D5        0.00024  -0.00002   0.00000  -0.00067  -0.00067  -0.00043
    D6       -3.14039  -0.00002   0.00000  -0.00076  -0.00076  -3.14116
    D7        3.14069   0.00001   0.00000   0.00039   0.00039   3.14108
    D8        0.00005   0.00001   0.00000   0.00030   0.00030   0.00036
    D9        3.14144   0.00000   0.00000   0.00011   0.00011   3.14155
   D10       -0.00019   0.00000   0.00000   0.00005   0.00005  -0.00014
   D11        0.00016  -0.00001   0.00000  -0.00029  -0.00029  -0.00013
   D12       -3.14146  -0.00001   0.00000  -0.00035  -0.00035   3.14137
   D13        0.00099   0.00000   0.00000  -0.00018  -0.00018   0.00081
   D14       -3.14102  -0.00001   0.00000  -0.00024  -0.00024  -3.14126
   D15       -3.14064   0.00000   0.00000  -0.00024  -0.00024  -3.14088
   D16        0.00054  -0.00001   0.00000  -0.00030  -0.00030   0.00024
   D17        3.13991   0.00003   0.00000   0.00131   0.00131   3.14122
   D18       -0.00113   0.00000   0.00000  -0.00007  -0.00007  -0.00120
   D19       -0.00127   0.00003   0.00000   0.00137   0.00137   0.00010
   D20        3.14088   0.00000   0.00000  -0.00002  -0.00002   3.14086
   D21        0.00047   0.00001   0.00000   0.00049   0.00049   0.00096
   D22        3.14109   0.00002   0.00000   0.00063   0.00063  -3.14146
   D23       -3.14056  -0.00002   0.00000  -0.00090  -0.00090  -3.14146
   D24        0.00006  -0.00002   0.00000  -0.00076  -0.00076  -0.00070
         Item               Value     Threshold  Converged?
 Maximum Force            0.031829     0.000450     NO 
 RMS     Force            0.007406     0.000300     NO 
 Maximum Displacement     0.111209     0.001800     NO 
 RMS     Displacement     0.026797     0.001200     NO 
 Predicted change in Energy=-3.143487D-03
 GradGradGradGradGradGradGradGradGradGradGradGradGradGradGradGradGradGrad

                          Input orientation:                          
 ---------------------------------------------------------------------
 Center     Atomic      Atomic             Coordinates (Angstroms)
 Number     Number       Type             X           Y           Z
 ---------------------------------------------------------------------
      1          6           0        0.662914    1.394529   -0.038855
      2          6           0       -0.203227    0.918870    0.864140
      3          6           0       -0.745948   -0.440296    0.758057
      4          8           0       -1.532082   -0.934855    1.537931
      5          7           0       -0.263358   -1.129104   -0.349360
      6          6           0        0.632240   -0.683199   -1.310844
      7          8           0        0.993884   -1.366240   -2.245872
      8          7           0        1.067836    0.607036   -1.100416
      9          9           0       -0.617498    1.647783    1.901458
     10          1           0        1.075831    2.395393    0.020929
     11          1           0       -0.601382   -2.077467   -0.480488
     12          1           0        1.721789    0.966051   -1.781578
 ---------------------------------------------------------------------
                    Distance matrix (angstroms):
                    1          2          3          4          5
     1  C    0.000000
     2  C    1.338601   0.000000
     3  C    2.446742   1.467355   0.000000
     4  O    3.567954   2.378265   1.212765   0.000000
     5  N    2.706127   2.381259   1.390584   2.282381   0.000000
     6  C    2.436361   2.827576   2.497750   3.586522   1.387580
     7  O    3.549973   4.040665   3.592767   4.569875   2.287717
     8  N    1.382396   2.360576   2.800114   4.012216   2.313081
     9  F    2.338463   1.333778   2.384101   2.763808   3.592033
    10  H    1.084345   2.127702   3.450127   4.493669   3.788486
    11  H    3.721323   3.308260   2.057965   2.499156   1.015306
    12  H    2.083721   3.272268   3.810156   5.021978   3.222070
                    6          7          8          9         10
     6  C    0.000000
     7  O    1.213098   0.000000
     8  N    1.377944   2.282839   0.000000
     9  F    4.161034   5.374126   3.596491   0.000000
    10  H    3.383508   4.392606   2.110853   2.638688   0.000000
    11  H    2.038455   2.483405   3.221359   4.421698   4.803222
    12  H    2.031929   2.486965   1.010212   4.416082   2.389417
                   11         12
    11  H    0.000000
    12  H    4.043880   0.000000
 Stoichiometry    C4H3FN2O2
 Framework group  C1[X(C4H3FN2O2)]
 Deg. of freedom    30
 Full point group                 C1      NOp   1
 Largest Abelian subgroup         C1      NOp   1
 Largest concise Abelian subgroup C1      NOp   1
                         Standard orientation:                         
 ---------------------------------------------------------------------
 Center     Atomic      Atomic             Coordinates (Angstroms)
 Number     Number       Type             X           Y           Z
 ---------------------------------------------------------------------
      1          6           0       -0.229049   -1.511079    0.000079
      2          6           0       -1.140287   -0.530519   -0.000033
      3          6           0       -0.741076    0.881487    0.000014
      4          8           0       -1.510754    1.818714   -0.000123
      5          7           0        0.639008    1.052043    0.000361
      6          6           0        1.622160    0.072865   -0.000234
      7          8           0        2.808516    0.326177   -0.000232
      8          7           0        1.120256   -1.210421    0.000223
      9          9           0       -2.450440   -0.780444   -0.000092
     10          1           0       -0.502492   -2.560380   -0.000015
     11          1           0        0.981228    2.007937    0.000717
     12          1           0        1.807798   -1.950566   -0.000072
 ---------------------------------------------------------------------
 Rotational constants (GHZ):      3.2227040      1.4084748      0.9801171
 Standard basis: 6-31+G(d) (6D, 7F)
 There are   177 symmetry adapted cartesian basis functions of A   symmetry.
 There are   177 symmetry adapted basis functions of A   symmetry.
   177 basis functions,   300 primitive gaussians,   177 cartesian basis functions
    33 alpha electrons       33 beta electrons
       nuclear repulsion energy       441.1171895032 Hartrees.
 NAtoms=   12 NActive=   12 NUniq=   12 SFac= 1.00D+00 NAtFMM=   60 NAOKFM=F Big=F
 Integral buffers will be    131072 words long.
 Raffenetti 2 integral format.
 Two-electron integral symmetry is turned on.
 One-electron integrals computed using PRISM.
 NBasis=   177 RedAO= T EigKep=  2.10D-05  NBF=   177
 NBsUse=   177 1.00D-06 EigRej= -1.00D+00 NBFU=   177
 Initial guess from the checkpoint file:  "/srv/scratch/z5358697/gauss/Gau-3540104.chk"
 B after Tr=     0.000000    0.000000    0.000000
         Rot=    0.999995   -0.000003    0.000000    0.003038 Ang=  -0.35 deg.
 ExpMin= 4.38D-02 ExpMax= 7.00D+03 ExpMxC= 1.05D+03 IAcc=2 IRadAn=         4 AccDes= 0.00D+00
 Harris functional with IExCor= 1009 and IRadAn=       4 diagonalized for initial guess.
 HarFok:  IExCor= 1009 AccDes= 0.00D+00 IRadAn=         4 IDoV= 1 UseB2=F ITyADJ=14
 ICtDFT=  3500011 ScaDFX=  1.000000  1.000000  1.000000  1.000000
 FoFCou: FMM=F IPFlag=           0 FMFlag=      100000 FMFlg1=           0
         NFxFlg=           0 DoJE=T BraDBF=F KetDBF=T FulRan=T
         wScrn=  0.000000 ICntrl=     500 IOpCl=  0 I1Cent=   200000004 NGrid=           0
         NMat0=    1 NMatS0=      1 NMatT0=    0 NMatD0=    1 NMtDS0=    0 NMtDT0=    0
 Petite list used in FoFCou.
 Requested convergence on RMS density matrix=1.00D-08 within 128 cycles.
 Requested convergence on MAX density matrix=1.00D-06.
 Requested convergence on             energy=1.00D-06.
 No special actions if energy rises.
 SCF Done:  E(RM062X) =  -513.866655966     A.U. after   12 cycles
            NFock= 12  Conv=0.44D-08     -V/T= 2.0080
 Calling FoFJK, ICntrl=      2127 FMM=F ISym2X=0 I1Cent= 0 IOpClX= 0 NMat=1 NMatS=1 NMatT=0.
 ***** Axes restored to original set *****
 -------------------------------------------------------------------
 Center     Atomic                   Forces (Hartrees/Bohr)
 Number     Number              X              Y              Z
 -------------------------------------------------------------------
      1        6           0.001097098    0.000895348   -0.000938824
      2        6          -0.000493501   -0.001315528   -0.000161409
      3        6          -0.005637185    0.000413737    0.008100963
      4        8           0.002012195    0.000464678   -0.002515368
      5        7           0.002509760    0.000199552   -0.003314874
      6        6          -0.000570849   -0.004639678   -0.002353672
      7        8           0.000290004    0.001001546    0.000300344
      8        7           0.000291472    0.004073667    0.002244089
      9        9           0.000687516    0.000262738   -0.000779039
     10        1          -0.000304142   -0.000593392    0.000035042
     11        1          -0.000421983   -0.000156474    0.000514169
     12        1           0.000539615   -0.000606194   -0.001131422
 -------------------------------------------------------------------
 Cartesian Forces:  Max     0.008100963 RMS     0.002264865

 GradGradGradGradGradGradGradGradGradGradGradGradGradGradGradGradGradGrad
 Berny optimization.
 Using GEDIIS/GDIIS optimizer.
 FormGI is forming the generalized inverse of G from B-inverse, IUseBI=4.
 Internal  Forces:  Max     0.004542171 RMS     0.001102653
 Search for a local minimum.
 Step number   2 out of a maximum of   64
 All quantities printed in internal units (Hartrees-Bohrs-Radians)
 Mixed Optimization -- RFO/linear search
 Update second derivatives using D2CorX and points    1    2
 DE= -3.29D-03 DEPred=-3.14D-03 R= 1.05D+00
 TightC=F SS=  1.41D+00  RLast= 1.37D-01 DXNew= 5.0454D-01 4.1078D-01
 Trust test= 1.05D+00 RLast= 1.37D-01 DXMaxT set to 4.11D-01
 ITU=  1  0
 Use linear search instead of GDIIS.
     Eigenvalues ---    0.01390   0.01605   0.01735   0.01772   0.01819
     Eigenvalues ---    0.01973   0.02078   0.02357   0.02631   0.15520
     Eigenvalues ---    0.16000   0.16126   0.22055   0.22503   0.24177
     Eigenvalues ---    0.24766   0.25000   0.25372   0.34368   0.35720
     Eigenvalues ---    0.44004   0.44785   0.44956   0.45200   0.48026
     Eigenvalues ---    0.50882   0.56005   0.57376   0.89837   0.91932
 RFO step:  Lambda=-1.72969580D-04 EMin= 1.39001576D-02
 Quartic linear search produced a step of  0.06097.
 Iteration  1 RMS(Cart)=  0.00399001 RMS(Int)=  0.00001411
 Iteration  2 RMS(Cart)=  0.00001719 RMS(Int)=  0.00000382
 Iteration  3 RMS(Cart)=  0.00000000 RMS(Int)=  0.00000382
 Variable       Old X    -DE/DX   Delta X   Delta X   Delta X     New X
                                 (Linear)    (Quad)   (Total)
    R1        2.52959   0.00142   0.00080   0.00195   0.00274   2.53233
    R2        2.61235  -0.00064   0.00161  -0.00242  -0.00082   2.61153
    R3        2.04911  -0.00066   0.00021  -0.00209  -0.00188   2.04723
    R4        2.77290   0.00036  -0.00094   0.00164   0.00071   2.77361
    R5        2.52048  -0.00067  -0.00131  -0.00053  -0.00184   2.51864
    R6        2.29179  -0.00311  -0.00158  -0.00268  -0.00426   2.28753
    R7        2.62782   0.00454  -0.00001   0.01041   0.01040   2.63822
    R8        2.62215   0.00080  -0.00154   0.00294   0.00140   2.62355
    R9        1.91865   0.00022  -0.00010   0.00058   0.00048   1.91913
   R10        2.29242  -0.00071  -0.00213   0.00037  -0.00177   2.29066
   R11        2.60394   0.00283  -0.00141   0.00714   0.00572   2.60966
   R12        1.90902   0.00090  -0.00062   0.00247   0.00185   1.91087
    A1        2.10032   0.00053  -0.00118   0.00233   0.00114   2.10146
    A2        2.13790  -0.00039  -0.00003  -0.00160  -0.00163   2.13627
    A3        2.04497  -0.00014   0.00122  -0.00073   0.00049   2.04546
    A4        2.11729   0.00121   0.00055   0.00432   0.00487   2.12216
    A5        2.13107  -0.00161  -0.00051  -0.00627  -0.00678   2.12429
    A6        2.03483   0.00040  -0.00004   0.00195   0.00191   2.03673
    A7        2.17851   0.00218   0.00361   0.00696   0.01056   2.18907
    A8        1.96929  -0.00210  -0.00109  -0.00800  -0.00908   1.96022
    A9        2.13539  -0.00009  -0.00251   0.00104  -0.00148   2.13390
   A10        2.23526   0.00125   0.00196   0.00540   0.00737   2.24263
   A11        2.03755  -0.00122  -0.00023  -0.00709  -0.00732   2.03023
   A12        2.01038  -0.00004  -0.00173   0.00169  -0.00005   2.01033
   A13        2.14786   0.00142   0.00046   0.00564   0.00611   2.15396
   A14        1.98135  -0.00087  -0.00104  -0.00289  -0.00394   1.97741
   A15        2.15398  -0.00054   0.00058  -0.00275  -0.00217   2.15181
   A16        2.16286  -0.00002   0.00081  -0.00116  -0.00037   2.16249
   A17        2.10012   0.00100   0.00264   0.00518   0.00782   2.10794
   A18        2.02020  -0.00098  -0.00345  -0.00401  -0.00745   2.01275
    D1       -0.00002   0.00001   0.00002   0.00026   0.00028   0.00027
    D2       -3.14152   0.00000   0.00005  -0.00020  -0.00015   3.14151
    D3       -3.14153   0.00000  -0.00005   0.00029   0.00024  -3.14128
    D4        0.00015   0.00000  -0.00002  -0.00017  -0.00019  -0.00004
    D5       -0.00043   0.00001  -0.00004   0.00042   0.00038  -0.00005
    D6       -3.14116   0.00000  -0.00005   0.00025   0.00021  -3.14095
    D7        3.14108   0.00001   0.00002   0.00040   0.00042   3.14150
    D8        0.00036   0.00000   0.00002   0.00023   0.00024   0.00060
    D9        3.14155  -0.00001   0.00001  -0.00038  -0.00037   3.14118
   D10       -0.00014   0.00000   0.00000  -0.00017  -0.00017  -0.00031
   D11       -0.00013   0.00000  -0.00002   0.00006   0.00004  -0.00008
   D12        3.14137   0.00000  -0.00002   0.00027   0.00024  -3.14157
   D13        0.00081  -0.00001  -0.00001  -0.00063  -0.00064   0.00017
   D14       -3.14126  -0.00001  -0.00001  -0.00065  -0.00067   3.14126
   D15       -3.14088  -0.00001  -0.00001  -0.00043  -0.00045  -3.14132
   D16        0.00024  -0.00001  -0.00002  -0.00045  -0.00047  -0.00023
   D17        3.14122  -0.00002   0.00008  -0.00106  -0.00098   3.14024
   D18       -0.00120   0.00002   0.00000   0.00123   0.00122   0.00002
   D19        0.00010  -0.00002   0.00008  -0.00104  -0.00096  -0.00086
   D20        3.14086   0.00002   0.00000   0.00125   0.00125  -3.14108
   D21        0.00096  -0.00002   0.00003  -0.00109  -0.00106  -0.00009
   D22       -3.14146  -0.00002   0.00004  -0.00092  -0.00088   3.14084
   D23       -3.14146   0.00002  -0.00005   0.00121   0.00115  -3.14031
   D24       -0.00070   0.00002  -0.00005   0.00138   0.00133   0.00063
         Item               Value     Threshold  Converged?
 Maximum Force            0.004542     0.000450     NO 
 RMS     Force            0.001103     0.000300     NO 
 Maximum Displacement     0.011478     0.001800     NO 
 RMS     Displacement     0.003985     0.001200     NO 
 Predicted change in Energy=-9.840019D-05
 GradGradGradGradGradGradGradGradGradGradGradGradGradGradGradGradGradGrad

                          Input orientation:                          
 ---------------------------------------------------------------------
 Center     Atomic      Atomic             Coordinates (Angstroms)
 Number     Number       Type             X           Y           Z
 ---------------------------------------------------------------------
      1          6           0        0.662759    1.394428   -0.038680
      2          6           0       -0.204496    0.917699    0.864837
      3          6           0       -0.750719   -0.440871    0.764057
      4          8           0       -1.535218   -0.940929    1.538550
      5          7           0       -0.262588   -1.127142   -0.349414
      6          6           0        0.632713   -0.683979   -1.313508
      7          8           0        0.997325   -1.363707   -2.248585
      8          7           0        1.068810    0.608937   -1.100731
      9          9           0       -0.613514    1.652325    1.898956
     10          1           0        1.074222    2.394690    0.023116
     11          1           0       -0.601678   -2.075735   -0.478055
     12          1           0        1.723384    0.962783   -1.785444
 ---------------------------------------------------------------------
                    Distance matrix (angstroms):
                    1          2          3          4          5
     1  C    0.000000
     2  C    1.340054   0.000000
     3  C    2.451659   1.467729   0.000000
     4  O    3.573884   2.383109   1.210511   0.000000
     5  N    2.703912   2.378898   1.396087   2.284441   0.000000
     6  C    2.438415   2.830455   2.507840   3.591682   1.388320
     7  O    3.550060   4.042596   3.603234   4.575468   2.291330
     8  N    1.381964   2.362223   2.808953   4.018563   2.313238
     9  F    2.334484   1.332806   2.385013   2.775679   3.592179
    10  H    1.083349   2.127232   3.452508   4.498007   3.785385
    11  H    3.719393   3.304809   2.058601   2.495191   1.015559
    12  H    2.088642   3.277612   3.819867   5.029070   3.220878
                    6          7          8          9         10
     6  C    0.000000
     7  O    1.212164   0.000000
     8  N    1.380974   2.283420   0.000000
     9  F    4.163090   5.375253   3.594021   0.000000
    10  H    3.385217   4.392276   2.109970   2.630272   0.000000
    11  H    2.039286   2.489693   3.222689   4.421397   4.800470
    12  H    2.030791   2.480770   1.011190   4.417166   2.396384
                   11         12
    11  H    0.000000
    12  H    4.043238   0.000000
 Stoichiometry    C4H3FN2O2
 Framework group  C1[X(C4H3FN2O2)]
 Deg. of freedom    30
 Full point group                 C1      NOp   1
 Largest Abelian subgroup         C1      NOp   1
 Largest concise Abelian subgroup C1      NOp   1
                         Standard orientation:                         
 ---------------------------------------------------------------------
 Center     Atomic      Atomic             Coordinates (Angstroms)
 Number     Number       Type             X           Y           Z
 ---------------------------------------------------------------------
      1          6           0       -0.227167   -1.510786    0.000007
      2          6           0       -1.140312   -0.530016    0.000106
      3          6           0       -0.749212    0.884647    0.000114
      4          8           0       -1.513007    1.823770   -0.000211
      5          7           0        0.636887    1.051352    0.000411
      6          6           0        1.624574    0.075694    0.000500
      7          8           0        2.810521    0.326434   -0.000605
      8          7           0        1.121777   -1.210495    0.000228
      9          9           0       -2.447544   -0.789855   -0.000193
     10          1           0       -0.501087   -2.558933   -0.000285
     11          1           0        0.975309    2.008864    0.000130
     12          1           0        1.815609   -1.946092   -0.000401
 ---------------------------------------------------------------------
 Rotational constants (GHZ):      3.2105581      1.4073930      0.9784680
 Standard basis: 6-31+G(d) (6D, 7F)
 There are   177 symmetry adapted cartesian basis functions of A   symmetry.
 There are   177 symmetry adapted basis functions of A   symmetry.
   177 basis functions,   300 primitive gaussians,   177 cartesian basis functions
    33 alpha electrons       33 beta electrons
       nuclear repulsion energy       440.8245820398 Hartrees.
 NAtoms=   12 NActive=   12 NUniq=   12 SFac= 1.00D+00 NAtFMM=   60 NAOKFM=F Big=F
 Integral buffers will be    131072 words long.
 Raffenetti 2 integral format.
 Two-electron integral symmetry is turned on.
 One-electron integrals computed using PRISM.
 NBasis=   177 RedAO= T EigKep=  2.11D-05  NBF=   177
 NBsUse=   177 1.00D-06 EigRej= -1.00D+00 NBFU=   177
 Initial guess from the checkpoint file:  "/srv/scratch/z5358697/gauss/Gau-3540104.chk"
 B after Tr=     0.000000    0.000000    0.000000
         Rot=    1.000000    0.000000    0.000000   -0.000629 Ang=   0.07 deg.
 Requested convergence on RMS density matrix=1.00D-08 within 128 cycles.
 Requested convergence on MAX density matrix=1.00D-06.
 Requested convergence on             energy=1.00D-06.
 No special actions if energy rises.
 SCF Done:  E(RM062X) =  -513.866779553     A.U. after   11 cycles
            NFock= 11  Conv=0.34D-08     -V/T= 2.0080
 Calling FoFJK, ICntrl=      2127 FMM=F ISym2X=0 I1Cent= 0 IOpClX= 0 NMat=1 NMatS=1 NMatT=0.
 ***** Axes restored to original set *****
 -------------------------------------------------------------------
 Center     Atomic                   Forces (Hartrees/Bohr)
 Number     Number              X              Y              Z
 -------------------------------------------------------------------
      1        6           0.000315080   -0.001098518   -0.001147302
      2        6           0.000120227   -0.000958243   -0.000754989
      3        6          -0.001298354    0.000997004    0.002417003
      4        8           0.000567018    0.000088907   -0.000735330
      5        7           0.001215163   -0.000372967   -0.002013689
      6        6          -0.000761889   -0.001552285    0.000463194
      7        8           0.000033976    0.000097713   -0.000156692
      8        7           0.000152594    0.002084304    0.001019492
      9        9          -0.000099463    0.000771138    0.000620594
     10        1          -0.000085708    0.000053312    0.000148207
     11        1          -0.000216204   -0.000054916    0.000261851
     12        1           0.000057560   -0.000055451   -0.000122340
 -------------------------------------------------------------------
 Cartesian Forces:  Max     0.002417003 RMS     0.000897463

 GradGradGradGradGradGradGradGradGradGradGradGradGradGradGradGradGradGrad
 Berny optimization.
 Using GEDIIS/GDIIS optimizer.
 FormGI is forming the generalized inverse of G from B-inverse, IUseBI=4.
 Internal  Forces:  Max     0.001696473 RMS     0.000421021
 Search for a local minimum.
 Step number   3 out of a maximum of   64
 All quantities printed in internal units (Hartrees-Bohrs-Radians)
 Mixed Optimization -- En-DIIS/RFO-DIIS
 Update second derivatives using D2CorX and points    1    2    3
 DE= -1.24D-04 DEPred=-9.84D-05 R= 1.26D+00
 TightC=F SS=  1.41D+00  RLast= 2.74D-02 DXNew= 6.9085D-01 8.2240D-02
 Trust test= 1.26D+00 RLast= 2.74D-02 DXMaxT set to 4.11D-01
 ITU=  1  1  0
 Use linear search instead of GDIIS.
     Eigenvalues ---    0.01387   0.01607   0.01736   0.01777   0.01821
     Eigenvalues ---    0.01974   0.02073   0.02357   0.02630   0.14042
     Eigenvalues ---    0.16067   0.16309   0.19566   0.22935   0.23979
     Eigenvalues ---    0.24901   0.25090   0.25419   0.34474   0.35806
     Eigenvalues ---    0.40841   0.44312   0.44955   0.45194   0.46241
     Eigenvalues ---    0.51371   0.56813   0.59067   0.89887   0.91666
 RFO step:  Lambda=-1.97380518D-05 EMin= 1.38738137D-02
 Quartic linear search produced a step of  0.29874.
 Iteration  1 RMS(Cart)=  0.00182266 RMS(Int)=  0.00000426
 Iteration  2 RMS(Cart)=  0.00000397 RMS(Int)=  0.00000172
 Iteration  3 RMS(Cart)=  0.00000000 RMS(Int)=  0.00000172
 Variable       Old X    -DE/DX   Delta X   Delta X   Delta X     New X
                                 (Linear)    (Quad)   (Total)
    R1        2.53233   0.00008   0.00082  -0.00038   0.00044   2.53278
    R2        2.61153  -0.00119  -0.00024  -0.00266  -0.00291   2.60863
    R3        2.04723   0.00002  -0.00056   0.00053  -0.00004   2.04720
    R4        2.77361  -0.00034   0.00021  -0.00154  -0.00133   2.77227
    R5        2.51864   0.00094  -0.00055   0.00228   0.00173   2.52037
    R6        2.28753  -0.00087  -0.00127  -0.00064  -0.00191   2.28562
    R7        2.63822   0.00170   0.00311   0.00260   0.00571   2.64393
    R8        2.62355  -0.00056   0.00042  -0.00200  -0.00159   2.62196
    R9        1.91913   0.00009   0.00014   0.00014   0.00028   1.91941
   R10        2.29066   0.00008  -0.00053   0.00007  -0.00046   2.29020
   R11        2.60966   0.00122   0.00171   0.00183   0.00354   2.61320
   R12        1.91087   0.00010   0.00055  -0.00022   0.00033   1.91121
    A1        2.10146   0.00051   0.00034   0.00181   0.00215   2.10361
    A2        2.13627  -0.00047  -0.00049  -0.00250  -0.00299   2.13328
    A3        2.04546  -0.00004   0.00015   0.00069   0.00084   2.04630
    A4        2.12216   0.00011   0.00146  -0.00074   0.00072   2.12288
    A5        2.12429  -0.00043  -0.00203  -0.00064  -0.00267   2.12162
    A6        2.03673   0.00032   0.00057   0.00138   0.00194   2.03868
    A7        2.18907   0.00061   0.00315   0.00129   0.00444   2.19351
    A8        1.96022  -0.00039  -0.00271   0.00012  -0.00259   1.95763
    A9        2.13390  -0.00022  -0.00044  -0.00141  -0.00185   2.13205
   A10        2.24263   0.00003   0.00220  -0.00049   0.00171   2.24434
   A11        2.03023  -0.00030  -0.00219  -0.00109  -0.00327   2.02695
   A12        2.01033   0.00027  -0.00001   0.00158   0.00156   2.01189
   A13        2.15396   0.00027   0.00182   0.00000   0.00182   2.15579
   A14        1.97741  -0.00013  -0.00118   0.00027  -0.00091   1.97650
   A15        2.15181  -0.00014  -0.00065  -0.00027  -0.00092   2.15089
   A16        2.16249  -0.00014  -0.00011  -0.00097  -0.00108   2.16141
   A17        2.10794   0.00014   0.00234  -0.00018   0.00215   2.11010
   A18        2.01275   0.00000  -0.00223   0.00116  -0.00107   2.01168
    D1        0.00027  -0.00001   0.00008  -0.00070  -0.00062  -0.00035
    D2        3.14151   0.00001  -0.00005   0.00041   0.00036  -3.14131
    D3       -3.14128  -0.00001   0.00007  -0.00102  -0.00095   3.14096
    D4       -0.00004   0.00000  -0.00006   0.00009   0.00004   0.00000
    D5       -0.00005  -0.00001   0.00012  -0.00097  -0.00085  -0.00090
    D6       -3.14095  -0.00001   0.00006  -0.00097  -0.00091   3.14132
    D7        3.14150   0.00000   0.00013  -0.00067  -0.00054   3.14096
    D8        0.00060  -0.00001   0.00007  -0.00067  -0.00060   0.00000
    D9        3.14118   0.00001  -0.00011   0.00132   0.00121  -3.14080
   D10       -0.00031   0.00001  -0.00005   0.00065   0.00060   0.00028
   D11       -0.00008   0.00000   0.00001   0.00026   0.00028   0.00019
   D12       -3.14157   0.00000   0.00007  -0.00041  -0.00034   3.14127
   D13        0.00017   0.00001  -0.00019   0.00111   0.00092   0.00108
   D14        3.14126   0.00001  -0.00020   0.00125   0.00105  -3.14088
   D15       -3.14132   0.00001  -0.00013   0.00046   0.00033  -3.14100
   D16       -0.00023   0.00001  -0.00014   0.00060   0.00046   0.00023
   D17        3.14024   0.00005  -0.00029   0.00380   0.00351  -3.13944
   D18        0.00002  -0.00003   0.00037  -0.00255  -0.00219  -0.00217
   D19       -0.00086   0.00004  -0.00029   0.00367   0.00338   0.00252
   D20       -3.14108  -0.00003   0.00037  -0.00269  -0.00232   3.13979
   D21       -0.00009   0.00003  -0.00032   0.00241   0.00210   0.00200
   D22        3.14084   0.00003  -0.00026   0.00242   0.00215  -3.14019
   D23       -3.14031  -0.00005   0.00034  -0.00394  -0.00359   3.13928
   D24        0.00063  -0.00004   0.00040  -0.00393  -0.00353  -0.00291
         Item               Value     Threshold  Converged?
 Maximum Force            0.001696     0.000450     NO 
 RMS     Force            0.000421     0.000300     NO 
 Maximum Displacement     0.006627     0.001800     NO 
 RMS     Displacement     0.001822     0.001200     NO 
 Predicted change in Energy=-1.776106D-05
 GradGradGradGradGradGradGradGradGradGradGradGradGradGradGradGradGradGrad

                          Input orientation:                          
 ---------------------------------------------------------------------
 Center     Atomic      Atomic             Coordinates (Angstroms)
 Number     Number       Type             X           Y           Z
 ---------------------------------------------------------------------
      1          6           0        0.662660    1.393005   -0.039135
      2          6           0       -0.204501    0.916993    0.865196
      3          6           0       -0.751749   -0.440533    0.766195
      4          8           0       -1.536312   -0.942840    1.537579
      5          7           0       -0.261484   -1.127169   -0.349901
      6          6           0        0.634302   -0.685518   -1.313029
      7          8           0        0.997096   -1.362821   -2.250253
      8          7           0        1.069579    0.609710   -1.100476
      9          9           0       -0.611701    1.655832    1.898212
     10          1           0        1.072283    2.393902    0.024256
     11          1           0       -0.602650   -2.075343   -0.477309
     12          1           0        1.723478    0.963281   -1.786236
 ---------------------------------------------------------------------
                    Distance matrix (angstroms):
                    1          2          3          4          5
     1  C    0.000000
     2  C    1.340287   0.000000
     3  C    2.451729   1.467024   0.000000
     4  O    3.574588   2.384282   1.209497   0.000000
     5  N    2.702202   2.378720   1.399107   2.285114   0.000000
     6  C    2.438005   2.831306   2.510842   3.592178   1.387480
     7  O    3.549009   4.043193   3.606665   4.576266   2.291482
     8  N    1.380427   2.362534   2.811532   4.020002   2.313404
     9  F    2.333750   1.333723   2.386592   2.781736   3.594685
    10  H    1.083329   2.125703   3.451317   4.497639   3.783763
    11  H    3.717855   3.303773   2.059402   2.492802   1.015707
    12  H    2.088626   3.278618   3.822610   5.030634   3.220731
                    6          7          8          9         10
     6  C    0.000000
     7  O    1.211919   0.000000
     8  N    1.382845   2.284321   0.000000
     9  F    4.164914   5.376826   3.593494   0.000000
    10  H    3.385703   4.392267   2.109115   2.625311   0.000000
    11  H    2.039630   2.492028   3.224003   4.423217   4.799074
    12  H    2.031937   2.480664   1.011367   4.416768   2.397626
                   11         12
    11  H    0.000000
    12  H    4.044428   0.000000
 Stoichiometry    C4H3FN2O2
 Framework group  C1[X(C4H3FN2O2)]
 Deg. of freedom    30
 Full point group                 C1      NOp   1
 Largest Abelian subgroup         C1      NOp   1
 Largest concise Abelian subgroup C1      NOp   1
                         Standard orientation:                         
 ---------------------------------------------------------------------
 Center     Atomic      Atomic             Coordinates (Angstroms)
 Number     Number       Type             X           Y           Z
 ---------------------------------------------------------------------
      1          6           0       -0.227078   -1.509224    0.000085
      2          6           0       -1.140762   -0.528637   -0.000221
      3          6           0       -0.751420    0.885779   -0.000217
      4          8           0       -1.511446    1.826653    0.000300
      5          7           0        0.637922    1.050790   -0.000234
      6          6           0        1.625239    0.075954   -0.001430
      7          8           0        2.811343    0.324752    0.000852
      8          7           0        1.120891   -1.211638    0.000000
      9          9           0       -2.448093   -0.792650    0.000174
     10          1           0       -0.503715   -2.556637    0.000667
     11          1           0        0.974675    2.009048    0.000421
     12          1           0        1.815135   -1.947089    0.000466
 ---------------------------------------------------------------------
 Rotational constants (GHZ):      3.2064771      1.4069315      0.9778658
 Standard basis: 6-31+G(d) (6D, 7F)
 There are   177 symmetry adapted cartesian basis functions of A   symmetry.
 There are   177 symmetry adapted basis functions of A   symmetry.
   177 basis functions,   300 primitive gaussians,   177 cartesian basis functions
    33 alpha electrons       33 beta electrons
       nuclear repulsion energy       440.7241935100 Hartrees.
 NAtoms=   12 NActive=   12 NUniq=   12 SFac= 1.00D+00 NAtFMM=   60 NAOKFM=F Big=F
 Integral buffers will be    131072 words long.
 Raffenetti 2 integral format.
 Two-electron integral symmetry is turned on.
 One-electron integrals computed using PRISM.
 NBasis=   177 RedAO= T EigKep=  2.11D-05  NBF=   177
 NBsUse=   177 1.00D-06 EigRej= -1.00D+00 NBFU=   177
 Initial guess from the checkpoint file:  "/srv/scratch/z5358697/gauss/Gau-3540104.chk"
 B after Tr=     0.000000    0.000000    0.000000
         Rot=    1.000000    0.000000    0.000000    0.000150 Ang=  -0.02 deg.
 Requested convergence on RMS density matrix=1.00D-08 within 128 cycles.
 Requested convergence on MAX density matrix=1.00D-06.
 Requested convergence on             energy=1.00D-06.
 No special actions if energy rises.
 SCF Done:  E(RM062X) =  -513.866798632     A.U. after   10 cycles
            NFock= 10  Conv=0.58D-08     -V/T= 2.0080
 Calling FoFJK, ICntrl=      2127 FMM=F ISym2X=0 I1Cent= 0 IOpClX= 0 NMat=1 NMatS=1 NMatT=0.
 ***** Axes restored to original set *****
 -------------------------------------------------------------------
 Center     Atomic                   Forces (Hartrees/Bohr)
 Number     Number              X              Y              Z
 -------------------------------------------------------------------
      1        6           0.000172442   -0.000608435   -0.000602936
      2        6          -0.000011150   -0.000367820   -0.000249131
      3        6           0.000221589    0.000664673    0.000125465
      4        8          -0.000191727   -0.000174426    0.000161833
      5        7           0.000487628   -0.000179280   -0.000495400
      6        6          -0.001065697   -0.000064401    0.000275651
      7        8           0.000346647   -0.000182770   -0.000113887
      8        7           0.000208589    0.000467234    0.000325847
      9        9          -0.000075421    0.000292492    0.000308477
     10        1          -0.000012707    0.000094578    0.000084884
     11        1          -0.000049614    0.000038808    0.000118459
     12        1          -0.000030578    0.000019347    0.000060737
 -------------------------------------------------------------------
 Cartesian Forces:  Max     0.001065697 RMS     0.000335509

 GradGradGradGradGradGradGradGradGradGradGradGradGradGradGradGradGradGrad
 Berny optimization.
 Using GEDIIS/GDIIS optimizer.
 FormGI is forming the generalized inverse of G from B-inverse, IUseBI=4.
 Internal  Forces:  Max     0.000539096 RMS     0.000158739
 Search for a local minimum.
 Step number   4 out of a maximum of   64
 All quantities printed in internal units (Hartrees-Bohrs-Radians)
 Mixed Optimization -- En-DIIS/RFO-DIIS
 Swapping is turned off.
 Update second derivatives using D2CorX and points    1    2    3    4
 DE= -1.91D-05 DEPred=-1.78D-05 R= 1.07D+00
 TightC=F SS=  1.41D+00  RLast= 1.50D-02 DXNew= 6.9085D-01 4.4990D-02
 Trust test= 1.07D+00 RLast= 1.50D-02 DXMaxT set to 4.11D-01
 ITU=  1  1  1  0
     Eigenvalues ---    0.01389   0.01608   0.01744   0.01810   0.01954
     Eigenvalues ---    0.02038   0.02090   0.02359   0.02632   0.12265
     Eigenvalues ---    0.16077   0.16234   0.18561   0.22840   0.23856
     Eigenvalues ---    0.24869   0.25148   0.25653   0.33876   0.35826
     Eigenvalues ---    0.37780   0.44340   0.44967   0.45139   0.47230
     Eigenvalues ---    0.51292   0.56286   0.58348   0.91025   0.92219
 En-DIIS/RFO-DIIS IScMMF=        0 using points:     4    3
 RFO step:  Lambda=-3.19297130D-06.
 DidBck=F Rises=F RFO-DIIS coefs:    1.16995   -0.16995
 Iteration  1 RMS(Cart)=  0.00180556 RMS(Int)=  0.00000905
 Iteration  2 RMS(Cart)=  0.00000650 RMS(Int)=  0.00000625
 Iteration  3 RMS(Cart)=  0.00000000 RMS(Int)=  0.00000625
 Variable       Old X    -DE/DX   Delta X   Delta X   Delta X     New X
                                 (Linear)    (Quad)   (Total)
    R1        2.53278   0.00001   0.00008   0.00020   0.00027   2.53305
    R2        2.60863  -0.00054  -0.00049  -0.00156  -0.00205   2.60658
    R3        2.04720   0.00009  -0.00001   0.00021   0.00020   2.04740
    R4        2.77227  -0.00029  -0.00023  -0.00111  -0.00134   2.77093
    R5        2.52037   0.00042   0.00029   0.00095   0.00124   2.52161
    R6        2.28562   0.00030  -0.00033  -0.00011  -0.00044   2.28518
    R7        2.64393   0.00032   0.00097   0.00193   0.00290   2.64683
    R8        2.62196  -0.00037  -0.00027  -0.00112  -0.00139   2.62057
    R9        1.91941  -0.00003   0.00005  -0.00004   0.00001   1.91942
   R10        2.29020   0.00029  -0.00008   0.00014   0.00007   2.29026
   R11        2.61320   0.00026   0.00060   0.00122   0.00182   2.61502
   R12        1.91121  -0.00005   0.00006  -0.00005   0.00000   1.91121
    A1        2.10361   0.00018   0.00036   0.00103   0.00139   2.10500
    A2        2.13328  -0.00022  -0.00051  -0.00175  -0.00226   2.13102
    A3        2.04630   0.00004   0.00014   0.00072   0.00086   2.04716
    A4        2.12288  -0.00006   0.00012  -0.00003   0.00009   2.12298
    A5        2.12162  -0.00002  -0.00045  -0.00071  -0.00116   2.12046
    A6        2.03868   0.00009   0.00033   0.00074   0.00107   2.03975
    A7        2.19351   0.00011   0.00075   0.00160   0.00235   2.19586
    A8        1.95763  -0.00001  -0.00044  -0.00066  -0.00110   1.95652
    A9        2.13205  -0.00010  -0.00031  -0.00093  -0.00125   2.13080
   A10        2.24434  -0.00006   0.00029   0.00044   0.00073   2.24507
   A11        2.02695  -0.00006  -0.00056  -0.00129  -0.00185   2.02511
   A12        2.01189   0.00012   0.00027   0.00085   0.00112   2.01301
   A13        2.15579   0.00014   0.00031   0.00114   0.00142   2.15721
   A14        1.97650   0.00002  -0.00015  -0.00016  -0.00033   1.97617
   A15        2.15089  -0.00016  -0.00016  -0.00093  -0.00112   2.14977
   A16        2.16141  -0.00008  -0.00018  -0.00061  -0.00079   2.16062
   A17        2.11010  -0.00004   0.00037   0.00041   0.00078   2.11087
   A18        2.01168   0.00011  -0.00018   0.00020   0.00002   2.01170
    D1       -0.00035   0.00002  -0.00011   0.00129   0.00118   0.00083
    D2       -3.14131  -0.00002   0.00006  -0.00080  -0.00074   3.14113
    D3        3.14096   0.00004  -0.00016   0.00204   0.00187  -3.14035
    D4        0.00000   0.00000   0.00001  -0.00005  -0.00005  -0.00005
    D5       -0.00090   0.00004  -0.00014   0.00214   0.00200   0.00110
    D6        3.14132   0.00003  -0.00015   0.00186   0.00170  -3.14016
    D7        3.14096   0.00002  -0.00009   0.00143   0.00134  -3.14089
    D8        0.00000   0.00002  -0.00010   0.00114   0.00104   0.00104
    D9       -3.14080  -0.00004   0.00021  -0.00281  -0.00261   3.13978
   D10        0.00028  -0.00002   0.00010  -0.00113  -0.00102  -0.00074
   D11        0.00019   0.00000   0.00005  -0.00082  -0.00078  -0.00059
   D12        3.14127   0.00001  -0.00006   0.00087   0.00081  -3.14110
   D13        0.00108  -0.00004   0.00016  -0.00256  -0.00240  -0.00132
   D14       -3.14088  -0.00004   0.00018  -0.00253  -0.00235   3.13996
   D15       -3.14100  -0.00002   0.00006  -0.00093  -0.00088   3.14131
   D16        0.00023  -0.00002   0.00008  -0.00091  -0.00083  -0.00060
   D17       -3.13944  -0.00012   0.00060  -0.00766  -0.00707   3.13668
   D18       -0.00217   0.00009  -0.00037   0.00552   0.00515   0.00298
   D19        0.00252  -0.00012   0.00057  -0.00769  -0.00712  -0.00460
   D20        3.13979   0.00009  -0.00039   0.00550   0.00510  -3.13829
   D21        0.00200  -0.00008   0.00036  -0.00514  -0.00479  -0.00278
   D22       -3.14019  -0.00008   0.00037  -0.00487  -0.00450   3.13849
   D23        3.13928   0.00013  -0.00061   0.00801   0.00739  -3.13652
   D24       -0.00291   0.00013  -0.00060   0.00828   0.00767   0.00476
         Item               Value     Threshold  Converged?
 Maximum Force            0.000539     0.000450     NO 
 RMS     Force            0.000159     0.000300     YES
 Maximum Displacement     0.006422     0.001800     NO 
 RMS     Displacement     0.001805     0.001200     NO 
 Predicted change in Energy=-5.892745D-06
 GradGradGradGradGradGradGradGradGradGradGradGradGradGradGradGradGradGrad

                          Input orientation:                          
 ---------------------------------------------------------------------
 Center     Atomic      Atomic             Coordinates (Angstroms)
 Number     Number       Type             X           Y           Z
 ---------------------------------------------------------------------
      1          6           0        0.662355    1.392059   -0.039859
      2          6           0       -0.205322    0.916944    0.864663
      3          6           0       -0.752697   -0.439842    0.766729
      4          8           0       -1.535525   -0.944416    1.538034
      5          7           0       -0.261941   -1.126665   -0.350962
      6          6           0        0.630904   -0.684582   -1.315561
      7          8           0        0.999823   -1.363368   -2.249360
      8          7           0        1.069146    0.610346   -1.101002
      9          9           0       -0.610326    1.657492    1.898166
     10          1           0        1.072277    2.392799    0.025854
     11          1           0       -0.602204   -2.075499   -0.475883
     12          1           0        1.724510    0.963232   -1.785719
 ---------------------------------------------------------------------
                    Distance matrix (angstroms):
                    1          2          3          4          5
     1  C    0.000000
     2  C    1.340432   0.000000
     3  C    2.451289   1.466315   0.000000
     4  O    3.574848   2.384854   1.209267   0.000000
     5  N    2.700940   2.378505   1.400643   2.285507   0.000000
     6  C    2.437384   2.831525   2.512007   3.592204   1.386744
     7  O    3.547979   4.043431   3.608465   4.576884   2.291722
     8  N    1.379340   2.362649   2.812548   4.020711   2.313344
     9  F    2.333690   1.334379   2.387306   2.784890   3.596037
    10  H    1.083437   2.124619   3.450113   4.497146   3.782691
    11  H    3.716609   3.302922   2.059637   2.491245   1.015712
    12  H    2.088084   3.278859   3.823632   5.031330   3.220587
                    6          7          8          9         10
     6  C    0.000000
     7  O    1.211954   0.000000
     8  N    1.383810   2.284530   0.000000
     9  F    4.165813   5.377745   3.593348   0.000000
    10  H    3.385924   4.392111   2.108780   2.622475   0.000000
    11  H    2.039672   2.493761   3.224585   4.423957   4.798053
    12  H    2.032810   2.480564   1.011369   4.416386   2.398097
                   11         12
    11  H    0.000000
    12  H    4.045139   0.000000
 Stoichiometry    C4H3FN2O2
 Framework group  C1[X(C4H3FN2O2)]
 Deg. of freedom    30
 Full point group                 C1      NOp   1
 Largest Abelian subgroup         C1      NOp   1
 Largest concise Abelian subgroup C1      NOp   1
                         Standard orientation:                         
 ---------------------------------------------------------------------
 Center     Atomic      Atomic             Coordinates (Angstroms)
 Number     Number       Type             X           Y           Z
 ---------------------------------------------------------------------
      1          6           0       -0.226621   -1.508177   -0.000116
      2          6           0       -1.140893   -0.527940    0.000442
      3          6           0       -0.752575    0.886022    0.000538
      4          8           0       -1.510800    1.828052   -0.000757
      5          7           0        0.638376    1.050505    0.000950
      6          6           0        1.625385    0.076407    0.002682
      7          8           0        2.811817    0.323774   -0.002071
      8          7           0        1.120552   -1.212030    0.000362
      9          9           0       -2.448427   -0.794251   -0.000528
     10          1           0       -0.505127   -2.555205   -0.001329
     11          1           0        0.973849    2.009216   -0.000457
     12          1           0        1.814710   -1.947563   -0.001295
 ---------------------------------------------------------------------
 Rotational constants (GHZ):      3.2048630      1.4066725      0.9775911
 Standard basis: 6-31+G(d) (6D, 7F)
 There are   177 symmetry adapted cartesian basis functions of A   symmetry.
 There are   177 symmetry adapted basis functions of A   symmetry.
   177 basis functions,   300 primitive gaussians,   177 cartesian basis functions
    33 alpha electrons       33 beta electrons
       nuclear repulsion energy       440.6814754300 Hartrees.
 NAtoms=   12 NActive=   12 NUniq=   12 SFac= 1.00D+00 NAtFMM=   60 NAOKFM=F Big=F
 Integral buffers will be    131072 words long.
 Raffenetti 2 integral format.
 Two-electron integral symmetry is turned on.
 One-electron integrals computed using PRISM.
 NBasis=   177 RedAO= T EigKep=  2.11D-05  NBF=   177
 NBsUse=   177 1.00D-06 EigRej= -1.00D+00 NBFU=   177
 Initial guess from the checkpoint file:  "/srv/scratch/z5358697/gauss/Gau-3540104.chk"
 B after Tr=     0.000000    0.000000    0.000000
         Rot=    1.000000    0.000000    0.000000    0.000046 Ang=   0.01 deg.
 Requested convergence on RMS density matrix=1.00D-08 within 128 cycles.
 Requested convergence on MAX density matrix=1.00D-06.
 Requested convergence on             energy=1.00D-06.
 No special actions if energy rises.
 SCF Done:  E(RM062X) =  -513.866797752     A.U. after   10 cycles
            NFock= 10  Conv=0.44D-08     -V/T= 2.0080
 Calling FoFJK, ICntrl=      2127 FMM=F ISym2X=0 I1Cent= 0 IOpClX= 0 NMat=1 NMatS=1 NMatT=0.
 ***** Axes restored to original set *****
 -------------------------------------------------------------------
 Center     Atomic                   Forces (Hartrees/Bohr)
 Number     Number              X              Y              Z
 -------------------------------------------------------------------
      1        6           0.000020780   -0.000063291   -0.000120811
      2        6          -0.000044683    0.000038804    0.000133782
      3        6           0.000609742    0.000192355   -0.000716543
      4        8          -0.000323785   -0.000126255    0.000336124
      5        7          -0.000366644    0.000116318    0.000046146
      6        6           0.000753573   -0.000141993    0.001008540
      7        8          -0.000335070    0.000042221   -0.000413056
      8        7          -0.000251040   -0.000157631   -0.000313206
      9        9          -0.000019883   -0.000015211   -0.000013944
     10        1           0.000015363    0.000046157   -0.000004668
     11        1          -0.000011875    0.000040882   -0.000002424
     12        1          -0.000046477    0.000027645    0.000060058
 -------------------------------------------------------------------
 Cartesian Forces:  Max     0.001008540 RMS     0.000308845

 GradGradGradGradGradGradGradGradGradGradGradGradGradGradGradGradGradGrad
 Berny optimization.
 Using GEDIIS/GDIIS optimizer.
 FormGI is forming the generalized inverse of G from B-inverse, IUseBI=4.
 Internal  Forces:  Max     0.000477518 RMS     0.000129433
 Search for a local minimum.
 Step number   5 out of a maximum of   64
 All quantities printed in internal units (Hartrees-Bohrs-Radians)
 Mixed Optimization -- En-DIIS/RFO-DIIS
 Swapping is turned off.
 Update second derivatives using D2CorX and points    1    2    3    4    5
 DE=  8.80D-07 DEPred=-5.89D-06 R=-1.49D-01
 Trust test=-1.49D-01 RLast= 1.99D-02 DXMaxT set to 2.05D-01
 ITU= -1  1  1  1  0
     Eigenvalues ---    0.01392   0.01609   0.01744   0.01810   0.01968
     Eigenvalues ---    0.02067   0.02358   0.02622   0.04067   0.09627
     Eigenvalues ---    0.15756   0.16140   0.18073   0.22479   0.23690
     Eigenvalues ---    0.24578   0.25160   0.25733   0.33125   0.35738
     Eigenvalues ---    0.38021   0.44360   0.44968   0.45118   0.48486
     Eigenvalues ---    0.50642   0.55709   0.57399   0.89964   0.92165
 En-DIIS/RFO-DIIS IScMMF=        0 using points:     5    4    3
 RFO step:  Lambda=-2.44660511D-06.
 DidBck=T Rises=F RFO-DIIS coefs:    0.45164    0.65040   -0.10204
 Iteration  1 RMS(Cart)=  0.00106456 RMS(Int)=  0.00000306
 Iteration  2 RMS(Cart)=  0.00000257 RMS(Int)=  0.00000167
 Iteration  3 RMS(Cart)=  0.00000000 RMS(Int)=  0.00000167
 Variable       Old X    -DE/DX   Delta X   Delta X   Delta X     New X
                                 (Linear)    (Quad)   (Total)
    R1        2.53305  -0.00001  -0.00010   0.00000  -0.00011   2.53294
    R2        2.60658  -0.00002   0.00083  -0.00057   0.00026   2.60684
    R3        2.04740   0.00005  -0.00011   0.00020   0.00008   2.04748
    R4        2.77093  -0.00011   0.00060  -0.00057   0.00003   2.77097
    R5        2.52161  -0.00001  -0.00050   0.00037  -0.00013   2.52148
    R6        2.28518   0.00048   0.00004   0.00054   0.00059   2.28577
    R7        2.64683  -0.00033  -0.00101  -0.00010  -0.00111   2.64573
    R8        2.62057  -0.00013   0.00060  -0.00052   0.00008   2.62065
    R9        1.91942  -0.00003   0.00002  -0.00010  -0.00007   1.91934
   R10        2.29026   0.00019  -0.00008   0.00035   0.00027   2.29053
   R11        2.61502  -0.00016  -0.00064   0.00006  -0.00058   2.61444
   R12        1.91121  -0.00006   0.00003  -0.00013  -0.00010   1.91111
    A1        2.10500  -0.00005  -0.00054   0.00028  -0.00026   2.10474
    A2        2.13102  -0.00001   0.00093  -0.00064   0.00029   2.13132
    A3        2.04716   0.00005  -0.00039   0.00036  -0.00003   2.04713
    A4        2.12298  -0.00010   0.00002  -0.00034  -0.00032   2.12266
    A5        2.12046   0.00012   0.00036   0.00025   0.00062   2.12108
    A6        2.03975  -0.00002  -0.00039   0.00009  -0.00030   2.03945
[...]
    R2        2.60684  -0.00003   0.00000  -0.00012  -0.00012   2.60672
    R3        2.04748   0.00001   0.00000   0.00004   0.00004   2.04752
    R4        2.77097  -0.00007   0.00000  -0.00027  -0.00027   2.77070
    R5        2.52148  -0.00002   0.00000  -0.00007  -0.00007   2.52141
    R6        2.28577   0.00009   0.00000   0.00015   0.00015   2.28593
    R7        2.64573  -0.00006   0.00000  -0.00015  -0.00015   2.64558
    R8        2.62065  -0.00010   0.00000  -0.00031  -0.00031   2.62034
    R9        1.91934   0.00000   0.00000  -0.00001  -0.00001   1.91933
   R10        2.29053   0.00001   0.00000   0.00004   0.00004   2.29056
   R11        2.61444  -0.00002   0.00000   0.00002   0.00002   2.61446
   R12        1.91111  -0.00002   0.00000  -0.00004  -0.00004   1.91107
    A1        2.10474  -0.00002   0.00000  -0.00002  -0.00002   2.10472
    A2        2.13132  -0.00002   0.00000  -0.00022  -0.00022   2.13110
    A3        2.04713   0.00003   0.00000   0.00024   0.00024   2.04737
    A4        2.12266  -0.00003   0.00000  -0.00016  -0.00016   2.12249
    A5        2.12108   0.00002   0.00000   0.00006   0.00006   2.12114
    A6        2.03945   0.00002   0.00000   0.00011   0.00011   2.03955
    A7        2.19485   0.00001   0.00000   0.00003   0.00003   2.19488
    A8        1.95725   0.00005   0.00000   0.00023   0.00023   1.95749
    A9        2.13108  -0.00005   0.00000  -0.00026  -0.00026   2.13082
   A10        2.24452  -0.00001   0.00000  -0.00009  -0.00009   2.24443
   A11        2.02573   0.00000   0.00000  -0.00007  -0.00007   2.02567
   A12        2.01293   0.00001   0.00000   0.00016   0.00016   2.01309
   A13        2.15691   0.00000   0.00000   0.00008   0.00008   2.15700
   A14        1.97648   0.00001   0.00000   0.00003   0.00003   1.97651
   A15        2.14979  -0.00001   0.00000  -0.00011  -0.00011   2.14968
   A16        2.16072   0.00000   0.00000   0.00001   0.00001   2.16073
   A17        2.11019   0.00000   0.00000  -0.00001  -0.00001   2.11018
   A18        2.01228   0.00000   0.00000   0.00000   0.00000   2.01228
    D1        0.00010   0.00000   0.00000  -0.00010  -0.00010   0.00000
    D2       -3.14156   0.00000   0.00000  -0.00003  -0.00003   3.14159
    D3       -3.14154   0.00000   0.00000  -0.00005  -0.00005   3.14159
    D4       -0.00002   0.00000   0.00000   0.00002   0.00002   0.00000
    D5       -0.00013   0.00000   0.00000   0.00013   0.00013   0.00000
    D6       -3.14134   0.00000   0.00000  -0.00026  -0.00026   3.14159
    D7        3.14151   0.00000   0.00000   0.00009   0.00009  -3.14159
    D8        0.00030   0.00000   0.00000  -0.00030  -0.00030  -0.00001
    D9       -3.14156   0.00000   0.00000  -0.00003  -0.00003  -3.14159
   D10       -0.00013   0.00000   0.00000   0.00013   0.00013   0.00000
   D11        0.00010   0.00000   0.00000  -0.00010  -0.00010   0.00000
   D12        3.14152   0.00000   0.00000   0.00007   0.00007   3.14159
   D13        0.00022   0.00000   0.00000  -0.00022  -0.00022   0.00000
   D14        3.14155   0.00000   0.00000   0.00004   0.00004  -3.14159
   D15       -3.14153   0.00000   0.00000  -0.00007  -0.00007   3.14159
   D16       -0.00020   0.00000   0.00000   0.00020   0.00020   0.00000
   D17        3.14130   0.00000   0.00000   0.00030   0.00030  -3.14159
   D18       -0.00025   0.00000   0.00000   0.00025   0.00025   0.00000
   D19       -0.00004   0.00000   0.00000   0.00004   0.00004   0.00000
   D20       -3.14158   0.00000   0.00000  -0.00001  -0.00001  -3.14159
   D21        0.00018   0.00000   0.00000  -0.00019  -0.00019   0.00000
   D22        3.14141   0.00000   0.00000   0.00018   0.00018  -3.14159
   D23       -3.14136   0.00000   0.00000  -0.00024  -0.00024   3.14159
   D24       -0.00013   0.00000   0.00000   0.00013   0.00013   0.00001
         Item               Value     Threshold  Converged?
 Maximum Force            0.000104     0.000450     YES
 RMS     Force            0.000027     0.000300     YES
 Maximum Displacement     0.000376     0.001800     YES
 RMS     Displacement     0.000123     0.001200     YES
 Predicted change in Energy=-6.954081D-08
 Optimization completed.
    -- Stationary point found.
                           ----------------------------
                           !   Optimized Parameters   !
                           ! (Angstroms and Degrees)  !
 --------------------------                            --------------------------
 ! Name  Definition              Value          Derivative Info.                !
 --------------------------------------------------------------------------------
 ! R1    R(1,2)                  1.3404         -DE/DX =    0.0                 !
 ! R2    R(1,8)                  1.3795         -DE/DX =    0.0                 !
 ! R3    R(1,10)                 1.0835         -DE/DX =    0.0                 !
 ! R4    R(2,3)                  1.4663         -DE/DX =   -0.0001              !
 ! R5    R(2,9)                  1.3343         -DE/DX =    0.0                 !
 ! R6    R(3,4)                  1.2096         -DE/DX =    0.0001              !
 ! R7    R(3,5)                  1.4001         -DE/DX =   -0.0001              !
 ! R8    R(5,6)                  1.3868         -DE/DX =   -0.0001              !
 ! R9    R(5,11)                 1.0157         -DE/DX =    0.0                 !
 ! R10   R(6,7)                  1.2121         -DE/DX =    0.0                 !
 ! R11   R(6,8)                  1.3835         -DE/DX =    0.0                 !
 ! R12   R(8,12)                 1.0113         -DE/DX =    0.0                 !
 ! A1    A(2,1,8)              120.5928         -DE/DX =    0.0                 !
 ! A2    A(2,1,10)             122.1154         -DE/DX =    0.0                 !
 ! A3    A(8,1,10)             117.2918         -DE/DX =    0.0                 !
 ! A4    A(1,2,3)              121.6193         -DE/DX =    0.0                 !
 ! A5    A(1,2,9)              121.529          -DE/DX =    0.0                 !
 ! A6    A(3,2,9)              116.8517         -DE/DX =    0.0                 !
 ! A7    A(2,3,4)              125.7557         -DE/DX =    0.0                 !
 ! A8    A(2,3,5)              112.1424         -DE/DX =    0.0                 !
 ! A9    A(4,3,5)              122.1019         -DE/DX =   -0.0001              !
 ! A10   A(3,5,6)              128.6016         -DE/DX =    0.0                 !
 ! A11   A(3,5,11)             116.066          -DE/DX =    0.0                 !
 ! A12   A(6,5,11)             115.3324         -DE/DX =    0.0                 !
 ! A13   A(5,6,7)              123.5821         -DE/DX =    0.0                 !
 ! A14   A(5,6,8)              113.2439         -DE/DX =    0.0                 !
 ! A15   A(7,6,8)              123.174          -DE/DX =    0.0                 !
 ! A16   A(1,8,6)              123.8            -DE/DX =    0.0                 !
 ! A17   A(1,8,12)             120.9048         -DE/DX =    0.0                 !
 ! A18   A(6,8,12)             115.2952         -DE/DX =    0.0                 !
 ! D1    D(8,1,2,3)              0.0055         -DE/DX =    0.0                 !
 ! D2    D(8,1,2,9)            180.0017         -DE/DX =    0.0                 !
 ! D3    D(10,1,2,3)           180.0029         -DE/DX =    0.0                 !
 ! D4    D(10,1,2,9)            -0.0009         -DE/DX =    0.0                 !
 ! D5    D(2,1,8,6)             -0.0072         -DE/DX =    0.0                 !
 ! D6    D(2,1,8,12)           180.0146         -DE/DX =    0.0                 !
 ! D7    D(10,1,8,6)          -180.0047         -DE/DX =    0.0                 !
 ! D8    D(10,1,8,12)            0.0171         -DE/DX =    0.0                 !
 ! D9    D(1,2,3,4)           -179.9982         -DE/DX =    0.0                 !
 ! D10   D(1,2,3,5)             -0.0075         -DE/DX =    0.0                 !
 ! D11   D(9,2,3,4)              0.0055         -DE/DX =    0.0                 !
 ! D12   D(9,2,3,5)            179.9961         -DE/DX =    0.0                 !
 ! D13   D(2,3,5,6)              0.0127         -DE/DX =    0.0                 !
 ! D14   D(2,3,5,11)          -180.0023         -DE/DX =    0.0                 !
 ! D15   D(4,3,5,6)            180.0038         -DE/DX =    0.0                 !
 ! D16   D(4,3,5,11)            -0.0112         -DE/DX =    0.0                 !
 ! D17   D(3,5,6,7)           -180.017          -DE/DX =    0.0                 !
 ! D18   D(3,5,6,8)             -0.0142         -DE/DX =    0.0                 !
 ! D19   D(11,5,6,7)            -0.0021         -DE/DX =    0.0                 !
 ! D20   D(11,5,6,8)          -179.9993         -DE/DX =    0.0                 !
 ! D21   D(5,6,8,1)              0.0105         -DE/DX =    0.0                 !
 ! D22   D(5,6,8,12)          -180.0102         -DE/DX =    0.0                 !
 ! D23   D(7,6,8,1)            180.0133         -DE/DX =    0.0                 !
 ! D24   D(7,6,8,12)            -0.0074         -DE/DX =    0.0                 !
 --------------------------------------------------------------------------------
 GradGradGradGradGradGradGradGradGradGradGradGradGradGradGradGradGradGrad

 1\1\GINC-KATANA2\Freq\RM062X\6-31+G(d)\C4H3F1N2O2\Z5358697\16-Mar-2025
 \0\\#N Geom=AllCheck Guess=TCheck SCRF=Check GenChk RM062X/6-31+G(d) F
 req\\5-fluoro-1H-pyrimidine-2,4-dione\\0,1\C,0.6625704024,1.3921034731
 ,-0.0397486881\C,-0.2047801999,0.9168338999,0.864920603\C,-0.751953728
 1,-0.4400167783,0.7665015726\O,-1.5361244931,-0.9435413617,1.537615597
 3\N,-0.2614825314,-1.1270637761,-0.3504431165\C,0.6329239733,-0.685439
 8574,-1.3138674792\O,0.9982862969,-1.3628339376,-2.2502554654\N,1.0695
 079286,0.609950224,-1.1006915285\F,-0.6109520924,1.6569988755,1.898150
 1084\H,1.0718732855,2.3931959286,0.02517306\H,-0.6027339779,-2.0753641
 163,-0.4763968272\H,1.723865136,0.9636774263,-1.7858578365\\Version=ES
 64L-G09RevD.01\State=1-A\HF=-513.8668022\RMSD=2.512e-09\RMSF=5.487e-05
 \ZeroPoint=0.0798478\Thermal=0.0868957\Dipole=0.9830825,1.1592357,-0.6
 323921\DipoleDeriv=0.2822541,0.1180888,-0.3425551,-0.2175087,0.1641673
 ,0.4176468,-0.5550871,-0.048923,0.7227073,-0.0907629,-0.3276817,-0.039
 1774,-0.6084227,0.02021,0.8393407,-0.2169655,0.4490736,0.6161664,1.128
 1265,0.3208664,-0.8588396,0.5271063,1.133906,-0.2453343,-0.7282451,0.0
 413794,1.402706,-0.903792,-0.2585136,0.5622777,-0.4018263,-0.6925884,0
 .3616379,0.4714608,0.1623755,-0.9341221,-0.7146158,0.0658681,0.5251852
 ,0.0662844,-0.4595608,-0.1509601,0.5255171,-0.1503607,-1.1923327,0.854
 6454,0.106375,-0.5457153,-0.0881445,1.5728066,0.8562748,-0.6688597,0.5
 858074,1.7137771,-0.5852096,0.1585149,0.3311425,0.2104869,-0.9006693,-
 0.5973363,0.3640136,-0.5250177,-1.2573337,-0.4607698,-0.2654356,0.0234
 278,0.2959296,-0.9377308,-0.8003764,0.3790006,-0.0199035,-0.8625095,-0
 .2360113,0.1145901,0.2461146,0.221175,-0.4569996,-0.5263949,0.3136257,
 -0.3782336,-0.7865313,0.1390032,-0.0404836,0.0263963,-0.020026,0.06174
 5,-0.044786,0.0393882,-0.0163454,0.1113406,0.2554584,0.0006618,0.07584
 29,0.0019077,0.2862593,-0.0175028,0.0766377,-0.0157406,0.19323,0.33167
 37,0.0071496,-0.0040995,0.013038,0.2084548,-0.0922093,-0.0004863,-0.08
 41114,0.2729019\Polar=56.5753406,8.6648355,64.1276433,-23.9600097,6.14
 93088,72.5846847\PG=C01 [X(C4H3F1N2O2)]\NImag=0\\0.45150468,0.22697578
 ,0.69635119,-0.31310412,0.04763083,0.58822497,-0.24536616,-0.13300731,
 0.18747735,0.41983560,-0.10910617,-0.19020847,0.06281600,0.16002972,0.
 58083956,0.20261260,0.09604065,-0.27072010,-0.34820833,0.08424567,0.63
 378722,-0.01525380,-0.01998745,0.00681221,-0.08752722,-0.05396246,-0.0
 0550871,0.54497765,-0.03088171,0.01217520,0.05142711,-0.03737433,-0.20
 579465,-0.03596138,0.25137638,0.63709242,-0.00008948,0.03627990,0.0218
 4500,0.00499483,-0.01290760,-0.08203043,-0.34257482,-0.06252556,0.6205
 9688,0.00728126,-0.00369151,-0.00744715,-0.01860163,-0.03349051,0.0324
 2818,-0.35947859,-0.19518035,0.27592111,0.39148231,0.00450608,-0.01131
 885,-0.01571327,-0.04608033,-0.02511520,0.03549318,-0.19170928,-0.2241
 1612,0.17017986,0.22452735,0.21624154,-0.00225508,-0.00431739,0.004007
 79,0.02445791,0.01799654,-0.00261732,0.27811651,0.17500224,-0.34780880
 ,-0.35502749,-0.19654835,0.40280202,-0.00827601,0.00666419,0.01970670,
 0.01672313,0.01086427,-0.01116816,-0.08649232,-0.02574079,0.04245840,-
 0.02203487,0.01463992,0.06380038,0.34566012,-0.00442632,-0.00083405,0.
 00380959,0.01333889,-0.01797164,-0.03229170,-0.00446138,-0.19292221,-0
 .08796287,0.00158600,0.03595782,0.00967950,0.21868657,0.74319865,0.012
 68533,-0.01160754,-0.02211434,-0.00960302,-0.02884979,-0.00118023,0.05
 592542,-0.05837547,-0.15895537,0.05553500,-0.00846596,-0.06536510,-0.2
 6485410,0.13140861,0.50682696,0.01676299,0.00163418,-0.03145187,-0.006
 39517,-0.01693546,0.00563377,-0.02020893,0.04705119,0.03179895,0.01120
 313,-0.00747076,-0.00965604,-0.14069970,-0.07597449,0.07654713,0.41771
 395,0.02004769,-0.03835278,-0.04795833,-0.01434225,-0.02678950,-0.0004
 2706,0.01553681,0.06457903,0.03117766,0.00204058,-0.01099705,-0.014650
 48,-0.05112225,-0.16920811,-0.00378504,0.03598395,0.70865674,-0.019791
 44,-0.02237416,0.00673655,0.00727436,0.00317578,-0.00272465,0.01184522
 ,-0.01262563,-0.04322578,-0.00363134,-0.00143000,0.01180411,0.09227435
 ,0.03075803,-0.15977905,-0.27846183,0.27134040,0.75962686,-0.00074345,
 -0.00107022,0.00799002,0.00177543,0.00392444,-0.00202446,0.00601668,-0
 .01471968,-0.00729130,-0.00406867,0.00174635,0.00481291,-0.01315358,0.
 02111252,0.05901615,-0.14822075,0.09858832,0.15516773,0.13423323,-0.00
 786510,0.00078561,0.00795478,0.00103614,0.00464636,0.00243089,-0.00478
 490,-0.00803139,-0.00316912,0.00146799,0.00251970,0.00044230,0.0059831
 6,0.02888381,-0.00249468,0.09929576,-0.29440484,-0.27274831,-0.1127189
 2,0.33190998,0.00368651,-0.00149036,-0.00057717,-0.00385292,-0.0015823
 6,0.00288222,-0.00099566,0.01063657,0.01560479,0.00463396,0.00005579,-
 0.00780995,0.04943858,-0.02352199,-0.06389373,0.15561212,-0.27176458,-
 0.46968852,-0.20331788,0.34184369,0.53812579,-0.09699111,0.01484295,0.
 10199817,-0.01055052,0.01405511,0.02665747,0.00425795,-0.00082063,-0.0
 0650361,-0.00378693,-0.00045922,0.00442822,-0.01419637,-0.03423559,0.0
 0665734,-0.11478133,-0.07430062,0.03544296,0.02639262,0.00769721,-0.00
 400750,0.39493082,-0.00546930,-0.18305473,-0.08910253,0.01802280,0.045
 03865,0.00205820,-0.00394251,-0.04572120,-0.02343778,0.00147752,0.0104
 4029,0.00480451,-0.03898545,-0.02280346,0.03583532,-0.05971191,-0.2323
 7182,-0.02899424,-0.00434705,-0.06407623,-0.04717248,0.19052556,0.6273
 4589,0.08912730,-0.11731610,-0.22854617,0.02917259,0.00757980,-0.03352
 701,-0.00848226,-0.02778051,-0.00584780,0.00565680,0.00749770,-0.00350
 656,0.00364505,0.02922297,0.01961625,0.04467522,-0.00874810,-0.1230501
 1,-0.01163600,-0.06390730,-0.00427206,-0.36123535,0.10193447,0.6146510
 3,-0.00657686,0.02216123,0.02498419,-0.07632515,0.04357479,0.09655650,
 0.00096289,-0.00563229,-0.00296682,0.00304105,0.00213968,-0.00523621,0
 .00215198,-0.00348952,-0.00059865,-0.00320198,-0.00557926,-0.00049269,
 -0.00014975,0.00252675,0.00136041,0.00263062,-0.00116493,0.00833004,0.
 07844612,-0.00073854,0.01479652,0.00957153,0.04218575,-0.16035317,-0.1
 4325028,0.01922217,-0.02324327,-0.04232023,0.00035964,0.00502828,0.003
 76020,-0.00610641,-0.00785803,0.00141776,0.00127041,0.00688182,0.00323
 278,0.00108604,-0.00297122,-0.00318605,-0.00283272,-0.00843711,-0.0072
 0267,-0.05710102,0.17678035,0.01048432,-0.02225841,-0.02736325,0.09567
 801,-0.14518539,-0.25162809,0.01277036,-0.00777045,-0.02127502,-0.0063
 6371,0.00128672,0.00795830,-0.00225621,-0.00222140,0.00504097,0.003843
 52,0.01275493,0.00171477,0.00044866,-0.00518983,-0.00422906,0.00727527
 ,-0.00951770,-0.00698447,-0.11886452,0.17930355,0.29769320,-0.09484798
 ,-0.11627701,0.00298371,0.00282444,-0.02031268,-0.00089738,0.00396838,
 -0.00154513,0.00753794,-0.00200602,-0.00077796,-0.00115198,-0.00001928
 ,0.00041304,-0.00057208,0.00050411,-0.00063033,0.00269782,0.00013473,0
 .00091175,0.00041184,0.00710315,0.01344636,0.00078388,-0.00269561,0.00
 265953,-0.00376852,0.08529796,-0.11260303,-0.31290600,-0.01644290,-0.0
 0460568,-0.00328243,-0.00291353,-0.00314417,0.00131576,-0.00118956,0.0
 0052848,-0.00045243,0.00054970,-0.00008165,0.00041762,0.00076987,0.001
 93724,0.00315437,-0.00242517,-0.00035385,-0.00112315,-0.00022920,-0.00
 577196,-0.01397551,-0.00180171,0.00211612,-0.00044830,0.00096529,0.121
 65698,0.32710746,0.00531031,-0.01133356,-0.05429244,0.00904736,0.01892
 085,0.01083309,0.00652565,-0.00341371,-0.00113535,-0.00032447,0.002366
 22,-0.00053155,-0.00088602,0.00008239,0.00066449,0.00432410,0.00114628
 ,-0.00255348,-0.00038928,-0.00198936,-0.00070178,-0.01138583,-0.028519
 38,-0.00069011,-0.00411264,0.00020871,-0.00076955,-0.00713228,0.022337
 33,0.04880910,-0.00059751,0.00089755,0.00013216,0.00120718,-0.00062584
 ,0.00372847,0.00992255,0.01474453,-0.00299026,-0.00355246,-0.00170054,
 -0.00182221,-0.08182338,-0.13019799,0.00882271,-0.00608446,-0.02286539
 ,-0.00788366,-0.00034812,0.00349901,-0.00217873,-0.00062779,-0.0015081
 6,0.00526364,0.00026853,0.00117583,0.00048166,-0.00012997,0.00002935,-
 0.00013716,0.08129266,0.00075023,0.00027243,-0.00029299,0.00042210,0.0
 0081434,-0.00271479,-0.00404372,-0.01287705,-0.00319883,-0.00000350,0.
 00103408,0.00324768,-0.13239619,-0.39061022,-0.05299465,-0.00356330,-0
 .00620110,0.00187919,0.00264600,-0.00062630,-0.00185298,-0.00112777,0.
 00235126,0.00061958,-0.00026665,-0.00020469,0.00019065,0.00006507,-0.0
 0006971,0.00001866,0.13777495,0.40601245,0.00003867,-0.00049717,-0.001
 27982,0.00439311,-0.00125643,-0.00272881,-0.01488526,-0.02932667,0.003
 18338,-0.00074810,0.00560735,0.00050154,0.00743545,-0.05603208,-0.0619
 9004,0.00433053,0.02870134,0.01080278,-0.00271741,-0.00303862,-0.00165
 553,0.00550512,0.00114801,-0.00307565,-0.00043183,-0.00181492,-0.00046
 950,-0.00011457,0.00006828,-0.00003947,-0.00350226,0.05536524,0.055947
 49,-0.00689606,0.00085761,-0.00008137,0.00240008,0.00198479,0.00019005
 ,-0.00114523,-0.00127718,-0.00029494,0.00052141,0.00063872,-0.00046691
 ,0.00216030,-0.00235173,0.00043876,-0.00659186,-0.00335725,0.00555852,
 -0.00186838,0.00295117,-0.00079072,-0.19438111,-0.10834291,0.19469910,
 0.00144817,-0.00118069,0.00027116,-0.00013391,0.00029218,-0.00083975,0
 .00047276,-0.00025723,0.00069656,0.20401383,0.01881040,0.01229392,-0.0
 1369983,0.00037451,-0.00182385,-0.00270985,-0.00009949,-0.00245652,-0.
 00092587,0.00037829,0.00077795,0.00003355,-0.00240535,-0.00625018,-0.0
 0285844,-0.02351681,-0.00494676,0.03021133,0.00410605,0.00248767,-0.00
 173606,-0.10757233,-0.11473603,0.07990188,0.00071511,0.00002882,-0.002
 35796,0.00039040,0.00026234,0.00017557,-0.00122330,0.00010451,0.001075
 67,0.11004252,0.11425812,0.01129508,0.01124331,-0.01592103,-0.00083126
 ,-0.00495304,-0.00034589,0.00045134,0.00071347,-0.00095150,-0.00063277
 ,-0.00032925,0.00056552,0.00040559,-0.00293108,0.00112917,-0.00719559,
 0.00221297,0.01033651,-0.00005915,-0.00013444,-0.00378499,0.19516772,0
 .08096359,-0.22476734,0.00147222,0.00027962,0.00031170,-0.00077837,0.0
 0031161,0.00040705,0.00008564,-0.00026677,0.00080365,-0.19938045,-0.08
 710999,0.23221714\\-0.00005642,0.00002797,0.00010065,0.00005056,0.0000
 2802,-0.00006639,-0.00012798,-0.00014468,0.00012806,0.00004962,0.00003
 106,-0.00006428,-0.00001627,-0.00001765,0.00000334,0.00007480,0.000027
 16,-0.00010986,0.00001974,0.00002508,0.00000063,0.00000730,0.00002573,
 0.00000261,-0.00002740,-0.00001520,0.00002816,-0.00000876,-0.00001194,
 0.00000574,0.00001956,-0.00000636,-0.00003039,0.00001525,0.00003080,0.
 00000176\\\@


 THERE IS MORE TO LIFE THAN INCREASING ITS SPEED.

                                       -- GANDHI
 Job cpu time:       0 days  0 hours  4 minutes 30.4 seconds.
 File lengths (MBytes):  RWF=    134 Int=      0 D2E=      0 Chk=      4 Scr=      2
 Normal termination of Gaussian 09 at Sun Mar 16 20:21:04 2025.
