 Entering Gaussian System, Link 0=g09
 Initial command:
 /apps/z_install_tree/linux-rocky8-ivybridge/gcc-12.2.0/gaussian-09-D.01-wczn3gur5lpur3omlkzwa2l5ecyxp5ef/g09/l1.exe "/srv/scratch/z5358697/gauss/Gau-3230040.inp" -scrdir="/srv/scratch/z5358697/gauss/"
 Entering Link 1 = /apps/z_install_tree/linux-rocky8-ivybridge/gcc-12.2.0/gaussian-09-D.01-wczn3gur5lpur3omlkzwa2l5ecyxp5ef/g09/l1.exe PID=   3230042.
  
 Copyright (c) 1988,1990,1992,1993,1995,1998,2003,2009,2013,
            Gaussian, Inc.  All Rights Reserved.
  
 This is part of the Gaussian(R) 09 program.  It is based on
 the Gaussian(R) 03 system (copyright 2003, Gaussian, Inc.),
 the Gaussian(R) 98 system (copyright 1998, Gaussian, Inc.),
 the Gaussian(R) 94 system (copyright 1995, Gaussian, Inc.),
 the Gaussian 92(TM) system (copyright 1992, Gaussian, Inc.),
 the Gaussian 90(TM) system (copyright 1990, Gaussian, Inc.),
 the Gaussian 88(TM) system (copyright 1988, Gaussian, Inc.),
 the Gaussian 86(TM) system (copyright 1986, Carnegie Mellon
 University), and the Gaussian 82(TM) system (copyright 1983,
 Carnegie Mellon University). Gaussian is a federally registered
 trademark of Gaussian, Inc.
  
 This software contains proprietary and confidential information,
 including trade secrets, belonging to Gaussian, Inc.
  
 This software is provided under written license and may be
 used, copied, transmitted, or stored only in accord with that
 written license.
  
 The following legend is applicable only to US Government
 contracts under FAR:
  
                    RESTRICTED RIGHTS LEGEND
  
 Use, reproduction and disclosure by the US Government is
 subject to restrictions as set forth in subparagraphs (a)
 and (c) of the Commercial Computer Software - Restricted
 Rights clause in FAR 52.227-19.
  
 Gaussian, Inc.
 340 Quinnipiac St., Bldg. 40, Wallingford CT 06492
  
  
 ---------------------------------------------------------------
 Warning -- This program may not be used in any manner that
 competes with the business of Gaussian, Inc. or will provide
 assistance to any competitor of Gaussian, Inc.  The licensee
 of this program is prohibited from giving any competitor of
 Gaussian, Inc. access to this program.  By using this program,
 the user acknowledges that Gaussian, Inc. is engaged in the
 business of creating and licensing software in the field of
 computational chemistry and represents and warrants to the
 licensee that it is not a competitor of Gaussian, Inc. and that
 it will not use this program in any manner prohibited above.
 ---------------------------------------------------------------
  

 Cite this work as:
 Gaussian 09, Revision D.01,
 M. J. Frisch, G. W. Trucks, H. B. Schlegel, G. E. Scuseria, 
 M. A. Robb, J. R. Cheeseman, G. Scalmani, V. Barone, B. Mennucci, 
 G. A. Petersson, H. Nakatsuji, M. Caricato, X. Li, H. P. Hratchian, 
 A. F. Izmaylov, J. Bloino, G. Zheng, J. L. Sonnenberg, M. Hada, 
 M. Ehara, K. Toyota, R. Fukuda, J. Hasegawa, M. Ishida, T. Nakajima, 
 Y. Honda, O. Kitao, H. Nakai, T. Vreven, J. A. Montgomery, Jr., 
 J. E. Peralta, F. Ogliaro, M. Bearpark, J. J. Heyd, E. Brothers, 
 K. N. Kudin, V. N. Staroverov, T. Keith, R. Kobayashi, J. Normand, 
 K. Raghavachari, A. Rendell, J. C. Burant, S. S. Iyengar, J. Tomasi, 
 M. Cossi, N. Rega, J. M. Millam, M. Klene, J. E. Knox, J. B. Cross, 
 V. Bakken, C. Adamo, J. Jaramillo, R. Gomperts, R. E. Stratmann, 
 O. Yazyev, A. J. Austin, R. Cammi, C. Pomelli, J. W. Ochterski, 
 R. L. Martin, K. Morokuma, V. G. Zakrzewski, G. A. Voth, 
 P. Salvador, J. J. Dannenberg, S. Dapprich, A. D. Daniels, 
 O. Farkas, J. B. Foresman, J. V. Ortiz, J. Cioslowski, 
 and D. J. Fox, Gaussian, Inc., Wallingford CT, 2013.
 
 ******************************************
 Gaussian 09:  ES64L-G09RevD.01 24-Apr-2013
                18-Mar-2025 
 ******************************************
 ---------------------------------
 #m062X/6-31+G(d) OPT Freq=noraman
 ---------------------------------
 1/14=-1,18=20,19=15,26=3,38=1/1,3;
 2/9=110,12=2,17=6,18=5,40=1/2;
 3/5=1,6=6,7=11,11=2,16=1,25=1,30=1,71=1,74=-55/1,2,3;
 4//1;
 5/5=2,38=5/2;
 6/7=2,8=2,9=2,10=2,28=1/1;
 7//1,2,3,16;
 1/14=-1,18=20,19=15,26=3/3(2);
 2/9=110/2;
 99//99;
 2/9=110/2;
 3/5=1,6=6,7=11,11=2,16=1,25=1,30=1,71=1,74=-55/1,2,3;
 4/5=5,16=3,69=1/1;
 5/5=2,38=5/2;
 7//1,2,3,16;
 1/14=-1,18=20,19=15,26=3/3(-5);
 2/9=110/2;
 6/7=2,8=2,9=2,10=2,19=2,28=1/1;
 99/9=1/99;
 ---------------
 tetrahydropyran
 ---------------
 Symbolic Z-matrix:
 Charge =  0 Multiplicity = 1
 C                    -0.4603   -0.9422   -1.0405 
 C                    -0.4944   -1.2936    0.443 
 C                     0.5547   -0.4986    1.2095 
 O                     0.3821    0.9027    0.9978 
 C                     0.5337    1.2625   -0.3753 
 C                    -0.5158    0.5693   -1.2346 
 H                    -1.2972   -1.4205   -1.561 
 H                     0.4632   -1.3324   -1.4856 
 H                    -1.4881   -1.0489    0.8382 
 H                    -0.337    -2.3679    0.5838 
 H                     0.4551   -0.6887    2.2829 
 H                     1.5696   -0.7895    0.9141 
 H                     0.4185    2.3484   -0.4506 
 H                     1.5484    1.013    -0.7074 
 H                    -1.5109    0.9238   -0.9391 
 H                    -0.3732    0.8234   -2.2901 
 

 GradGradGradGradGradGradGradGradGradGradGradGradGradGradGradGradGradGrad
 Berny optimization.
 Initialization pass.
                           ----------------------------
                           !    Initial Parameters    !
                           ! (Angstroms and Degrees)  !
 --------------------------                            --------------------------
 ! Name  Definition              Value          Derivative Info.                !
 --------------------------------------------------------------------------------
 ! R1    R(1,2)                  1.5249         estimate D2E/DX2                !
 ! R2    R(1,6)                  1.5249         estimate D2E/DX2                !
 ! R3    R(1,7)                  1.0955         estimate D2E/DX2                !
 ! R4    R(1,8)                  1.0969         estimate D2E/DX2                !
 ! R5    R(2,3)                  1.5232         estimate D2E/DX2                !
 ! R6    R(2,9)                  1.097          estimate D2E/DX2                !
 ! R7    R(2,10)                 1.0949         estimate D2E/DX2                !
 ! R8    R(3,4)                  1.4277         estimate D2E/DX2                !
 ! R9    R(3,11)                 1.0946         estimate D2E/DX2                !
 ! R10   R(3,12)                 1.0963         estimate D2E/DX2                !
 ! R11   R(4,5)                  1.4275         estimate D2E/DX2                !
 ! R12   R(5,6)                  1.5233         estimate D2E/DX2                !
 ! R13   R(5,13)                 1.0946         estimate D2E/DX2                !
 ! R14   R(5,14)                 1.0964         estimate D2E/DX2                !
 ! R15   R(6,15)                 1.0969         estimate D2E/DX2                !
 ! R16   R(6,16)                 1.095          estimate D2E/DX2                !
 ! A1    A(2,1,6)              110.5743         estimate D2E/DX2                !
 ! A2    A(2,1,7)              110.153          estimate D2E/DX2                !
 ! A3    A(2,1,8)              109.3662         estimate D2E/DX2                !
 ! A4    A(6,1,7)              110.1504         estimate D2E/DX2                !
 ! A5    A(6,1,8)              109.3651         estimate D2E/DX2                !
 ! A6    A(7,1,8)              107.1616         estimate D2E/DX2                !
 ! A7    A(1,2,3)              110.7242         estimate D2E/DX2                !
 ! A8    A(1,2,9)              108.6212         estimate D2E/DX2                !
 ! A9    A(1,2,10)             110.3651         estimate D2E/DX2                !
 ! A10   A(3,2,9)              109.0363         estimate D2E/DX2                !
 ! A11   A(3,2,10)             110.3891         estimate D2E/DX2                !
 ! A12   A(9,2,10)             107.6233         estimate D2E/DX2                !
 ! A13   A(2,3,4)              110.7566         estimate D2E/DX2                !
 ! A14   A(2,3,11)             109.8855         estimate D2E/DX2                !
 ! A15   A(2,3,12)             111.3163         estimate D2E/DX2                !
 ! A16   A(4,3,11)             107.7498         estimate D2E/DX2                !
 ! A17   A(4,3,12)             109.4148         estimate D2E/DX2                !
 ! A18   A(11,3,12)            107.6            estimate D2E/DX2                !
 ! A19   A(3,4,5)              112.159          estimate D2E/DX2                !
 ! A20   A(4,5,6)              110.7774         estimate D2E/DX2                !
 ! A21   A(4,5,13)             107.7604         estimate D2E/DX2                !
 ! A22   A(4,5,14)             109.4066         estimate D2E/DX2                !
 ! A23   A(6,5,13)             109.8855         estimate D2E/DX2                !
 ! A24   A(6,5,14)             111.2967         estimate D2E/DX2                !
 ! A25   A(13,5,14)            107.5967         estimate D2E/DX2                !
 ! A26   A(1,6,5)              110.7437         estimate D2E/DX2                !
 ! A27   A(1,6,15)             108.6063         estimate D2E/DX2                !
 ! A28   A(1,6,16)             110.3634         estimate D2E/DX2                !
 ! A29   A(5,6,15)             109.0255         estimate D2E/DX2                !
 ! A30   A(5,6,16)             110.3922         estimate D2E/DX2                !
 ! A31   A(15,6,16)            107.6274         estimate D2E/DX2                !
 ! D1    D(6,1,2,3)            -50.8725         estimate D2E/DX2                !
 ! D2    D(6,1,2,9)             68.829          estimate D2E/DX2                !
 ! D3    D(6,1,2,10)          -173.405          estimate D2E/DX2                !
 ! D4    D(7,1,2,3)           -172.8582         estimate D2E/DX2                !
 ! D5    D(7,1,2,9)            -53.1567         estimate D2E/DX2                !
 ! D6    D(7,1,2,10)            64.6092         estimate D2E/DX2                !
 ! D7    D(8,1,2,3)             69.6153         estimate D2E/DX2                !
 ! D8    D(8,1,2,9)           -170.6831         estimate D2E/DX2                !
 ! D9    D(8,1,2,10)           -52.9172         estimate D2E/DX2                !
 ! D10   D(2,1,6,5)             50.8317         estimate D2E/DX2                !
 ! D11   D(2,1,6,15)           -68.8589         estimate D2E/DX2                !
 ! D12   D(2,1,6,16)           173.3801         estimate D2E/DX2                !
 ! D13   D(7,1,6,5)            172.8189         estimate D2E/DX2                !
 ! D14   D(7,1,6,15)            53.1283         estimate D2E/DX2                !
 ! D15   D(7,1,6,16)           -64.6327         estimate D2E/DX2                !
 ! D16   D(8,1,6,5)            -69.6568         estimate D2E/DX2                !
 ! D17   D(8,1,6,15)           170.6526         estimate D2E/DX2                !
 ! D18   D(8,1,6,16)            52.8916         estimate D2E/DX2                !
 ! D19   D(1,2,3,4)             55.6771         estimate D2E/DX2                !
 ! D20   D(1,2,3,11)           174.6097         estimate D2E/DX2                !
 ! D21   D(1,2,3,12)           -66.2928         estimate D2E/DX2                !
 ! D22   D(9,2,3,4)            -63.775          estimate D2E/DX2                !
 ! D23   D(9,2,3,11)            55.1576         estimate D2E/DX2                !
 ! D24   D(9,2,3,12)           174.2551         estimate D2E/DX2                !
 ! D25   D(10,2,3,4)           178.1956         estimate D2E/DX2                !
 ! D26   D(10,2,3,11)          -62.8718         estimate D2E/DX2                !
 ! D27   D(10,2,3,12)           56.2258         estimate D2E/DX2                !
 ! D28   D(2,3,4,5)            -61.5169         estimate D2E/DX2                !
 ! D29   D(11,3,4,5)           178.2679         estimate D2E/DX2                !
 ! D30   D(12,3,4,5)            61.56           estimate D2E/DX2                !
 ! D31   D(3,4,5,6)             61.474          estimate D2E/DX2                !
 ! D32   D(3,4,5,13)          -178.2919         estimate D2E/DX2                !
 ! D33   D(3,4,5,14)           -61.5865         estimate D2E/DX2                !
 ! D34   D(4,5,6,1)            -55.5957         estimate D2E/DX2                !
 ! D35   D(4,5,6,15)            63.8431         estimate D2E/DX2                !
 ! D36   D(4,5,6,16)          -178.1274         estimate D2E/DX2                !
 ! D37   D(13,5,6,1)          -174.5544         estimate D2E/DX2                !
 ! D38   D(13,5,6,15)          -55.1156         estimate D2E/DX2                !
 ! D39   D(13,5,6,16)           62.914          estimate D2E/DX2                !
 ! D40   D(14,5,6,1)            66.3646         estimate D2E/DX2                !
 ! D41   D(14,5,6,15)         -174.1966         estimate D2E/DX2                !
 ! D42   D(14,5,6,16)          -56.167          estimate D2E/DX2                !
 --------------------------------------------------------------------------------
 Trust Radius=3.00D-01 FncErr=1.00D-07 GrdErr=1.00D-06
 Number of steps in this run=     99 maximum allowed number of steps=    100.
 GradGradGradGradGradGradGradGradGradGradGradGradGradGradGradGradGradGrad

                          Input orientation:                          
 ---------------------------------------------------------------------
 Center     Atomic      Atomic             Coordinates (Angstroms)
 Number     Number       Type             X           Y           Z
 ---------------------------------------------------------------------
      1          6           0       -0.460300   -0.942200   -1.040500
      2          6           0       -0.494400   -1.293600    0.443000
      3          6           0        0.554700   -0.498600    1.209500
      4          8           0        0.382100    0.902700    0.997800
      5          6           0        0.533700    1.262500   -0.375300
      6          6           0       -0.515800    0.569300   -1.234600
      7          1           0       -1.297200   -1.420500   -1.561000
      8          1           0        0.463200   -1.332400   -1.485600
      9          1           0       -1.488100   -1.048900    0.838200
     10          1           0       -0.337000   -2.367900    0.583800
     11          1           0        0.455100   -0.688700    2.282900
     12          1           0        1.569600   -0.789500    0.914100
     13          1           0        0.418500    2.348400   -0.450600
     14          1           0        1.548400    1.013000   -0.707400
     15          1           0       -1.510900    0.923800   -0.939100
     16          1           0       -0.373200    0.823400   -2.290100
 ---------------------------------------------------------------------
                    Distance matrix (angstroms):
                    1          2          3          4          5
     1  C    0.000000
     2  C    1.524932   0.000000
     3  C    2.507889   1.523207   0.000000
     4  O    2.875406   2.428948   1.427673   0.000000
     5  C    2.508232   2.874065   2.369284   1.427530   0.000000
     6  C    1.524922   2.507029   2.874023   2.429195   1.523277
     7  H    1.095487   2.162547   3.457615   3.842495   3.457827
     8  H    1.096915   2.153602   2.822616   3.342084   2.823339
     9  H    2.144125   1.097042   2.147958   2.707741   3.301943
    10  H    2.164757   1.094861   2.163542   3.374215   3.854581
    11  H    3.456473   2.157009   1.094644   2.046794   3.298392
    12  H    2.822104   2.176269   1.096315   2.068986   2.635592
    13  H    3.456634   3.859543   3.298468   2.046762   1.094587
    14  H    2.822878   3.288899   2.635693   2.068847   1.096429
    15  H    2.143828   2.803629   3.302485   2.708408   2.147784
    16  H    2.164816   3.459222   3.854333   3.374471   2.163732
                    6          7          8          9         10
     6  C    0.000000
     7  H    2.162505   0.000000
     8  H    2.153580   1.764215   0.000000
     9  H    2.803647   2.435301   3.047620   0.000000
    10  H    3.459146   2.533716   2.448468   1.769043   0.000000
    11  H    3.859795   4.287383   3.823089   2.448046   2.516759
    12  H    3.288182   3.839638   2.697670   3.069622   2.497112
    13  H    2.157028   4.287333   3.823809   4.103386   4.887151
    14  H    2.176174   3.840312   2.698917   3.982542   4.080737
    15  H    1.096911   2.434783   3.047322   2.655346   3.812159
    16  H    1.094980   2.533861   2.448318   3.812449   4.294765
                   11         12         13         14         15
    11  H    0.000000
    12  H    1.768017   0.000000
    13  H    4.086238   3.610243   0.000000
    14  H    3.610122   2.424607   1.768025   0.000000
    15  H    4.104461   3.982365   2.447591   3.069358   0.000000
    16  H    4.887214   4.079561   2.517176   2.496685   1.769080
                   16
    16  H    0.000000
 Stoichiometry    C5H10O
 Framework group  C1[X(C5H10O)]
 Deg. of freedom    42
 Full point group                 C1      NOp   1
 Largest Abelian subgroup         C1      NOp   1
 Largest concise Abelian subgroup C1      NOp   1
                         Standard orientation:                         
 ---------------------------------------------------------------------
 Center     Atomic      Atomic             Coordinates (Angstroms)
 Number     Number       Type             X           Y           Z
 ---------------------------------------------------------------------
      1          6           0        0.001021    1.438799    0.228921
      2          6           0        1.253930    0.690464   -0.213380
      3          6           0        1.184120   -0.772362    0.205458
      4          8           0       -0.000812   -1.387480   -0.300324
      5          6           0       -1.185164   -0.771091    0.204866
      6          6           0       -1.253098    0.692212   -0.212869
      7          1           0        0.001615    2.453268   -0.184534
      8          1           0        0.001298    1.534633    1.321642
      9          1           0        1.327887    0.746544   -1.306488
     10          1           0        2.148188    1.164512    0.204114
     11          1           0        2.042340   -1.317254   -0.200494
     12          1           0        1.211423   -0.876256    1.296498
     13          1           0       -2.043897   -1.314597   -0.201703
     14          1           0       -1.213184   -0.875456    1.295957
     15          1           0       -1.327458    0.748998   -1.305783
     16          1           0       -2.146576    1.167316    0.205408
 ---------------------------------------------------------------------
 Rotational constants (GHZ):      4.6565594      4.5305099      2.6016660
 Standard basis: 6-31+G(d) (6D, 7F)
 There are   134 symmetry adapted cartesian basis functions of A   symmetry.
 There are   134 symmetry adapted basis functions of A   symmetry.
   134 basis functions,   232 primitive gaussians,   134 cartesian basis functions
    24 alpha electrons       24 beta electrons
       nuclear repulsion energy       260.0964732768 Hartrees.
 NAtoms=   16 NActive=   16 NUniq=   16 SFac= 1.00D+00 NAtFMM=   60 NAOKFM=F Big=F
 Integral buffers will be    131072 words long.
 Raffenetti 2 integral format.
 Two-electron integral symmetry is turned on.
 One-electron integrals computed using PRISM.
 NBasis=   134 RedAO= T EigKep=  5.60D-05  NBF=   134
 NBsUse=   134 1.00D-06 EigRej= -1.00D+00 NBFU=   134
 ExpMin= 4.38D-02 ExpMax= 5.48D+03 ExpMxC= 8.25D+02 IAcc=2 IRadAn=         4 AccDes= 0.00D+00
 Harris functional with IExCor= 1009 and IRadAn=       4 diagonalized for initial guess.
 HarFok:  IExCor= 1009 AccDes= 0.00D+00 IRadAn=         4 IDoV= 1 UseB2=F ITyADJ=14
 ICtDFT=  3500011 ScaDFX=  1.000000  1.000000  1.000000  1.000000
 FoFCou: FMM=F IPFlag=           0 FMFlag=      100000 FMFlg1=           0
         NFxFlg=           0 DoJE=T BraDBF=F KetDBF=T FulRan=T
         wScrn=  0.000000 ICntrl=     500 IOpCl=  0 I1Cent=   200000004 NGrid=           0
         NMat0=    1 NMatS0=      1 NMatT0=    0 NMatD0=    1 NMtDS0=    0 NMtDT0=    0
 Petite list used in FoFCou.
 Requested convergence on RMS density matrix=1.00D-08 within 128 cycles.
 Requested convergence on MAX density matrix=1.00D-06.
 Requested convergence on             energy=1.00D-06.
 No special actions if energy rises.
 SCF Done:  E(RM062X) =  -271.645293813     A.U. after   12 cycles
            NFock= 12  Conv=0.26D-08     -V/T= 2.0088

 **********************************************************************

            Population analysis using the SCF density.

 **********************************************************************

 Orbital symmetries:
       Occupied  (A) (A) (A) (A) (A) (A) (A) (A) (A) (A) (A) (A)
                 (A) (A) (A) (A) (A) (A) (A) (A) (A) (A) (A) (A)
       Virtual   (A) (A) (A) (A) (A) (A) (A) (A) (A) (A) (A) (A)
                 (A) (A) (A) (A) (A) (A) (A) (A) (A) (A) (A) (A)
                 (A) (A) (A) (A) (A) (A) (A) (A) (A) (A) (A) (A)
                 (A) (A) (A) (A) (A) (A) (A) (A) (A) (A) (A) (A)
                 (A) (A) (A) (A) (A) (A) (A) (A) (A) (A) (A) (A)
                 (A) (A) (A) (A) (A) (A) (A) (A) (A) (A) (A) (A)
                 (A) (A) (A) (A) (A) (A) (A) (A) (A) (A) (A) (A)
                 (A) (A) (A) (A) (A) (A) (A) (A) (A) (A) (A) (A)
                 (A) (A) (A) (A) (A) (A) (A) (A) (A) (A) (A) (A)
                 (A) (A)
 The electronic state is 1-A.
 Alpha  occ. eigenvalues --  -19.64188 -10.58999 -10.58997 -10.54485 -10.54271
 Alpha  occ. eigenvalues --  -10.54267  -1.15064  -0.90181  -0.86135  -0.73423
 Alpha  occ. eigenvalues --   -0.72175  -0.64539  -0.57112  -0.54295  -0.52505
 Alpha  occ. eigenvalues --   -0.51632  -0.48688  -0.45242  -0.44665  -0.41855
 Alpha  occ. eigenvalues --   -0.39725  -0.38165  -0.36266  -0.31836
 Alpha virt. eigenvalues --    0.02537   0.03507   0.03590   0.04101   0.05408
 Alpha virt. eigenvalues --    0.06191   0.07685   0.07843   0.08368   0.10041
 Alpha virt. eigenvalues --    0.10822   0.11586   0.12398   0.12602   0.12669
 Alpha virt. eigenvalues --    0.13756   0.15352   0.17571   0.17658   0.19132
 Alpha virt. eigenvalues --    0.21092   0.23215   0.25952   0.26142   0.26738
 Alpha virt. eigenvalues --    0.28481   0.29244   0.30300   0.32017   0.32146
 Alpha virt. eigenvalues --    0.33125   0.33975   0.35014   0.37137   0.38105
 Alpha virt. eigenvalues --    0.38600   0.39105   0.40546   0.41796   0.42737
 Alpha virt. eigenvalues --    0.66005   0.67218   0.68788   0.71004   0.71400
 Alpha virt. eigenvalues --    0.72822   0.74519   0.76771   0.79382   0.82886
 Alpha virt. eigenvalues --    0.84074   0.84127   0.88859   0.96343   1.01270
 Alpha virt. eigenvalues --    1.01490   1.03357   1.05694   1.09064   1.10551
 Alpha virt. eigenvalues --    1.11798   1.15846   1.17414   1.18529   1.19737
 Alpha virt. eigenvalues --    1.22905   1.34324   1.36629   1.41415   1.43780
 Alpha virt. eigenvalues --    1.46259   1.46676   1.51881   1.59591   1.68163
 Alpha virt. eigenvalues --    1.69776   1.79601   1.80915   1.81886   1.85622
 Alpha virt. eigenvalues --    1.97976   1.98894   2.00250   2.05572   2.09481
 Alpha virt. eigenvalues --    2.09613   2.12326   2.19250   2.20268   2.23273
 Alpha virt. eigenvalues --    2.31163   2.37328   2.43788   2.45505   2.45956
 Alpha virt. eigenvalues --    2.49160   2.51469   2.61491   2.69073   2.72961
 Alpha virt. eigenvalues --    2.78629   2.79433   2.85649   2.99426   4.21966
 Alpha virt. eigenvalues --    4.28963   4.31340   4.48560   4.63851   4.65142
          Condensed to atoms (all electrons):
               1          2          3          4          5          6
     1  C    5.897891   0.107618  -0.116718  -0.063898  -0.116433   0.106865
     2  C    0.107618   5.897455   0.008822  -0.047298   0.043273  -0.157446
     3  C   -0.116718   0.008822   5.504825   0.187507  -0.179985   0.043642
     4  O   -0.063898  -0.047298   0.187507   8.326484   0.187483  -0.047191
     5  C   -0.116433   0.043273  -0.179985   0.187483   5.504982   0.008564
     6  C    0.106865  -0.157446   0.043642  -0.047191   0.008564   5.898006
     7  H    0.412223  -0.055059   0.011962  -0.000572   0.011919  -0.055028
     8  H    0.472382  -0.077283  -0.005762   0.000612  -0.005715  -0.077343
     9  H   -0.027055   0.416584  -0.059877   0.001594   0.001895  -0.020681
    10  H   -0.076995   0.384054  -0.019886   0.006848  -0.005652   0.026995
    11  H    0.011071  -0.053370   0.411092  -0.050449   0.005854  -0.000325
    12  H   -0.007103  -0.095388   0.450426  -0.050210   0.005001  -0.011493
    13  H    0.011080  -0.000305   0.005825  -0.050447   0.411179  -0.053448
    14  H   -0.007128  -0.011547   0.004993  -0.050255   0.450534  -0.095389
    15  H   -0.027133  -0.020675   0.001896   0.001609  -0.059871   0.416593
    16  H   -0.076994   0.026990  -0.005682   0.006841  -0.019887   0.384123
               7          8          9         10         11         12
     1  C    0.412223   0.472382  -0.027055  -0.076995   0.011071  -0.007103
     2  C   -0.055059  -0.077283   0.416584   0.384054  -0.053370  -0.095388
     3  C    0.011962  -0.005762  -0.059877  -0.019886   0.411092   0.450426
     4  O   -0.000572   0.000612   0.001594   0.006848  -0.050449  -0.050210
     5  C    0.011919  -0.005715   0.001895  -0.005652   0.005854   0.005001
     6  C   -0.055028  -0.077343  -0.020681   0.026995  -0.000325  -0.011493
     7  H    0.504945  -0.028969  -0.004471  -0.002313  -0.000115  -0.000073
     8  H   -0.028969   0.505630   0.004161  -0.004438  -0.000048   0.002049
     9  H   -0.004471   0.004161   0.493136  -0.027791  -0.005054   0.003946
    10  H   -0.002313  -0.004438  -0.027791   0.512504  -0.000443  -0.001199
    11  H   -0.000115  -0.000048  -0.005054  -0.000443   0.510845  -0.034493
    12  H   -0.000073   0.002049   0.003946  -0.001199  -0.034493   0.541188
    13  H   -0.000115  -0.000049  -0.000038   0.000018  -0.000062  -0.000205
    14  H   -0.000073   0.002047   0.000073   0.000028  -0.000205   0.007012
    15  H   -0.004482   0.004165   0.002287  -0.000095  -0.000038   0.000073
    16  H   -0.002310  -0.004440  -0.000095  -0.000078   0.000018   0.000028
              13         14         15         16
     1  C    0.011080  -0.007128  -0.027133  -0.076994
     2  C   -0.000305  -0.011547  -0.020675   0.026990
     3  C    0.005825   0.004993   0.001896  -0.005682
     4  O   -0.050447  -0.050255   0.001609   0.006841
     5  C    0.411179   0.450534  -0.059871  -0.019887
     6  C   -0.053448  -0.095389   0.416593   0.384123
     7  H   -0.000115  -0.000073  -0.004482  -0.002310
     8  H   -0.000049   0.002047   0.004165  -0.004440
     9  H   -0.000038   0.000073   0.002287  -0.000095
    10  H    0.000018   0.000028  -0.000095  -0.000078
    11  H   -0.000062  -0.000205  -0.000038   0.000018
    12  H   -0.000205   0.007012   0.000073   0.000028
    13  H    0.510848  -0.034505  -0.005063  -0.000437
    14  H   -0.034505   0.541293   0.003951  -0.001210
    15  H   -0.005063   0.003951   0.493205  -0.027786
    16  H   -0.000437  -0.001210  -0.027786   0.512484
 Mulliken charges:
               1
     1  C   -0.499672
     2  C   -0.366425
     3  C   -0.243079
     4  O   -0.358657
     5  C   -0.243143
     6  C   -0.366444
     7  H    0.212528
     8  H    0.213002
     9  H    0.221385
    10  H    0.208444
    11  H    0.205720
    12  H    0.190441
    13  H    0.205722
    14  H    0.190381
    15  H    0.221363
    16  H    0.208435
 Sum of Mulliken charges =   0.00000
 Mulliken charges with hydrogens summed into heavy atoms:
               1
     1  C   -0.074142
     2  C    0.063404
     3  C    0.153081
     4  O   -0.358657
     5  C    0.152960
     6  C    0.063354
 Electronic spatial extent (au):  <R**2>=            545.2927
 Charge=              0.0000 electrons
 Dipole moment (field-independent basis, Debye):
    X=              0.0013    Y=              1.4680    Z=              0.7993  Tot=              1.6715
 Quadrupole moment (field-independent basis, Debye-Ang):
   XX=            -35.5661   YY=            -42.0178   ZZ=            -38.8907
   XY=             -0.0037   XZ=              0.0002   YZ=             -1.4854
 Traceless Quadrupole moment (field-independent basis, Debye-Ang):
   XX=              3.2587   YY=             -3.1929   ZZ=             -0.0658
   XY=             -0.0037   XZ=              0.0002   YZ=             -1.4854
 Octapole moment (field-independent basis, Debye-Ang**2):
  XXX=             -0.0064  YYY=              1.7259  ZZZ=             -0.8682  XYY=              0.0076
  XXY=             -5.3441  XXZ=             -0.5987  XZZ=              0.0002  YZZ=             -0.9387
  YYZ=              0.8194  XYZ=             -0.0021
 Hexadecapole moment (field-independent basis, Debye-Ang**3):
 XXXX=           -325.8020 YYYY=           -329.9041 ZZZZ=            -91.3247 XXXY=              0.0086
 XXXZ=              0.0097 YYYX=             -0.0158 YYYZ=             -2.6967 ZZZX=              0.0024
 ZZZY=             -0.8445 XXYY=           -102.8945 XXZZ=            -71.4220 YYZZ=            -69.6574
 XXYZ=              3.7018 YYXZ=             -0.0045 ZZXY=             -0.0001
 N-N= 2.600964732768D+02 E-N=-1.151361941215D+03  KE= 2.692846884204D+02
 Calling FoFJK, ICntrl=      2127 FMM=F ISym2X=0 I1Cent= 0 IOpClX= 0 NMat=1 NMatS=1 NMatT=0.
 ***** Axes restored to original set *****
 -------------------------------------------------------------------
 Center     Atomic                   Forces (Hartrees/Bohr)
 Number     Number              X              Y              Z
 -------------------------------------------------------------------
      1        6           0.000672124   -0.002404637   -0.002680280
      2        6          -0.001269116   -0.000512413   -0.001567334
      3        6          -0.006702323    0.005580401   -0.000524250
      4        8           0.002934681   -0.001596687   -0.001747284
      5        6          -0.006461052   -0.001298005    0.005434218
      6        6          -0.001246253   -0.001500400   -0.000693308
      7        1           0.000612624   -0.000806394   -0.000908449
      8        1           0.001600948   -0.000825325   -0.000923473
      9        1           0.000505437    0.000206219    0.002319926
     10        1           0.000454011   -0.000932500    0.001419244
     11        1           0.000624828    0.004899404    0.000012530
     12        1           0.003410320   -0.001326988   -0.003091855
     13        1           0.000673523   -0.000459140    0.004868974
     14        1           0.003380619   -0.002856914   -0.001663281
     15        1           0.000391385    0.002325078    0.000445981
     16        1           0.000418244    0.001508302   -0.000701359
 -------------------------------------------------------------------
 Cartesian Forces:  Max     0.006702323 RMS     0.002512621

 GradGradGradGradGradGradGradGradGradGradGradGradGradGradGradGradGradGrad
 Berny optimization.
 FormGI is forming the generalized inverse of G from B-inverse, IUseBI=4.
 Internal  Forces:  Max     0.008382191 RMS     0.002172567
 Search for a local minimum.
 Step number   1 out of a maximum of   99
 All quantities printed in internal units (Hartrees-Bohrs-Radians)
 Mixed Optimization -- RFO/linear search
 Second derivative matrix not updated -- first step.
 ITU=  0
     Eigenvalues ---    0.00651   0.00712   0.01376   0.02663   0.03074
     Eigenvalues ---    0.04088   0.04713   0.04838   0.05152   0.05214
     Eigenvalues ---    0.05707   0.06152   0.06357   0.07549   0.08020
     Eigenvalues ---    0.08025   0.08049   0.08659   0.10615   0.11567
     Eigenvalues ---    0.11599   0.12109   0.13115   0.16239   0.16856
     Eigenvalues ---    0.22241   0.28611   0.29155   0.29258   0.30056
     Eigenvalues ---    0.34011   0.34026   0.34026   0.34080   0.34093
     Eigenvalues ---    0.34186   0.34243   0.34257   0.34281   0.34288
     Eigenvalues ---    0.39942   0.39990
 RFO step:  Lambda=-2.04452759D-03 EMin= 6.50694269D-03
 Linear search not attempted -- first point.
 Iteration  1 RMS(Cart)=  0.02068618 RMS(Int)=  0.00030432
 Iteration  2 RMS(Cart)=  0.00029682 RMS(Int)=  0.00008646
 Iteration  3 RMS(Cart)=  0.00000003 RMS(Int)=  0.00008646
 Variable       Old X    -DE/DX   Delta X   Delta X   Delta X     New X
                                 (Linear)    (Quad)   (Total)
    R1        2.88170   0.00360   0.00000   0.01286   0.01286   2.89457
    R2        2.88169   0.00361   0.00000   0.01287   0.01288   2.89457
    R3        2.07017   0.00031   0.00000   0.00091   0.00091   2.07108
    R4        2.07287   0.00202   0.00000   0.00590   0.00590   2.07877
    R5        2.87844   0.00086   0.00000   0.00284   0.00284   2.88128
    R6        2.07311   0.00042   0.00000   0.00124   0.00124   2.07434
    R7        2.06899   0.00116   0.00000   0.00338   0.00338   2.07236
    R8        2.69791  -0.00838   0.00000  -0.02082  -0.02083   2.67708
    R9        2.06858  -0.00089   0.00000  -0.00259  -0.00259   2.06598
   R10        2.07173   0.00434   0.00000   0.01265   0.01265   2.08439
   R11        2.69764  -0.00831   0.00000  -0.02066  -0.02067   2.67697
   R12        2.87858   0.00087   0.00000   0.00278   0.00278   2.88135
   R13        2.06847  -0.00086   0.00000  -0.00249  -0.00249   2.06598
   R14        2.07195   0.00428   0.00000   0.01248   0.01248   2.08443
   R15        2.07286   0.00052   0.00000   0.00150   0.00150   2.07437
   R16        2.06921   0.00108   0.00000   0.00314   0.00314   2.07235
    A1        1.92989  -0.00319   0.00000  -0.01494  -0.01487   1.91502
    A2        1.92253   0.00129   0.00000   0.00916   0.00920   1.93173
    A3        1.90880   0.00079   0.00000   0.00081   0.00072   1.90952
    A4        1.92249   0.00129   0.00000   0.00913   0.00917   1.93165
    A5        1.90878   0.00080   0.00000   0.00091   0.00083   1.90961
    A6        1.87032  -0.00091   0.00000  -0.00477  -0.00477   1.86555
    A7        1.93250  -0.00179   0.00000  -0.00793  -0.00797   1.92453
    A8        1.89580   0.00226   0.00000   0.02069   0.02068   1.91648
    A9        1.92623   0.00097   0.00000   0.00957   0.00946   1.93570
   A10        1.90304  -0.00090   0.00000  -0.01173  -0.01168   1.89136
   A11        1.92665  -0.00005   0.00000  -0.00880  -0.00874   1.91792
   A12        1.87838  -0.00043   0.00000  -0.00137  -0.00164   1.87674
   A13        1.93307   0.00439   0.00000   0.01468   0.01460   1.94766
   A14        1.91786   0.00328   0.00000   0.02979   0.02994   1.94780
   A15        1.94284  -0.00312   0.00000  -0.01541  -0.01536   1.92748
   A16        1.88059  -0.00526   0.00000  -0.03794  -0.03807   1.84252
   A17        1.90965  -0.00041   0.00000  -0.00390  -0.00381   1.90584
   A18        1.87797   0.00093   0.00000   0.01185   0.01174   1.88971
   A19        1.95754  -0.00124   0.00000  -0.01251  -0.01243   1.94512
   A20        1.93343   0.00438   0.00000   0.01436   0.01428   1.94771
   A21        1.88077  -0.00527   0.00000  -0.03814  -0.03825   1.84252
   A22        1.90951  -0.00040   0.00000  -0.00360  -0.00351   1.90600
   A23        1.91786   0.00327   0.00000   0.02962   0.02977   1.94763
   A24        1.94249  -0.00309   0.00000  -0.01504  -0.01500   1.92750
   A25        1.87792   0.00092   0.00000   0.01187   0.01175   1.88967
   A26        1.93284  -0.00181   0.00000  -0.00819  -0.00823   1.92461
   A27        1.89554   0.00227   0.00000   0.02095   0.02095   1.91648
   A28        1.92620   0.00098   0.00000   0.00954   0.00943   1.93563
   A29        1.90285  -0.00087   0.00000  -0.01141  -0.01137   1.89149
   A30        1.92671  -0.00006   0.00000  -0.00900  -0.00894   1.91777
   A31        1.87845  -0.00044   0.00000  -0.00144  -0.00171   1.87674
    D1       -0.88789   0.00032   0.00000  -0.00873  -0.00869  -0.89659
    D2        1.20129  -0.00045   0.00000  -0.01493  -0.01499   1.18631
    D3       -3.02649   0.00093   0.00000   0.00127   0.00137  -3.02512
    D4       -3.01695  -0.00005   0.00000  -0.01641  -0.01640  -3.03335
    D5       -0.92776  -0.00082   0.00000  -0.02261  -0.02269  -0.95045
    D6        1.12764   0.00056   0.00000  -0.00642  -0.00634   1.12131
    D7        1.21502  -0.00018   0.00000  -0.01648  -0.01645   1.19856
    D8       -2.97898  -0.00095   0.00000  -0.02268  -0.02275  -3.00173
    D9       -0.92358   0.00043   0.00000  -0.00648  -0.00639  -0.92997
   D10        0.88718  -0.00030   0.00000   0.00933   0.00929   0.89647
   D11       -1.20182   0.00045   0.00000   0.01513   0.01518  -1.18664
   D12        3.02605  -0.00094   0.00000  -0.00112  -0.00123   3.02482
   D13        3.01626   0.00007   0.00000   0.01703   0.01701   3.03327
   D14        0.92726   0.00082   0.00000   0.02283   0.02290   0.95017
   D15       -1.12805  -0.00057   0.00000   0.00658   0.00650  -1.12156
   D16       -1.21574   0.00021   0.00000   0.01714   0.01711  -1.19863
   D17        2.97845   0.00095   0.00000   0.02294   0.02301   3.00146
   D18        0.92313  -0.00043   0.00000   0.00669   0.00660   0.92973
   D19        0.97175   0.00123   0.00000   0.01370   0.01371   0.98545
   D20        3.04751  -0.00046   0.00000  -0.00525  -0.00518   3.04233
   D21       -1.15703   0.00085   0.00000   0.01909   0.01914  -1.13788
   D22       -1.11308   0.00011   0.00000   0.00045   0.00045  -1.11263
   D23        0.96268  -0.00158   0.00000  -0.01850  -0.01843   0.94425
   D24        3.04133  -0.00027   0.00000   0.00584   0.00589   3.04722
   D25        3.11010   0.00121   0.00000   0.01440   0.01436   3.12446
   D26       -1.09732  -0.00048   0.00000  -0.00455  -0.00452  -1.10184
   D27        0.98132   0.00083   0.00000   0.01979   0.01980   1.00113
   D28       -1.07367   0.00138   0.00000   0.00130   0.00123  -1.07244
   D29        3.11136  -0.00195   0.00000  -0.02007  -0.01976   3.09160
   D30        1.07442   0.00010   0.00000  -0.01098  -0.01106   1.06337
   D31        1.07292  -0.00135   0.00000  -0.00070  -0.00064   1.07229
   D32       -3.11178   0.00194   0.00000   0.02014   0.01984  -3.09194
   D33       -1.07489  -0.00011   0.00000   0.01113   0.01120  -1.06369
   D34       -0.97033  -0.00127   0.00000  -0.01487  -0.01487  -0.98520
   D35        1.11427  -0.00013   0.00000  -0.00125  -0.00126   1.11301
   D36       -3.10891  -0.00123   0.00000  -0.01521  -0.01518  -3.12409
   D37       -3.04655   0.00046   0.00000   0.00462   0.00455  -3.04199
   D38       -0.96195   0.00159   0.00000   0.01823   0.01817  -0.94378
   D39        1.09806   0.00049   0.00000   0.00428   0.00425   1.10231
   D40        1.15828  -0.00086   0.00000  -0.01985  -0.01990   1.13838
   D41       -3.04030   0.00028   0.00000  -0.00623  -0.00629  -3.04659
   D42       -0.98030  -0.00083   0.00000  -0.02018  -0.02020  -1.00050
         Item               Value     Threshold  Converged?
 Maximum Force            0.008382     0.000450     NO 
 RMS     Force            0.002173     0.000300     NO 
 Maximum Displacement     0.088448     0.001800     NO 
 RMS     Displacement     0.020712     0.001200     NO 
 Predicted change in Energy=-1.039725D-03
 GradGradGradGradGradGradGradGradGradGradGradGradGradGradGradGradGradGrad

                          Input orientation:                          
 ---------------------------------------------------------------------
 Center     Atomic      Atomic             Coordinates (Angstroms)
 Number     Number       Type             X           Y           Z
 ---------------------------------------------------------------------
      1          6           0       -0.458643   -0.952339   -1.051877
      2          6           0       -0.503016   -1.294810    0.440426
      3          6           0        0.546639   -0.489680    1.198532
      4          8           0        0.380783    0.902834    0.997806
      5          6           0        0.526272    1.250260   -0.367794
      6          6           0       -0.524678    0.566888   -1.235755
      7          1           0       -1.280284   -1.442863   -1.586146
      8          1           0        0.477471   -1.332893   -1.486563
      9          1           0       -1.490999   -1.047120    0.849662
     10          1           0       -0.338376   -2.367082    0.600931
     11          1           0        0.468164   -0.641896    2.278308
     12          1           0        1.561126   -0.783633    0.880664
     13          1           0        0.432923    2.338893   -0.405163
     14          1           0        1.540600    0.978385   -0.705298
     15          1           0       -1.514187    0.935232   -0.935495
     16          1           0       -0.375394    0.840624   -2.287138
 ---------------------------------------------------------------------
                    Distance matrix (angstroms):
                    1          2          3          4          5
     1  C    0.000000
     2  C    1.531739   0.000000
     3  C    2.507786   1.524709   0.000000
     4  O    2.889205   2.433396   1.416649   0.000000
     5  C    2.507882   2.861824   2.341192   1.416592   0.000000
     6  C    1.531738   2.505189   2.861784   2.433416   1.524746
     7  H    1.095970   2.175560   3.464194   3.865003   3.464237
     8  H    1.100037   2.162427   2.815231   3.343638   2.815441
     9  H    2.165778   1.097695   2.141126   2.706998   3.290826
    10  H    2.178931   1.096648   2.159866   3.371506   3.843333
    11  H    3.470660   2.178830   1.093272   2.008360   3.253534
    12  H    2.800473   2.171588   1.103010   2.061820   2.601209
    13  H    3.470640   3.846401   3.253551   2.008309   1.093267
    14  H    2.800855   3.264425   2.601488   2.061903   1.103035
    15  H    2.165789   2.808686   3.291117   2.707326   2.141262
    16  H    2.178879   3.466406   3.843143   3.371428   2.159788
                    6          7          8          9         10
     6  C    0.000000
     7  H    2.175503   0.000000
     8  H    2.162493   1.764005   0.000000
     9  H    2.808516   2.476727   3.068304   0.000000
    10  H    3.466454   2.554346   2.468357   1.769946   0.000000
    11  H    3.846496   4.316553   3.827769   2.458365   2.537788
    12  H    3.264003   3.820125   2.660782   3.063634   2.488708
    13  H    2.178735   4.316420   3.827980   4.091595   4.873739
    14  H    2.171656   3.820435   2.661320   3.963731   4.053262
    15  H    1.097708   2.476569   3.068350   2.667779   3.827325
    16  H    1.096642   2.554316   2.468294   3.827227   4.316445
                   11         12         13         14         15
    11  H    0.000000
    12  H    1.779905   0.000000
    13  H    4.010905   3.560388   0.000000
    14  H    3.560524   2.370739   1.779891   0.000000
    15  H    4.092136   3.963645   2.458202   3.063753   0.000000
    16  H    4.873679   4.052566   2.537719   2.488419   1.769954
                   16
    16  H    0.000000
 Stoichiometry    C5H10O
 Framework group  C1[X(C5H10O)]
 Deg. of freedom    42
 Full point group                 C1      NOp   1
 Largest Abelian subgroup         C1      NOp   1
 Largest concise Abelian subgroup C1      NOp   1
                         Standard orientation:                         
 ---------------------------------------------------------------------
 Center     Atomic      Atomic             Coordinates (Angstroms)
 Number     Number       Type             X           Y           Z
 ---------------------------------------------------------------------
      1          6           0        0.001735    1.448799    0.232007
      2          6           0        1.253417    0.691188   -0.221361
      3          6           0        1.169692   -0.770243    0.205192
      4          8           0       -0.001629   -1.392364   -0.292671
      5          6           0       -1.171499   -0.767565    0.205089
      6          6           0       -1.251770    0.694155   -0.221270
      7          1           0        0.002882    2.470512   -0.164544
      8          1           0        0.001930    1.531737    1.328913
      9          1           0        1.334624    0.728069   -1.315427
     10          1           0        2.159635    1.149360    0.192744
     11          1           0        2.003885   -1.354120   -0.192869
     12          1           0        1.184174   -0.851851    1.305084
     13          1           0       -2.007016   -1.349300   -0.193319
     14          1           0       -1.186563   -0.849342    1.304985
     15          1           0       -1.333153    0.731512   -1.315319
     16          1           0       -2.156807    1.154338    0.193174
 ---------------------------------------------------------------------
 Rotational constants (GHZ):      4.7013985      4.5025872      2.6096183
 Standard basis: 6-31+G(d) (6D, 7F)
 There are   134 symmetry adapted cartesian basis functions of A   symmetry.
 There are   134 symmetry adapted basis functions of A   symmetry.
   134 basis functions,   232 primitive gaussians,   134 cartesian basis functions
    24 alpha electrons       24 beta electrons
       nuclear repulsion energy       260.3581588043 Hartrees.
 NAtoms=   16 NActive=   16 NUniq=   16 SFac= 1.00D+00 NAtFMM=   60 NAOKFM=F Big=F
 Integral buffers will be    131072 words long.
 Raffenetti 2 integral format.
 Two-electron integral symmetry is turned on.
 One-electron integrals computed using PRISM.
 NBasis=   134 RedAO= T EigKep=  5.64D-05  NBF=   134
 NBsUse=   134 1.00D-06 EigRej= -1.00D+00 NBFU=   134
 Initial guess from the checkpoint file:  "/srv/scratch/z5358697/gauss/Gau-3230042.chk"
 B after Tr=     0.000000    0.000000    0.000000
         Rot=    0.999998    0.002080    0.000002    0.000267 Ang=   0.24 deg.
 ExpMin= 4.38D-02 ExpMax= 5.48D+03 ExpMxC= 8.25D+02 IAcc=2 IRadAn=         4 AccDes= 0.00D+00
 Harris functional with IExCor= 1009 and IRadAn=       4 diagonalized for initial guess.
 HarFok:  IExCor= 1009 AccDes= 0.00D+00 IRadAn=         4 IDoV= 1 UseB2=F ITyADJ=14
 ICtDFT=  3500011 ScaDFX=  1.000000  1.000000  1.000000  1.000000
 FoFCou: FMM=F IPFlag=           0 FMFlag=      100000 FMFlg1=           0
         NFxFlg=           0 DoJE=T BraDBF=F KetDBF=T FulRan=T
         wScrn=  0.000000 ICntrl=     500 IOpCl=  0 I1Cent=   200000004 NGrid=           0
         NMat0=    1 NMatS0=      1 NMatT0=    0 NMatD0=    1 NMtDS0=    0 NMtDT0=    0
 Petite list used in FoFCou.
 Requested convergence on RMS density matrix=1.00D-08 within 128 cycles.
 Requested convergence on MAX density matrix=1.00D-06.
 Requested convergence on             energy=1.00D-06.
 No special actions if energy rises.
 SCF Done:  E(RM062X) =  -271.646240630     A.U. after   10 cycles
            NFock= 10  Conv=0.68D-08     -V/T= 2.0088
 Calling FoFJK, ICntrl=      2127 FMM=F ISym2X=0 I1Cent= 0 IOpClX= 0 NMat=1 NMatS=1 NMatT=0.
 ***** Axes restored to original set *****
 -------------------------------------------------------------------
 Center     Atomic                   Forces (Hartrees/Bohr)
 Number     Number              X              Y              Z
 -------------------------------------------------------------------
      1        6          -0.000282389    0.000358096    0.000401434
      2        6          -0.000304549   -0.000482751   -0.000340606
      3        6          -0.000776992    0.001605098    0.002509281
      4        8           0.000609563   -0.001818693   -0.001987589
      5        6          -0.000794928    0.002343891    0.001842740
      6        6          -0.000293240   -0.000304484   -0.000527089
      7        1           0.000355189    0.000013472    0.000017628
      8        1           0.000008289    0.000347613    0.000378110
      9        1          -0.000038389   -0.000057617   -0.000332880
     10        1           0.000145732    0.000164482    0.000315182
     11        1           0.000198323   -0.001127200   -0.000035900
     12        1           0.000442455   -0.000635511   -0.000538699
     13        1           0.000190408    0.000092595   -0.001124250
     14        1           0.000426048   -0.000471625   -0.000678268
     15        1          -0.000022069   -0.000327016   -0.000085665
     16        1           0.000136548    0.000299651    0.000186570
 -------------------------------------------------------------------
 Cartesian Forces:  Max     0.002509281 RMS     0.000831423

 GradGradGradGradGradGradGradGradGradGradGradGradGradGradGradGradGradGrad
 Berny optimization.
 Using GEDIIS/GDIIS optimizer.
 FormGI is forming the generalized inverse of G from B-inverse, IUseBI=4.
 Internal  Forces:  Max     0.001389492 RMS     0.000409951
 Search for a local minimum.
 Step number   2 out of a maximum of   99
 All quantities printed in internal units (Hartrees-Bohrs-Radians)
 Mixed Optimization -- En-DIIS/RFO-DIIS
 Update second derivatives using D2CorX and points    1    2
 DE= -9.47D-04 DEPred=-1.04D-03 R= 9.11D-01
 TightC=F SS=  1.41D+00  RLast= 1.34D-01 DXNew= 5.0454D-01 4.0153D-01
 Trust test= 9.11D-01 RLast= 1.34D-01 DXMaxT set to 4.02D-01
 ITU=  1  0
 Use linear search instead of GDIIS.
     Eigenvalues ---    0.00648   0.00717   0.01375   0.02640   0.03095
     Eigenvalues ---    0.04105   0.04701   0.04853   0.05174   0.05189
     Eigenvalues ---    0.05774   0.06099   0.06330   0.07465   0.07851
     Eigenvalues ---    0.07902   0.07978   0.08626   0.10686   0.11729
     Eigenvalues ---    0.12072   0.12185   0.12576   0.16758   0.18190
     Eigenvalues ---    0.22621   0.28602   0.29050   0.29120   0.30037
     Eigenvalues ---    0.33406   0.34012   0.34026   0.34070   0.34087
     Eigenvalues ---    0.34198   0.34248   0.34266   0.34285   0.34328
     Eigenvalues ---    0.39759   0.39978
 RFO step:  Lambda=-1.33723942D-04 EMin= 6.47778617D-03
 Quartic linear search produced a step of -0.07267.
 Iteration  1 RMS(Cart)=  0.00910527 RMS(Int)=  0.00005613
 Iteration  2 RMS(Cart)=  0.00005977 RMS(Int)=  0.00001431
 Iteration  3 RMS(Cart)=  0.00000000 RMS(Int)=  0.00001431
 Variable       Old X    -DE/DX   Delta X   Delta X   Delta X     New X
                                 (Linear)    (Quad)   (Total)
    R1        2.89457   0.00002  -0.00093   0.00080  -0.00014   2.89443
    R2        2.89457   0.00001  -0.00094   0.00080  -0.00014   2.89442
    R3        2.07108  -0.00028  -0.00007  -0.00064  -0.00071   2.07037
    R4        2.07877  -0.00026  -0.00043   0.00010  -0.00033   2.07844
    R5        2.88128   0.00007  -0.00021   0.00067   0.00046   2.88174
    R6        2.07434  -0.00010  -0.00009  -0.00012  -0.00021   2.07414
    R7        2.07236  -0.00009  -0.00025   0.00021  -0.00004   2.07233
    R8        2.67708   0.00010   0.00151  -0.00189  -0.00037   2.67671
    R9        2.06598   0.00011   0.00019  -0.00006   0.00013   2.06612
   R10        2.08439   0.00073  -0.00092   0.00370   0.00278   2.08716
   R11        2.67697   0.00012   0.00150  -0.00181  -0.00030   2.67667
   R12        2.88135   0.00008  -0.00020   0.00069   0.00049   2.88184
   R13        2.06598   0.00012   0.00018  -0.00003   0.00016   2.06613
   R14        2.08443   0.00071  -0.00091   0.00363   0.00272   2.08716
   R15        2.07437  -0.00011  -0.00011  -0.00011  -0.00022   2.07415
   R16        2.07235  -0.00008  -0.00023   0.00020  -0.00003   2.07232
    A1        1.91502   0.00056   0.00108  -0.00124  -0.00022   1.91480
    A2        1.93173  -0.00023  -0.00067   0.00261   0.00195   1.93368
    A3        1.90952  -0.00014  -0.00005  -0.00213  -0.00217   1.90736
    A4        1.93165  -0.00022  -0.00067   0.00268   0.00202   1.93367
    A5        1.90961  -0.00015  -0.00006  -0.00218  -0.00223   1.90739
    A6        1.86555   0.00015   0.00035   0.00020   0.00054   1.86610
    A7        1.92453  -0.00016   0.00058  -0.00456  -0.00401   1.92052
    A8        1.91648  -0.00039  -0.00150   0.00221   0.00071   1.91719
    A9        1.93570   0.00051  -0.00069   0.00366   0.00298   1.93868
   A10        1.89136   0.00054   0.00085   0.00271   0.00357   1.89493
   A11        1.91792  -0.00048   0.00063  -0.00447  -0.00383   1.91409
   A12        1.87674  -0.00002   0.00012   0.00059   0.00072   1.87746
   A13        1.94766  -0.00054  -0.00106   0.00084  -0.00026   1.94741
   A14        1.94780  -0.00028  -0.00218   0.00335   0.00116   1.94896
   A15        1.92748  -0.00056   0.00112  -0.00993  -0.00882   1.91865
   A16        1.84252   0.00119   0.00277   0.00659   0.00937   1.85189
   A17        1.90584   0.00023   0.00028  -0.00057  -0.00032   1.90552
   A18        1.88971   0.00007  -0.00085   0.00040  -0.00046   1.88925
   A19        1.94512   0.00139   0.00090   0.00925   0.01010   1.95522
   A20        1.94771  -0.00054  -0.00104   0.00081  -0.00026   1.94745
   A21        1.84252   0.00119   0.00278   0.00662   0.00941   1.85193
   A22        1.90600   0.00022   0.00026  -0.00069  -0.00046   1.90553
   A23        1.94763  -0.00028  -0.00216   0.00344   0.00126   1.94889
   A24        1.92750  -0.00056   0.00109  -0.00994  -0.00886   1.91864
   A25        1.88967   0.00007  -0.00085   0.00044  -0.00042   1.88925
   A26        1.92461  -0.00016   0.00060  -0.00459  -0.00402   1.92059
   A27        1.91648  -0.00039  -0.00152   0.00220   0.00069   1.91717
   A28        1.93563   0.00051  -0.00069   0.00369   0.00302   1.93865
   A29        1.89149   0.00053   0.00083   0.00264   0.00347   1.89496
   A30        1.91777  -0.00047   0.00065  -0.00439  -0.00373   1.91404
   A31        1.87674  -0.00002   0.00012   0.00058   0.00071   1.87746
    D1       -0.89659  -0.00043   0.00063  -0.01547  -0.01484  -0.91142
    D2        1.18631  -0.00011   0.00109  -0.01357  -0.01248   1.17383
    D3       -3.02512  -0.00006  -0.00010  -0.00918  -0.00928  -3.03440
    D4       -3.03335  -0.00038   0.00119  -0.01973  -0.01854  -3.05188
    D5       -0.95045  -0.00006   0.00165  -0.01783  -0.01618  -0.96663
    D6        1.12131  -0.00001   0.00046  -0.01344  -0.01298   1.10833
    D7        1.19856  -0.00035   0.00120  -0.02023  -0.01904   1.17953
    D8       -3.00173  -0.00003   0.00165  -0.01833  -0.01668  -3.01841
    D9       -0.92997   0.00002   0.00046  -0.01394  -0.01348  -0.94345
   D10        0.89647   0.00042  -0.00067   0.01550   0.01483   0.91130
   D11       -1.18664   0.00011  -0.00110   0.01372   0.01261  -1.17402
   D12        3.02482   0.00007   0.00009   0.00932   0.00941   3.03424
   D13        3.03327   0.00037  -0.00124   0.01973   0.01849   3.05176
   D14        0.95017   0.00006  -0.00166   0.01794   0.01627   0.96644
   D15       -1.12156   0.00001  -0.00047   0.01354   0.01307  -1.10849
   D16       -1.19863   0.00034  -0.00124   0.02023   0.01899  -1.17964
   D17        3.00146   0.00003  -0.00167   0.01844   0.01677   3.01823
   D18        0.92973  -0.00002  -0.00048   0.01405   0.01357   0.94330
   D19        0.98545  -0.00073  -0.00100  -0.00098  -0.00199   0.98346
   D20        3.04233   0.00023   0.00038   0.01008   0.01043   3.05277
   D21       -1.13788  -0.00026  -0.00139   0.00607   0.00466  -1.13322
   D22       -1.11263  -0.00049  -0.00003  -0.00264  -0.00267  -1.11530
   D23        0.94425   0.00047   0.00134   0.00842   0.00976   0.95400
   D24        3.04722  -0.00002  -0.00043   0.00442   0.00399   3.05120
   D25        3.12446  -0.00051  -0.00104  -0.00241  -0.00345   3.12102
   D26       -1.10184   0.00044   0.00033   0.00865   0.00898  -1.09286
   D27        1.00113  -0.00004  -0.00144   0.00465   0.00321   1.00434
   D28       -1.07244   0.00034  -0.00009   0.01177   0.01171  -1.06073
   D29        3.09160   0.00024   0.00144   0.00304   0.00445   3.09606
   D30        1.06337  -0.00057   0.00080  -0.00061   0.00019   1.06356
   D31        1.07229  -0.00035   0.00005  -0.01173  -0.01171   1.06058
   D32       -3.09194  -0.00023  -0.00144  -0.00289  -0.00431  -3.09625
   D33       -1.06369   0.00057  -0.00081   0.00076  -0.00005  -1.06373
   D34       -0.98520   0.00074   0.00108   0.00092   0.00201  -0.98319
   D35        1.11301   0.00050   0.00009   0.00250   0.00259   1.11560
   D36       -3.12409   0.00052   0.00110   0.00226   0.00336  -3.12073
   D37       -3.04199  -0.00023  -0.00033  -0.01022  -0.01053  -3.05253
   D38       -0.94378  -0.00047  -0.00132  -0.00864  -0.00995  -0.95373
   D39        1.10231  -0.00044  -0.00031  -0.00888  -0.00918   1.09312
   D40        1.13838   0.00025   0.00145  -0.00632  -0.00486   1.13352
   D41       -3.04659   0.00001   0.00046  -0.00474  -0.00428  -3.05087
   D42       -1.00050   0.00004   0.00147  -0.00498  -0.00351  -1.00401
         Item               Value     Threshold  Converged?
 Maximum Force            0.001389     0.000450     NO 
 RMS     Force            0.000410     0.000300     NO 
 Maximum Displacement     0.032098     0.001800     NO 
 RMS     Displacement     0.009112     0.001200     NO 
 Predicted change in Energy=-7.267909D-05
 GradGradGradGradGradGradGradGradGradGradGradGradGradGradGradGradGradGrad

                          Input orientation:                          
 ---------------------------------------------------------------------
 Center     Atomic      Atomic             Coordinates (Angstroms)
 Number     Number       Type             X           Y           Z
 ---------------------------------------------------------------------
      1          6           0       -0.453321   -0.950070   -1.049445
      2          6           0       -0.507892   -1.292885    0.442366
      3          6           0        0.545050   -0.492382    1.201307
      4          8           0        0.389519    0.900291    0.994868
      5          6           0        0.524612    1.253305   -0.370204
      6          6           0       -0.529563    0.568567   -1.233618
      7          1           0       -1.263299   -1.448887   -1.592995
      8          1           0        0.491823   -1.320339   -1.472883
      9          1           0       -1.496819   -1.041276    0.846608
     10          1           0       -0.345994   -2.364951    0.606856
     11          1           0        0.470782   -0.649140    2.280800
     12          1           0        1.555850   -0.796683    0.876409
     13          1           0        0.435566    2.342214   -0.412180
     14          1           0        1.535162    0.975297   -0.718583
     15          1           0       -1.519865    0.931509   -0.929840
     16          1           0       -0.383210    0.846230   -2.284367
 ---------------------------------------------------------------------
                    Distance matrix (angstroms):
                    1          2          3          4          5
     1  C    0.000000
     2  C    1.531665   0.000000
     3  C    2.504418   1.524953   0.000000
     4  O    2.883302   2.433233   1.416455   0.000000
     5  C    2.504513   2.865208   2.348933   1.416435   0.000000
     6  C    1.531663   2.504874   2.865182   2.433290   1.525003
     7  H    1.095595   2.176619   3.463112   3.866196   3.463190
     8  H    1.099862   2.160639   2.799936   3.321364   2.800111
     9  H    2.166154   1.097586   2.143904   2.711077   3.291188
    10  H    2.180995   1.096629   2.157278   3.369472   3.847646
    11  H    3.469158   2.179920   1.093341   2.015184   3.263436
    12  H    2.787330   2.166480   1.104480   2.062543   2.611502
    13  H    3.469201   3.851532   3.263473   2.015203   1.093350
    14  H    2.787574   3.265963   2.611586   2.062532   1.104476
    15  H    2.166140   2.802671   3.291371   2.711313   2.143976
    16  H    2.180972   3.467914   3.847528   3.369482   2.157283
                    6          7          8          9         10
     6  C    0.000000
     7  H    2.176612   0.000000
     8  H    2.160657   1.763917   0.000000
     9  H    2.802592   2.484419   3.067998   0.000000
    10  H    3.467935   2.553422   2.473553   1.770309   0.000000
    11  H    3.851576   4.318902   3.813278   2.466198   2.532434
    12  H    3.265741   3.804066   2.631642   3.062597   2.479744
    13  H    2.179921   4.318901   3.813469   4.094711   4.879208
    14  H    2.166513   3.804293   2.632008   3.963496   4.056204
    15  H    1.097592   2.484328   3.067997   2.654841   3.821787
    16  H    1.096626   2.553451   2.473501   3.821754   4.321138
                   11         12         13         14         15
    11  H    0.000000
    12  H    1.780859   0.000000
    13  H    4.025119   3.573258   0.000000
    14  H    3.573234   2.384185   1.780858   0.000000
    15  H    4.095038   3.963484   2.466124   3.062636   0.000000
    16  H    4.879158   4.055813   2.532478   2.479614   1.770311
                   16
    16  H    0.000000
 Stoichiometry    C5H10O
 Framework group  C1[X(C5H10O)]
 Deg. of freedom    42
 Full point group                 C1      NOp   1
 Largest Abelian subgroup         C1      NOp   1
 Largest concise Abelian subgroup C1      NOp   1
                         Standard orientation:                         
 ---------------------------------------------------------------------
 Center     Atomic      Atomic             Coordinates (Angstroms)
 Number     Number       Type             X           Y           Z
 ---------------------------------------------------------------------
      1          6           0        0.000669    1.443450    0.238151
      2          6           0        1.252745    0.692990   -0.225656
      3          6           0        1.174116   -0.768744    0.201701
      4          8           0       -0.000602   -1.391729   -0.286431
      5          6           0       -1.174817   -0.767766    0.201603
      6          6           0       -1.252129    0.694146   -0.225561
      7          1           0        0.001126    2.471695   -0.140056
      8          1           0        0.000758    1.506283    1.336216
      9          1           0        1.327662    0.733722   -1.319925
     10          1           0        2.161117    1.149437    0.185575
     11          1           0        2.011960   -1.350179   -0.192438
     12          1           0        1.191619   -0.840275    1.303723
     13          1           0       -2.013159   -1.348356   -0.192747
     14          1           0       -1.192566   -0.839434    1.303609
     15          1           0       -1.327178    0.735130   -1.319818
     16          1           0       -2.160021    1.151347    0.185884
 ---------------------------------------------------------------------
 Rotational constants (GHZ):      4.6884722      4.5151477      2.6101691
 Standard basis: 6-31+G(d) (6D, 7F)
 There are   134 symmetry adapted cartesian basis functions of A   symmetry.
 There are   134 symmetry adapted basis functions of A   symmetry.
   134 basis functions,   232 primitive gaussians,   134 cartesian basis functions
    24 alpha electrons       24 beta electrons
       nuclear repulsion energy       260.3547816988 Hartrees.
 NAtoms=   16 NActive=   16 NUniq=   16 SFac= 1.00D+00 NAtFMM=   60 NAOKFM=F Big=F
 Integral buffers will be    131072 words long.
 Raffenetti 2 integral format.
 Two-electron integral symmetry is turned on.
 One-electron integrals computed using PRISM.
 NBasis=   134 RedAO= T EigKep=  5.65D-05  NBF=   134
 NBsUse=   134 1.00D-06 EigRej= -1.00D+00 NBFU=   134
 Initial guess from the checkpoint file:  "/srv/scratch/z5358697/gauss/Gau-3230042.chk"
 B after Tr=     0.000000    0.000000    0.000000
         Rot=    1.000000   -0.000429   -0.000001   -0.000365 Ang=  -0.06 deg.
 ExpMin= 4.38D-02 ExpMax= 5.48D+03 ExpMxC= 8.25D+02 IAcc=2 IRadAn=         4 AccDes= 0.00D+00
 Harris functional with IExCor= 1009 and IRadAn=       4 diagonalized for initial guess.
 HarFok:  IExCor= 1009 AccDes= 0.00D+00 IRadAn=         4 IDoV= 1 UseB2=F ITyADJ=14
 ICtDFT=  3500011 ScaDFX=  1.000000  1.000000  1.000000  1.000000
 FoFCou: FMM=F IPFlag=           0 FMFlag=      100000 FMFlg1=           0
         NFxFlg=           0 DoJE=T BraDBF=F KetDBF=T FulRan=T
         wScrn=  0.000000 ICntrl=     500 IOpCl=  0 I1Cent=   200000004 NGrid=           0
         NMat0=    1 NMatS0=      1 NMatT0=    0 NMatD0=    1 NMtDS0=    0 NMtDT0=    0
 Petite list used in FoFCou.
 Requested convergence on RMS density matrix=1.00D-08 within 128 cycles.
 Requested convergence on MAX density matrix=1.00D-06.
 Requested convergence on             energy=1.00D-06.
 No special actions if energy rises.
 SCF Done:  E(RM062X) =  -271.646316441     A.U. after    9 cycles
            NFock=  9  Conv=0.81D-08     -V/T= 2.0088
 Calling FoFJK, ICntrl=      2127 FMM=F ISym2X=0 I1Cent= 0 IOpClX= 0 NMat=1 NMatS=1 NMatT=0.
 ***** Axes restored to original set *****
 -------------------------------------------------------------------
 Center     Atomic                   Forces (Hartrees/Bohr)
 Number     Number              X              Y              Z
 -------------------------------------------------------------------
      1        6          -0.000434680    0.000252819    0.000289171
      2        6          -0.000078636   -0.000253525   -0.000106631
      3        6           0.000329557    0.000954238   -0.000213692
      4        8           0.000053573   -0.000218026   -0.000234830
      5        6           0.000333092   -0.000309245    0.000903022
      6        6          -0.000075488   -0.000074919   -0.000255300
      7        1           0.000099369   -0.000003318   -0.000005910
      8        1           0.000014065    0.000116541    0.000128093
      9        1          -0.000075944   -0.000024736   -0.000248054
     10        1          -0.000029193    0.000060193   -0.000019115
     11        1          -0.000005973   -0.000016309   -0.000127055
     12        1          -0.000013465   -0.000169526    0.000069086
     13        1          -0.000002993   -0.000129831   -0.000025617
     14        1          -0.000014750    0.000084140   -0.000160654
     15        1          -0.000068393   -0.000244979   -0.000048024
     16        1          -0.000030142   -0.000023518    0.000055510
 -------------------------------------------------------------------
 Cartesian Forces:  Max     0.000954238 RMS     0.000248847

 GradGradGradGradGradGradGradGradGradGradGradGradGradGradGradGradGradGrad
 Berny optimization.
 Using GEDIIS/GDIIS optimizer.
 FormGI is forming the generalized inverse of G from B-inverse, IUseBI=4.
 Internal  Forces:  Max     0.000564475 RMS     0.000138687
 Search for a local minimum.
 Step number   3 out of a maximum of   99
 All quantities printed in internal units (Hartrees-Bohrs-Radians)
 Mixed Optimization -- En-DIIS/RFO-DIIS
 Swapping is turned off.
 Update second derivatives using D2CorX and points    1    2    3
 DE= -7.58D-05 DEPred=-7.27D-05 R= 1.04D+00
 TightC=F SS=  1.41D+00  RLast= 7.58D-02 DXNew= 6.7528D-01 2.2741D-01
 Trust test= 1.04D+00 RLast= 7.58D-02 DXMaxT set to 4.02D-01
 ITU=  1  1  0
     Eigenvalues ---    0.00598   0.00717   0.01355   0.02646   0.03070
     Eigenvalues ---    0.04168   0.04701   0.04839   0.05188   0.05195
     Eigenvalues ---    0.05756   0.06145   0.06424   0.07438   0.07901
     Eigenvalues ---    0.07941   0.08121   0.08948   0.10712   0.11407
     Eigenvalues ---    0.11698   0.12056   0.12393   0.16767   0.17954
     Eigenvalues ---    0.22977   0.28607   0.29104   0.29390   0.30263
     Eigenvalues ---    0.33199   0.34012   0.34026   0.34054   0.34086
     Eigenvalues ---    0.34192   0.34248   0.34271   0.34284   0.34390
     Eigenvalues ---    0.40014   0.40286
 En-DIIS/RFO-DIIS IScMMF=        0 using points:     3    2
 RFO step:  Lambda=-3.79629807D-06.
 DidBck=F Rises=F RFO-DIIS coefs:    1.05488   -0.05488
 Iteration  1 RMS(Cart)=  0.00252913 RMS(Int)=  0.00000467
 Iteration  2 RMS(Cart)=  0.00000447 RMS(Int)=  0.00000132
 Iteration  3 RMS(Cart)=  0.00000000 RMS(Int)=  0.00000132
 Variable       Old X    -DE/DX   Delta X   Delta X   Delta X     New X
                                 (Linear)    (Quad)   (Total)
    R1        2.89443  -0.00038  -0.00001  -0.00129  -0.00130   2.89313
    R2        2.89442  -0.00038  -0.00001  -0.00129  -0.00130   2.89312
    R3        2.07037  -0.00007  -0.00004  -0.00023  -0.00027   2.07010
    R4        2.07844  -0.00007  -0.00002  -0.00018  -0.00020   2.07824
    R5        2.88174   0.00035   0.00003   0.00129   0.00131   2.88306
    R6        2.07414  -0.00003  -0.00001  -0.00009  -0.00010   2.07404
    R7        2.07233  -0.00006   0.00000  -0.00017  -0.00017   2.07215
    R8        2.67671  -0.00056  -0.00002  -0.00161  -0.00163   2.67508
    R9        2.06612  -0.00012   0.00001  -0.00039  -0.00039   2.06573
   R10        2.08716   0.00001   0.00015   0.00022   0.00037   2.08753
   R11        2.67667  -0.00056  -0.00002  -0.00159  -0.00160   2.67507
   R12        2.88184   0.00034   0.00003   0.00123   0.00126   2.88310
   R13        2.06613  -0.00013   0.00001  -0.00041  -0.00040   2.06573
   R14        2.08716   0.00001   0.00015   0.00022   0.00037   2.08753
   R15        2.07415  -0.00003  -0.00001  -0.00010  -0.00011   2.07404
   R16        2.07232  -0.00006   0.00000  -0.00017  -0.00017   2.07215
    A1        1.91480   0.00005  -0.00001  -0.00043  -0.00045   1.91435
    A2        1.93368   0.00002   0.00011   0.00120   0.00130   1.93498
    A3        1.90736  -0.00006  -0.00012  -0.00121  -0.00133   1.90602
    A4        1.93367   0.00002   0.00011   0.00120   0.00131   1.93498
    A5        1.90739  -0.00006  -0.00012  -0.00123  -0.00135   1.90603
    A6        1.86610   0.00003   0.00003   0.00043   0.00046   1.86656
    A7        1.92052  -0.00012  -0.00022  -0.00108  -0.00130   1.91922
    A8        1.91719  -0.00015   0.00004  -0.00173  -0.00169   1.91550
    A9        1.93868   0.00006   0.00016   0.00032   0.00049   1.93916
   A10        1.89493   0.00023   0.00020   0.00225   0.00245   1.89738
   A11        1.91409   0.00000  -0.00021   0.00006  -0.00015   1.91395
   A12        1.87746  -0.00001   0.00004   0.00026   0.00029   1.87775
   A13        1.94741   0.00013  -0.00001   0.00085   0.00084   1.94825
   A14        1.94896  -0.00007   0.00006  -0.00066  -0.00059   1.94836
   A15        1.91865  -0.00010  -0.00048  -0.00083  -0.00131   1.91734
   A16        1.85189  -0.00006   0.00051  -0.00053  -0.00002   1.85187
   A17        1.90552   0.00011  -0.00002   0.00179   0.00177   1.90729
   A18        1.88925   0.00000  -0.00003  -0.00059  -0.00062   1.88863
   A19        1.95522  -0.00010   0.00055  -0.00054   0.00002   1.95524
   A20        1.94745   0.00013  -0.00001   0.00083   0.00082   1.94826
   A21        1.85193  -0.00007   0.00052  -0.00057  -0.00005   1.85188
   A22        1.90553   0.00011  -0.00003   0.00180   0.00177   1.90730
   A23        1.94889  -0.00007   0.00007  -0.00063  -0.00056   1.94832
   A24        1.91864  -0.00010  -0.00049  -0.00081  -0.00130   1.91734
   A25        1.88925   0.00000  -0.00002  -0.00058  -0.00060   1.88864
   A26        1.92059  -0.00012  -0.00022  -0.00112  -0.00134   1.91924
   A27        1.91717  -0.00015   0.00004  -0.00172  -0.00168   1.91549
   A28        1.93865   0.00006   0.00017   0.00034   0.00051   1.93916
   A29        1.89496   0.00023   0.00019   0.00223   0.00242   1.89738
   A30        1.91404   0.00000  -0.00020   0.00009  -0.00012   1.91393
   A31        1.87746  -0.00001   0.00004   0.00026   0.00030   1.87775
    D1       -0.91142  -0.00001  -0.00081  -0.00238  -0.00320  -0.91462
    D2        1.17383   0.00010  -0.00068  -0.00136  -0.00204   1.17178
    D3       -3.03440   0.00003  -0.00051  -0.00195  -0.00246  -3.03686
    D4       -3.05188  -0.00008  -0.00102  -0.00440  -0.00542  -3.05730
    D5       -0.96663   0.00003  -0.00089  -0.00337  -0.00426  -0.97089
    D6        1.10833  -0.00004  -0.00071  -0.00396  -0.00468   1.10365
    D7        1.17953  -0.00009  -0.00104  -0.00490  -0.00594   1.17359
    D8       -3.01841   0.00002  -0.00092  -0.00387  -0.00479  -3.02319
    D9       -0.94345  -0.00006  -0.00074  -0.00446  -0.00520  -0.94865
   D10        0.91130   0.00001   0.00081   0.00246   0.00327   0.91457
   D11       -1.17402  -0.00010   0.00069   0.00148   0.00217  -1.17185
   D12        3.03424  -0.00002   0.00052   0.00204   0.00256   3.03679
   D13        3.05176   0.00008   0.00101   0.00448   0.00549   3.05725
   D14        0.96644  -0.00003   0.00089   0.00350   0.00439   0.97083
   D15       -1.10849   0.00004   0.00072   0.00406   0.00478  -1.10371
   D16       -1.17964   0.00009   0.00104   0.00496   0.00601  -1.17363
   D17        3.01823  -0.00002   0.00092   0.00398   0.00490   3.02313
   D18        0.94330   0.00006   0.00074   0.00455   0.00529   0.94859
   D19        0.98346   0.00003  -0.00011   0.00092   0.00081   0.98427
   D20        3.05277  -0.00001   0.00057   0.00038   0.00095   3.05372
   D21       -1.13322  -0.00012   0.00026  -0.00135  -0.00109  -1.13431
   D22       -1.11530   0.00015  -0.00015   0.00230   0.00215  -1.11315
   D23        0.95400   0.00011   0.00054   0.00176   0.00229   0.95630
   D24        3.05120   0.00000   0.00022   0.00003   0.00025   3.05145
   D25        3.12102   0.00003  -0.00019   0.00066   0.00047   3.12149
   D26       -1.09286  -0.00001   0.00049   0.00012   0.00061  -1.09225
   D27        1.00434  -0.00012   0.00018  -0.00161  -0.00143   1.00290
   D28       -1.06073   0.00000   0.00064   0.00114   0.00178  -1.05895
   D29        3.09606   0.00004   0.00024   0.00178   0.00203   3.09808
   D30        1.06356   0.00002   0.00001   0.00187   0.00188   1.06544
   D31        1.06058   0.00001  -0.00064  -0.00104  -0.00168   1.05889
   D32       -3.09625  -0.00004  -0.00024  -0.00169  -0.00193  -3.09818
   D33       -1.06373  -0.00002   0.00000  -0.00178  -0.00178  -1.06552
   D34       -0.98319  -0.00004   0.00011  -0.00109  -0.00097  -0.98417
   D35        1.11560  -0.00015   0.00014  -0.00248  -0.00234   1.11326
   D36       -3.12073  -0.00003   0.00018  -0.00084  -0.00066  -3.12138
   D37       -3.05253   0.00001  -0.00058  -0.00050  -0.00108  -3.05361
   D38       -0.95373  -0.00011  -0.00055  -0.00190  -0.00245  -0.95618
   D39        1.09312   0.00001  -0.00050  -0.00026  -0.00076   1.09236
   D40        1.13352   0.00012  -0.00027   0.00118   0.00092   1.13444
   D41       -3.05087   0.00000  -0.00023  -0.00021  -0.00045  -3.05132
   D42       -1.00401   0.00012  -0.00019   0.00143   0.00123  -1.00278
         Item               Value     Threshold  Converged?
 Maximum Force            0.000564     0.000450     NO 
 RMS     Force            0.000139     0.000300     YES
 Maximum Displacement     0.007893     0.001800     NO 
 RMS     Displacement     0.002530     0.001200     NO 
 Predicted change in Energy=-5.588229D-06
 GradGradGradGradGradGradGradGradGradGradGradGradGradGradGradGradGradGrad

                          Input orientation:                          
 ---------------------------------------------------------------------
 Center     Atomic      Atomic             Coordinates (Angstroms)
 Number     Number       Type             X           Y           Z
 ---------------------------------------------------------------------
      1          6           0       -0.452775   -0.949466   -1.048806
      2          6           0       -0.509185   -1.291916    0.442314
      3          6           0        0.545520   -0.491928    1.200748
      4          8           0        0.392451    0.900196    0.994687
      5          6           0        0.525132    1.252660   -0.369882
      6          6           0       -0.530880    0.568424   -1.232630
      7          1           0       -1.259273   -1.450667   -1.595041
      8          1           0        0.495092   -1.316474   -1.468707
      9          1           0       -1.498901   -1.039108    0.843723
     10          1           0       -0.348569   -2.363959    0.607596
     11          1           0        0.471245   -0.648678    2.280034
     12          1           0        1.555438   -0.799865    0.875869
     13          1           0        0.436205    2.341364   -0.411894
     14          1           0        1.534720    0.974902   -0.721850
     15          1           0       -1.521870    0.928415   -0.927796
     16          1           0       -0.385950    0.846901   -2.283267
 ---------------------------------------------------------------------
                    Distance matrix (angstroms):
                    1          2          3          4          5
     1  C    0.000000
     2  C    1.530978   0.000000
     3  C    2.503283   1.525649   0.000000
     4  O    2.882971   2.433807   1.415592   0.000000
     5  C    2.503317   2.864322   2.347526   1.415586   0.000000
     6  C    1.530974   2.503352   2.864316   2.433835   1.525671
     7  H    1.095452   2.176844   3.463075   3.868002   3.463104
     8  H    1.099756   2.158975   2.794352   3.315490   2.794417
     9  H    2.164274   1.097533   2.146282   2.713098   3.289642
    10  H    2.180669   1.096536   2.157713   3.369520   3.846914
    11  H    3.467775   2.179957   1.093136   2.014284   3.261909
    12  H    2.785619   2.166276   1.104674   2.063217   2.612716
    13  H    3.467781   3.850215   3.261917   2.014286   1.093138
    14  H    2.785718   3.266693   2.612754   2.063215   1.104671
    15  H    2.164265   2.798679   3.289707   2.713182   2.146303
    16  H    2.180664   3.466774   3.846876   3.369530   2.157719
                    6          7          8          9         10
     6  C    0.000000
     7  H    2.176838   0.000000
     8  H    2.158979   1.764020   0.000000
     9  H    2.798654   2.484828   3.065986   0.000000
    10  H    3.466776   2.552468   2.473867   1.770382   0.000000
    11  H    3.850247   4.319038   3.807831   2.469190   2.532061
    12  H    3.266604   3.801518   2.624549   3.063863   2.478630
    13  H    2.179949   4.319025   3.807900   4.092529   4.878042
    14  H    2.166292   3.801610   2.624695   3.963597   4.057363
    15  H    1.097533   2.484794   3.065982   2.647631   3.817563
    16  H    1.096537   2.552483   2.473850   3.817559   4.320661
                   11         12         13         14         15
    11  H    0.000000
    12  H    1.780452   0.000000
    13  H    4.023438   3.574679   0.000000
    14  H    3.574674   2.388081   1.780457   0.000000
    15  H    4.092665   3.963582   2.469137   3.063872   0.000000
    16  H    4.878038   4.057212   2.532073   2.478584   1.770384
                   16
    16  H    0.000000
 Stoichiometry    C5H10O
 Framework group  C1[X(C5H10O)]
 Deg. of freedom    42
 Full point group                 C1      NOp   1
 Largest Abelian subgroup         C1      NOp   1
 Largest concise Abelian subgroup C1      NOp   1
                         Standard orientation:                         
 ---------------------------------------------------------------------
 Center     Atomic      Atomic             Coordinates (Angstroms)
 Number     Number       Type             X           Y           Z
 ---------------------------------------------------------------------
      1          6           0        0.000150    1.442448    0.239591
      2          6           0        1.251743    0.694019   -0.226526
      3          6           0        1.173685   -0.768381    0.201140
      4          8           0       -0.000128   -1.392309   -0.285457
      5          6           0       -1.173841   -0.768176    0.201103
      6          6           0       -1.251609    0.694284   -0.226488
      7          1           0        0.000251    2.472678   -0.132755
      8          1           0        0.000179    1.498563    1.337914
      9          1           0        1.323857    0.737474   -1.320825
[...]
 ! D14   D(7,1,6,15)            55.6243         -DE/DX =    0.0                 !
 ! D15   D(7,1,6,16)           -63.2382         -DE/DX =    0.0                 !
 ! D16   D(8,1,6,5)            -67.2442         -DE/DX =    0.0                 !
 ! D17   D(8,1,6,15)           173.2128         -DE/DX =    0.0                 !
 ! D18   D(8,1,6,16)            54.3503         -DE/DX =    0.0                 !
 ! D19   D(1,2,3,4)             56.3946         -DE/DX =    0.0                 !
 ! D20   D(1,2,3,11)           174.9652         -DE/DX =    0.0                 !
 ! D21   D(1,2,3,12)           -64.9913         -DE/DX =    0.0                 !
 ! D22   D(9,2,3,4)            -63.7788         -DE/DX =    0.0                 !
 ! D23   D(9,2,3,11)            54.7918         -DE/DX =    0.0                 !
 ! D24   D(9,2,3,12)           174.8353         -DE/DX =    0.0                 !
 ! D25   D(10,2,3,4)           178.8481         -DE/DX =    0.0                 !
 ! D26   D(10,2,3,11)          -62.5813         -DE/DX =    0.0                 !
 ! D27   D(10,2,3,12)           57.4622         -DE/DX =    0.0                 !
 ! D28   D(2,3,4,5)            -60.6736         -DE/DX =    0.0                 !
 ! D29   D(11,3,4,5)           177.5072         -DE/DX =    0.0                 !
 ! D30   D(12,3,4,5)            61.0455         -DE/DX =    0.0                 !
 ! D31   D(3,4,5,6)             60.6701         -DE/DX =    0.0                 !
 ! D32   D(3,4,5,13)          -177.5126         -DE/DX =    0.0                 !
 ! D33   D(3,4,5,14)           -61.0497         -DE/DX =    0.0                 !
 ! D34   D(4,5,6,1)            -56.3886         -DE/DX =    0.0                 !
 ! D35   D(4,5,6,15)            63.7852         -DE/DX =    0.0                 !
 ! D36   D(4,5,6,16)          -178.842          -DE/DX =    0.0                 !
 ! D37   D(13,5,6,1)          -174.9588         -DE/DX =    0.0                 !
 ! D38   D(13,5,6,15)          -54.785          -DE/DX =    0.0                 !
 ! D39   D(13,5,6,16)           62.5878         -DE/DX =    0.0                 !
 ! D40   D(14,5,6,1)            64.9985         -DE/DX =    0.0                 !
 ! D41   D(14,5,6,15)         -174.8277         -DE/DX =    0.0                 !
 ! D42   D(14,5,6,16)          -57.4549         -DE/DX =    0.0                 !
 --------------------------------------------------------------------------------
 GradGradGradGradGradGradGradGradGradGradGradGradGradGradGradGradGradGrad

 1\1\GINC-KATANA3\Freq\RM062X\6-31+G(d)\C5H10O1\Z5358697\18-Mar-2025\0\
 \#N Geom=AllCheck Guess=TCheck SCRF=Check GenChk RM062X/6-31+G(d) Freq
 \\tetrahydropyran\\0,1\C,-0.4527748255,-0.9494660518,-1.0488058495\C,-
 0.5091845414,-1.2919163035,0.4423144523\C,0.5455198119,-0.4919275399,1
 .2007476228\O,0.3924505282,0.9001962549,0.9946869787\C,0.5251315116,1.
 2526596515,-0.369882445\C,-0.5308795075,0.5684236131,-1.2326296113\H,-
 1.2592734831,-1.4506666117,-1.5950406506\H,0.4950917267,-1.316474251,-
 1.4687065293\H,-1.4989006572,-1.0391076048,0.84372331\H,-0.3485688713,
 -2.363959423,0.6075955787\H,0.4712453198,-0.6486784041,2.2800342277\H,
 1.555437834,-0.7998646321,0.875869387\H,0.4362050581,2.341363911,-0.41
 18937191\H,1.5347196177,0.9749015008,-0.7218497907\H,-1.5218696407,0.9
 284147781,-0.9277959971\H,-0.3859498812,0.8469011125,-2.2832669647\\Ve
 rsion=ES64L-G09RevD.01\State=1-A\HF=-271.6463216\RMSD=2.190e-09\RMSF=5
 .016e-05\ZeroPoint=0.1483832\Thermal=0.1537565\Dipole=-0.0127732,-0.42
 79317,-0.4751476\DipoleDeriv=0.124263,-0.0370116,-0.0420272,-0.0086224
 ,0.078137,0.0274385,-0.0104877,0.0278109,0.0845509,0.0512893,-0.069435
 5,-0.0725121,-0.0444332,0.0393713,0.0110541,-0.0519741,-0.061764,0.020
 9102,0.4378512,-0.0415388,0.060894,-0.0468776,0.787993,-0.1450874,0.00
 09665,-0.0390278,0.3181855,-0.5012456,-0.0222814,-0.0325627,-0.0133444
 ,-0.9145022,0.2108307,-0.0226392,0.2109394,-0.8695577,0.4360706,0.0638
 812,-0.0300347,0.0060816,0.3434025,-0.086402,-0.0402334,-0.1932884,0.7
 645897,0.0512846,-0.0644087,-0.0760116,-0.0474484,0.02496,-0.063575,-0
 .0499533,0.0097943,0.0353351,-0.0517242,-0.0939981,-0.1034502,-0.07295
 16,-0.0275949,-0.0539823,-0.0800755,-0.0537047,-0.0367598,-0.118436,0.
 0905573,0.1020399,0.0461648,-0.006275,-0.0013867,0.0527325,-0.0019619,
 -0.00842,-0.1286066,0.0116726,0.0598685,0.0619117,0.0467143,-0.0350588
 ,0.0414234,-0.0116771,-0.0161863,0.0527891,0.0392731,-0.0152916,0.0050
 422,-0.1718688,0.0641793,-0.0097057,0.0465429,0.0191692,0.0518493,-0.0
 121858,0.0097778,-0.0099896,0.0059164,0.0168018,-0.0241926,0.0516099,-
 0.1673334,-0.1908774,0.0762846,0.0172647,0.02188,-0.053525,0.0193007,0
 .1043002,-0.0528651,0.020133,0.051679,0.0138956,-0.0119927,-0.0197251,
 -0.1726713,0.0329289,-0.0129083,-0.0022798,0.0114182,-0.1909791,0.0067
 225,0.0798098,0.0981322,0.024214,-0.0449668,0.0338764,0.0276772,-0.057
 5143,-0.1287938,0.0563148,0.0200565,0.0329844,-0.0094694,-0.0178546,0.
 068388,-0.0408871,0.040171,0.0535867,-0.0177418,0.0341717,-0.0088046,0
 .0051981,0.0657797,0.0004828,0.0830813,-0.1586914\Polar=56.3456064,1.0
 041477,61.1007046,1.2147223,-3.2442914,60.3903786\PG=C01 [X(C5H10O1)]\
 NImag=0\\0.60871675,0.01506924,0.50167549,0.01475594,0.05123207,0.5120
 7788,-0.08358819,-0.00165771,0.00670328,0.56357901,-0.00116780,-0.0866
 9063,0.02379291,-0.03760016,0.59722926,0.00712651,0.02543003,-0.193544
 72,-0.03511038,-0.01420720,0.47941105,0.00121939,0.00065994,-0.0059408
 9,-0.15033743,-0.03692296,-0.04460957,0.54983297,0.00618138,0.00837115
 ,-0.00207872,-0.04437675,-0.10241110,-0.02915328,-0.02119813,0.4751396
 6,-0.02860849,-0.01947028,-0.02620882,-0.04304719,-0.02345862,-0.11611
 361,-0.03464094,-0.02138742,0.65080673,0.00207020,0.00254930,0.0027401
 3,0.00808019,-0.02667809,0.00414702,-0.06991451,0.02178652,0.00575528,
 0.11810430,0.00258605,-0.00023754,0.00523265,0.00172032,-0.04369440,0.
 00237116,0.02485393,-0.24070572,-0.00452352,-0.02910001,0.43273104,0.0
 0278080,0.00523281,0.00079783,0.00268834,-0.01516635,0.00761555,-0.002
 46429,0.03235321,-0.09581107,-0.02723219,-0.08618552,0.41529672,0.0017
 1185,-0.00571221,0.00037800,-0.00040644,-0.00131971,0.00086580,-0.0018
 2729,0.00229236,-0.00337123,-0.06939220,-0.00410787,0.02238994,0.55009
 972,-0.02903081,-0.02403569,-0.02249101,-0.00100918,0.00202382,-0.0002
 5588,-0.00278448,-0.02275592,0.04638405,0.00395989,-0.10030493,0.01051
 584,-0.03361676,0.65247524,0.00327602,-0.00532921,0.00571367,0.0010410
 6,-0.00387729,0.00169147,0.00148077,0.02218696,-0.01552095,0.01972025,
 0.04745693,-0.23675025,-0.02558687,-0.00259957,0.47319783,-0.08380869,
 0.00844485,-0.00111321,0.00158557,-0.00108699,0.00051887,-0.00045713,0
 .00106193,-0.00086727,0.00767330,0.00237253,0.00128551,-0.15032779,-0.
 03894986,-0.04773787,0.56341551,0.00883063,-0.19730140,0.01367059,0.00
 088534,-0.01029518,0.00878098,0.00096361,0.00215208,-0.00026670,0.0069
 9894,0.00850767,0.00779176,-0.04134618,-0.11151393,-0.03014468,-0.0302
 6225,0.48286506,-0.00056180,0.01204596,-0.08272070,-0.00159874,0.03811
 854,-0.00535771,-0.00114770,-0.00389594,0.00161466,-0.02657328,-0.0100
 5555,-0.04417422,-0.04056346,-0.02438175,-0.10699507,-0.04039729,-0.02
 633425,0.59390752,-0.19753352,-0.08972816,-0.09771646,0.00233622,0.002
 24417,0.00275736,0.00068762,0.00005391,0.00018778,-0.00019232,-0.00007
 479,-0.00005446,0.00065620,0.00030702,0.00001651,0.00272602,0.00275453
 ,0.00275123,0.20992201,-0.08904160,-0.10223511,-0.05990135,0.00748954,
 0.00452995,0.00372176,0.00010597,-0.00072881,0.00244039,0.00014355,0.0
 0144828,-0.00063144,0.00266069,-0.00751069,0.00371649,-0.02622745,-0.0
 1530237,-0.01731643,0.09758985,0.11192749,-0.09695368,-0.05989234,-0.1
 1253263,-0.02560969,-0.01560058,-0.01646255,0.00253648,0.00446295,-0.0
 0689723,0.00018810,-0.00062866,0.00131444,0.00033952,0.00172483,-0.000
 08288,0.00475380,0.00169899,0.00297893,0.10636689,0.06380509,0.1228336
 5,-0.24131455,0.07186878,0.08234998,-0.00182286,-0.00025842,0.00093820
 ,0.00052651,-0.00033637,-0.00073985,0.00001434,0.00017264,0.00019094,0
 .00051096,-0.00071796,-0.00042132,-0.00228778,0.00113188,0.00004405,-0
 .02091652,0.00830148,0.00948407,0.26096304,0.07168889,-0.07567312,-0.0
 3371696,-0.00832492,0.00242601,0.00404386,0.00046748,-0.00038277,-0.00
 053108,-0.00059142,-0.00007098,-0.00000767,0.00214298,0.00160515,-0.00
 015938,0.03039057,-0.01311664,-0.01267679,-0.01290154,0.00516606,0.006
 51941,-0.08051386,0.08470813,0.08215023,-0.03371968,-0.08466595,0.0296
 8141,-0.01064691,-0.01439404,0.00222044,-0.00033609,0.00151760,-0.0006
 5790,-0.00001750,-0.00006824,0.00068966,-0.00030682,-0.00045558,-0.005
 16239,0.00228817,0.00161555,-0.01406594,0.00624494,0.00656515,-0.09208
 656,0.03362592,0.09391200,0.00003044,0.00037241,0.00013578,-0.26197867
 ,0.05542398,0.08638635,-0.02470497,0.00738835,0.00787684,0.00348615,0.
 00007432,0.00061514,-0.00020161,-0.00016166,-0.00001565,0.00001592,-0.
 00005637,-0.00021656,0.00062237,-0.00016618,0.00037792,0.00125728,0.00
 006914,-0.00025258,0.28592009,-0.00641754,0.00103565,0.00218105,0.0572
 2432,-0.06583868,-0.02144968,-0.01745581,0.00299564,0.00591534,0.00091
 105,0.00206560,0.00002937,-0.00024122,-0.00019734,0.00047073,-0.001131
 89,0.00060801,0.00033338,0.00021135,0.00013141,-0.00051486,-0.00051075
 ,0.00046527,0.00148715,-0.06042895,0.06567437,0.03089411,-0.00826239,-
 0.01400745,0.08721096,-0.02191319,-0.08238288,-0.01858960,0.00467374,0
 .00622947,0.00175556,0.00099600,0.00019430,-0.00005497,0.00011156,-0.0
 0040193,0.00050608,-0.00131924,0.00124980,-0.00035848,-0.00057394,0.00
 120532,0.00004448,0.00221530,-0.00648731,-0.09289966,0.02460173,0.0933
 2231,-0.00079219,-0.00175307,0.00115463,-0.05726166,0.03984557,-0.0064
 0298,0.00550882,-0.02183214,0.00616908,-0.00303110,-0.00522567,-0.0024
 4545,-0.00005499,0.00037396,-0.00135109,0.00065350,0.00018740,-0.00007
 109,-0.00019379,0.00039138,-0.00005773,0.00030376,-0.00042394,-0.00020
 254,-0.00322658,0.02920669,-0.00470818,0.05656551,0.00092002,-0.004688
 40,0.00035018,0.03814801,-0.30197145,0.03620078,0.00658003,-0.01512155
 ,0.00455449,-0.00422102,-0.00293514,-0.00187804,0.00054206,0.00089620,
 -0.00133867,-0.00022288,0.00142949,0.00180714,0.00018612,0.00028977,0.
 00029317,-0.00036811,0.00030639,0.00024469,0.00084905,-0.00622616,0.00
 064208,-0.04187960,0.32754684,-0.00468909,0.03403934,-0.00360135,-0.00
 643263,0.03620310,-0.05260289,0.00608238,-0.01489629,0.00353613,-0.003
 74328,-0.00476150,-0.00041975,-0.00048604,-0.00013249,-0.00182527,0.00
 078729,-0.00023227,-0.00734170,-0.00048731,-0.00054194,0.00129585,0.00
 041371,-0.00032720,0.00126607,0.00086411,-0.01177038,0.00113779,0.0068
 4597,-0.04067753,0.05779288,-0.00345179,-0.00314331,-0.00115472,0.0020
 6129,0.00321023,-0.02506009,-0.05445747,-0.00296030,0.02441228,0.00113
 887,0.00234115,-0.00508506,0.00000575,0.00018598,0.00029271,0.00013341
 ,-0.00021236,0.00013836,0.00020914,0.00024841,-0.00145242,0.00022560,-
 0.00010893,-0.00031774,0.00090793,0.00085842,0.00028870,0.00067212,0.0
 0006986,0.00071921,0.05295196,-0.00359594,-0.00205316,-0.00131394,0.00
 271475,0.00464432,-0.01755113,-0.00070968,-0.04952115,0.02232078,-0.00
 313260,-0.01746777,0.04340256,0.00161404,-0.00612480,-0.00180628,-0.00
 024333,-0.00060758,0.00045576,-0.00022257,0.00048378,-0.00136137,-0.00
 001585,-0.00009194,0.00041033,0.00018040,0.00047775,0.00074652,0.00070
 163,0.00023159,0.00052880,0.00312197,0.06753013,-0.00298372,-0.0024868
 6,0.00015878,0.00223487,0.00120015,-0.01365454,0.02181232,0.03429389,-
 0.31904671,0.00053758,0.00598676,-0.00409458,-0.00066500,0.00075770,0.
 00252810,0.00026902,-0.00021624,0.00042878,0.00002164,0.00044952,-0.00
 096420,0.00005463,-0.00004545,0.00032771,-0.00015368,0.00038288,0.0007
 1209,-0.00008823,-0.00048144,-0.00005729,-0.02182033,-0.04013165,0.341
 66076,0.00070183,0.00072562,0.00158603,-0.02310624,0.00463360,0.008355
 67,-0.25678061,0.05178660,0.06791858,-0.00013639,0.01224827,-0.0005893
 1,0.00085369,-0.00137130,0.00125811,0.00009597,0.00017508,-0.00028460,
 0.00050610,-0.00030603,-0.00002085,0.00037529,0.00003913,-0.00132676,-
 0.00233207,-0.00284616,-0.00293885,0.00032043,-0.00044529,0.00011528,-
 0.00120814,-0.00027546,0.00094288,0.28048566,0.00025223,-0.00003658,0.
 00088553,-0.01708199,0.00608667,0.00474305,0.05042717,-0.05986754,-0.0
 1486383,0.03595791,-0.03310942,-0.00447024,0.00296126,0.00168079,-0.00
 692748,-0.00043728,-0.00017200,0.00064123,0.00017734,-0.00009929,0.000
 12295,0.00040110,-0.00008249,-0.00026957,-0.00301185,-0.00121795,-0.00
 268657,0.00083879,0.00059151,0.00056111,-0.00367162,0.00263579,0.00023
 587,-0.06475896,0.08268759,-0.00074344,0.00052430,0.00157340,-0.015878
 62,0.00310710,0.00445451,0.06882832,-0.01737451,-0.07960960,-0.0042814
 8,0.00180288,0.00314099,-0.00330049,0.00140547,0.00188487,0.00004387,-
 0.00011698,-0.00033228,0.00027755,-0.00008790,0.00016499,0.00017721,-0
 .00021543,-0.00004629,-0.00281141,-0.00157345,-0.00101813,0.00080682,0
 .00028801,0.00050289,0.02956002,-0.00775268,-0.00770899,-0.07324517,0.
 02070688,0.07622650,-0.00348891,-0.00088347,-0.00320580,0.00012275,0.0
 0016293,-0.00020337,0.00003292,0.00022840,0.00012247,0.00117038,-0.004
 65175,0.00155268,-0.05508952,0.02798601,-0.00036622,0.00240448,-0.0252
 9744,0.00058235,0.00022597,-0.00147374,0.00009294,0.00022687,-0.000300
 15,-0.00014463,0.00000588,0.00001828,0.00007009,-0.00000784,0.00002359
 ,0.00003619,0.00041170,-0.00001376,-0.00010372,0.00040788,-0.00051198,
 -0.00000566,0.05359844,-0.00266818,0.00048509,-0.00222646,0.00028828,0
 .00039831,-0.00011693,-0.00084309,0.00253492,0.00168158,0.00107822,-0.
 00943308,0.00684802,0.02530345,-0.32134255,0.00534853,0.00211522,-0.01
 205488,-0.00054141,0.00006233,-0.00087182,0.00030942,0.00005517,0.0002
 8188,-0.00000829,-0.00005347,-0.00000532,0.00004112,0.00000038,-0.0000
 4917,-0.00003801,-0.00008751,-0.00060508,0.00009231,0.00001118,0.00014
 375,-0.00007795,-0.02596631,0.34639087,-0.00386179,-0.00108215,-0.0023
 4231,-0.00022913,0.00055625,-0.00056637,0.00147461,-0.00087787,-0.0061
 5866,-0.00378756,0.04426685,-0.01216061,0.00175544,-0.00663004,-0.0465
 9744,0.00318649,-0.01894389,0.00270016,-0.00019801,-0.00148757,0.00037
 443,-0.00001901,0.00045326,-0.00004758,0.00002044,-0.00002118,0.000081
 34,0.00018466,0.00007282,0.00027170,-0.00005820,0.00188099,-0.00039579
 ,-0.00033494,0.00008434,0.00012541,0.00106293,-0.01043530,0.06215851,0
 .00070356,0.00150324,0.00087136,0.00009534,-0.00028788,0.00014368,0.00
 089883,0.00129501,-0.00124916,0.00053845,-0.00190869,0.01165673,-0.257
 00516,0.05957799,0.06109822,-0.02316960,0.00752840,0.00579281,0.000501
 20,0.00001732,-0.00031258,0.00039428,-0.00132166,-0.00010313,0.0000189
 2,0.00022245,-0.00016503,-0.00003460,-0.00012916,0.00006090,0.00040531
 ,-0.00032968,-0.00002591,-0.00017246,-0.00155710,0.00035563,-0.0016149
 4,0.00102481,-0.00002279,0.28046534,-0.00076672,0.00141843,0.00069637,
 0.00009391,-0.00038782,-0.00013864,-0.00359494,0.00242868,0.00151305,-
 0.00799040,0.00289310,0.00585182,0.06059340,-0.07444463,-0.01901726,-0
 .01431608,0.00357244,0.00308920,0.00026124,0.00016194,-0.00006789,0.00
 013721,-0.00001177,-0.00020929,0.00021038,-0.00005005,-0.00001012,0.00
 000406,-0.00003550,-0.00004119,0.00005068,0.00012129,-0.00008080,0.000
 49890,0.00065665,-0.00060843,0.02974613,-0.00641360,-0.00909354,-0.063
 12353,0.07030749,0.00015306,0.00102214,0.00011548,-0.00044078,0.000616
 70,-0.00011578,0.00269057,-0.00682736,0.00109150,0.03492973,-0.0001901
 6,-0.03353609,0.05980869,-0.01651161,-0.06481392,-0.01835682,0.0041586
 6,0.00703440,0.00019657,0.00015241,-0.00009151,0.00041456,-0.00024000,
 -0.00013631,-0.00011433,-0.00011538,-0.00014134,0.00015257,0.00016918,
 0.00024752,-0.00051376,0.00007960,0.00015046,-0.00151616,0.00116216,0.
 00072836,-0.00051147,-0.00077680,0.00174755,-0.07456066,0.01937863,0.0
 8863119,-0.00040822,0.00026885,0.00051807,-0.00000240,-0.00022231,-0.0
 0005667,-0.00020602,0.00000957,-0.00016257,0.00346975,0.00064542,0.000
 11179,-0.02470133,0.00674523,0.00844047,-0.26249179,0.07746170,0.06665
 954,0.00062309,0.00037978,-0.00012682,0.00125240,-0.00014620,0.0000180
 8,0.00002299,0.00024698,-0.00051183,0.00016190,0.00001163,-0.00016427,
 0.00000439,0.00002482,-0.00005175,0.00002772,-0.00013510,0.00019642,0.
 00091963,-0.00016281,0.00014986,-0.00233938,-0.00252073,-0.00324733,0.
 28646212,0.03144661,-0.01280315,-0.01011773,0.00058998,0.00135015,-0.0
 0124972,-0.00002520,-0.00046058,0.00008205,0.00170280,0.00013777,0.000
 77199,-0.01698713,0.00496380,0.00519590,0.07808718,-0.07565092,-0.0232
 3289,-0.00039253,0.00130681,-0.00044751,0.00021824,-0.00679710,0.00145
 019,-0.00052450,0.00002451,0.00089404,-0.00055634,0.00018748,-0.000137
 85,0.00006740,0.00007951,0.00004846,-0.00018566,-0.00013144,-0.0000135
 5,0.00021011,0.00059265,0.00075816,-0.00267786,-0.00064373,-0.00263073
 ,-0.08318725,0.08572079,-0.00315443,0.00063994,0.00026969,-0.00107201,
 0.00039926,0.00052586,-0.00025053,0.00043971,-0.00013415,0.00107683,-0
 .00016989,0.00213716,-0.01904786,0.00580862,0.00425836,0.06852883,-0.0
 2273735,-0.07206296,0.00017091,-0.00039347,0.00002946,-0.00051802,0.00
 071908,0.00077998,0.00019170,0.00013063,0.00013630,0.00007472,-0.00007
 207,0.00003419,0.00002557,-0.00001234,-0.00000200,0.00020447,-0.000119
 30,-0.00006875,0.00087512,0.00040839,0.00058598,-0.00311017,-0.0015176
 5,-0.00158494,-0.07263578,0.02699819,0.07273911,-0.00076796,0.00141569
 ,-0.00206212,0.00064352,0.00002384,0.00020360,-0.00002164,-0.00138034,
 0.00024438,-0.00307942,-0.00194585,-0.00540110,0.00516816,0.00850592,-
 0.02114512,-0.05616091,-0.00974292,0.03544618,-0.00017978,-0.00011298,
 0.00039404,0.00029138,-0.00016556,-0.00043965,0.00015594,0.00013277,-0
 .00054339,0.00041671,-0.00006430,0.00007756,-0.00001008,0.00018127,0.0
 0001940,-0.00003866,0.00015009,0.00002042,0.00067430,-0.00015768,0.000
 67698,0.00031489,0.00071649,0.00091556,-0.00279484,-0.00778582,0.02864
 067,0.05538838,-0.00428646,-0.00723102,0.03380483,0.00089629,-0.007399
 24,-0.00116919,-0.00052385,-0.00166699,-0.00039030,-0.00337465,0.00017
 551,-0.00445812,0.00522084,0.00458547,-0.01317571,-0.00959426,-0.06311
 984,0.06194381,-0.00052828,0.00130261,-0.00042359,0.00043480,0.0012678
 9,-0.00023725,-0.00016505,0.00005729,-0.00015664,0.00012091,-0.0004519
 2,0.00222431,0.00002994,0.00026733,-0.00000510,0.00007047,0.00023396,-
 0.00001374,0.00072315,-0.00005197,0.00049888,0.00016634,0.00042708,0.0
 0055254,0.00058042,0.00212345,-0.01052173,0.01022938,0.06948037,0.0004
 1976,0.00007633,-0.00108279,-0.00014076,0.00087612,0.00149664,0.000517
 61,-0.00158297,0.00070471,-0.00457479,-0.00158095,-0.00348219,0.006848
 86,0.00660110,-0.01583101,0.03375507,0.06192245,-0.29254516,0.00013422
 ,0.00040344,0.00026878,-0.00032708,0.00034313,0.00031726,-0.00000441,-
 0.00008733,0.00017033,-0.00006117,-0.00017478,-0.00023677,0.00002548,0
 .00010404,-0.00004257,-0.00012438,0.00019387,-0.00001788,0.00014609,-0
 .00050822,0.00022369,-0.00042990,0.00025575,0.00067345,0.00086280,0.00
 163100,-0.00764328,-0.03704740,-0.06847299,0.31702679\\0.00004972,0.00
 001167,0.00001008,-0.00001868,0.00007134,-0.00001510,-0.00003859,-0.00
 014623,0.00004031,-0.00010206,0.00008721,0.00009651,-0.00003273,0.0000
 5659,-0.00013319,-0.00002265,-0.00002709,0.00006554,-0.00000225,0.0000
 1390,0.00001560,-0.00002772,0.00004584,0.00005142,-0.00000478,-0.00001
 993,-0.00003821,0.00000682,-0.00002004,0.00000522,0.00001097,0.0000380
 7,-0.00003312,0.00008533,-0.00001575,-0.00003400,0.00000970,-0.0000362
 1,0.00003317,0.00008416,-0.00003026,-0.00002032,-0.00000477,-0.0000362
 7,-0.00002422,0.00000753,0.00000715,-0.00001969\\\@


 EDUCATION WITHOUT COMMON SENSE IS A LOAD OF BOOKS ON THE BACK OF AN ASS.
 Job cpu time:       0 days  0 hours  3 minutes 55.0 seconds.
 File lengths (MBytes):  RWF=    133 Int=      0 D2E=      0 Chk=      3 Scr=      2
 Normal termination of Gaussian 09 at Tue Mar 18 19:46:02 2025.
