 Entering Gaussian System, Link 0=g09
 Initial command:
 /apps/z_install_tree/linux-rocky8-ivybridge/gcc-12.2.0/gaussian-09-D.01-wczn3gur5lpur3omlkzwa2l5ecyxp5ef/g09/l1.exe "/srv/scratch/z5358697/gauss/Gau-1923818.inp" -scrdir="/srv/scratch/z5358697/gauss/"
 Entering Link 1 = /apps/z_install_tree/linux-rocky8-ivybridge/gcc-12.2.0/gaussian-09-D.01-wczn3gur5lpur3omlkzwa2l5ecyxp5ef/g09/l1.exe PID=   1923820.
  
 Copyright (c) 1988,1990,1992,1993,1995,1998,2003,2009,2013,
            Gaussian, Inc.  All Rights Reserved.
  
 This is part of the Gaussian(R) 09 program.  It is based on
 the Gaussian(R) 03 system (copyright 2003, Gaussian, Inc.),
 the Gaussian(R) 98 system (copyright 1998, Gaussian, Inc.),
 the Gaussian(R) 94 system (copyright 1995, Gaussian, Inc.),
 the Gaussian 92(TM) system (copyright 1992, Gaussian, Inc.),
 the Gaussian 90(TM) system (copyright 1990, Gaussian, Inc.),
 the Gaussian 88(TM) system (copyright 1988, Gaussian, Inc.),
 the Gaussian 86(TM) system (copyright 1986, Carnegie Mellon
 University), and the Gaussian 82(TM) system (copyright 1983,
 Carnegie Mellon University). Gaussian is a federally registered
 trademark of Gaussian, Inc.
  
 This software contains proprietary and confidential information,
 including trade secrets, belonging to Gaussian, Inc.
  
 This software is provided under written license and may be
 used, copied, transmitted, or stored only in accord with that
 written license.
  
 The following legend is applicable only to US Government
 contracts under FAR:
  
                    RESTRICTED RIGHTS LEGEND
  
 Use, reproduction and disclosure by the US Government is
 subject to restrictions as set forth in subparagraphs (a)
 and (c) of the Commercial Computer Software - Restricted
 Rights clause in FAR 52.227-19.
  
 Gaussian, Inc.
 340 Quinnipiac St., Bldg. 40, Wallingford CT 06492
  
  
 ---------------------------------------------------------------
 Warning -- This program may not be used in any manner that
 competes with the business of Gaussian, Inc. or will provide
 assistance to any competitor of Gaussian, Inc.  The licensee
 of this program is prohibited from giving any competitor of
 Gaussian, Inc. access to this program.  By using this program,
 the user acknowledges that Gaussian, Inc. is engaged in the
 business of creating and licensing software in the field of
 computational chemistry and represents and warrants to the
 licensee that it is not a competitor of Gaussian, Inc. and that
 it will not use this program in any manner prohibited above.
 ---------------------------------------------------------------
  

 Cite this work as:
 Gaussian 09, Revision D.01,
 M. J. Frisch, G. W. Trucks, H. B. Schlegel, G. E. Scuseria, 
 M. A. Robb, J. R. Cheeseman, G. Scalmani, V. Barone, B. Mennucci, 
 G. A. Petersson, H. Nakatsuji, M. Caricato, X. Li, H. P. Hratchian, 
 A. F. Izmaylov, J. Bloino, G. Zheng, J. L. Sonnenberg, M. Hada, 
 M. Ehara, K. Toyota, R. Fukuda, J. Hasegawa, M. Ishida, T. Nakajima, 
 Y. Honda, O. Kitao, H. Nakai, T. Vreven, J. A. Montgomery, Jr., 
 J. E. Peralta, F. Ogliaro, M. Bearpark, J. J. Heyd, E. Brothers, 
 K. N. Kudin, V. N. Staroverov, T. Keith, R. Kobayashi, J. Normand, 
 K. Raghavachari, A. Rendell, J. C. Burant, S. S. Iyengar, J. Tomasi, 
 M. Cossi, N. Rega, J. M. Millam, M. Klene, J. E. Knox, J. B. Cross, 
 V. Bakken, C. Adamo, J. Jaramillo, R. Gomperts, R. E. Stratmann, 
 O. Yazyev, A. J. Austin, R. Cammi, C. Pomelli, J. W. Ochterski, 
 R. L. Martin, K. Morokuma, V. G. Zakrzewski, G. A. Voth, 
 P. Salvador, J. J. Dannenberg, S. Dapprich, A. D. Daniels, 
 O. Farkas, J. B. Foresman, J. V. Ortiz, J. Cioslowski, 
 and D. J. Fox, Gaussian, Inc., Wallingford CT, 2013.
 
 ******************************************
 Gaussian 09:  ES64L-G09RevD.01 24-Apr-2013
                16-Mar-2025 
 ******************************************
 -------------------------------
 #m062X/def2SVP OPT Freq=noraman
 -------------------------------
 1/14=-1,18=20,19=15,26=3,38=1/1,3;
 2/9=110,12=2,17=6,18=5,40=1/2;
 3/5=43,7=101,11=2,16=1,25=1,30=1,71=1,74=-55/1,2,3;
 4//1;
 5/5=2,38=5/2;
 6/7=2,8=2,9=2,10=2,28=1/1;
 7//1,2,3,16;
 1/14=-1,18=20,19=15,26=3/3(2);
 2/9=110/2;
 99//99;
 2/9=110/2;
 3/5=43,7=101,11=2,16=1,25=1,30=1,71=1,74=-55/1,2,3;
 4/5=5,16=3,69=1/1;
 5/5=2,38=5/2;
 7//1,2,3,16;
 1/14=-1,18=20,19=15,26=3/3(-5);
 2/9=110/2;
 6/7=2,8=2,9=2,10=2,19=2,28=1/1;
 99/9=1/99;
 -----------
 iodobenzene
 -----------
 Symbolic Z-matrix:
 Charge =  0 Multiplicity = 1
 C                     1.8851   -1.0363   -0.1124 
 C                     2.921    -1.6309    0.6081 
 C                     2.8783   -1.652     2.0022 
 C                     1.7997   -1.0786    2.6757 
 C                     0.7638   -0.4841    1.9551 
 C                     0.8066   -0.463     0.561 
 I                     1.736    -1.1105    4.7518 
 H                     1.9183   -1.02     -1.1979 
 H                     3.7608   -2.0771    0.0836 
 H                     3.6956   -2.1202    2.5446 
 H                    -0.0855   -0.0318    2.4604 
 H                     0.0001    0.       -0.0002 
 

 GradGradGradGradGradGradGradGradGradGradGradGradGradGradGradGradGradGrad
 Berny optimization.
 Initialization pass.
                           ----------------------------
                           !    Initial Parameters    !
                           ! (Angstroms and Degrees)  !
 --------------------------                            --------------------------
 ! Name  Definition              Value          Derivative Info.                !
 --------------------------------------------------------------------------------
 ! R1    R(1,2)                  1.3949         estimate D2E/DX2                !
 ! R2    R(1,6)                  1.3947         estimate D2E/DX2                !
 ! R3    R(1,8)                  1.0861         estimate D2E/DX2                !
 ! R4    R(2,3)                  1.3949         estimate D2E/DX2                !
 ! R5    R(2,9)                  1.086          estimate D2E/DX2                !
 ! R6    R(3,4)                  1.3949         estimate D2E/DX2                !
 ! R7    R(3,10)                 1.0869         estimate D2E/DX2                !
 ! R8    R(4,5)                  1.3949         estimate D2E/DX2                !
 ! R9    R(4,7)                  2.0773         estimate D2E/DX2                !
 ! R10   R(5,6)                  1.3949         estimate D2E/DX2                !
 ! R11   R(5,11)                 1.0868         estimate D2E/DX2                !
 ! R12   R(6,12)                 1.0862         estimate D2E/DX2                !
 ! A1    A(2,1,6)              120.0052         estimate D2E/DX2                !
 ! A2    A(2,1,8)              119.9947         estimate D2E/DX2                !
 ! A3    A(6,1,8)              120.0001         estimate D2E/DX2                !
 ! A4    A(1,2,3)              119.9958         estimate D2E/DX2                !
 ! A5    A(1,2,9)              119.9958         estimate D2E/DX2                !
 ! A6    A(3,2,9)              120.0084         estimate D2E/DX2                !
 ! A7    A(2,3,4)              119.9999         estimate D2E/DX2                !
 ! A8    A(2,3,10)             118.8314         estimate D2E/DX2                !
 ! A9    A(4,3,10)             121.1688         estimate D2E/DX2                !
 ! A10   A(3,4,5)              119.9999         estimate D2E/DX2                !
 ! A11   A(3,4,7)              119.9962         estimate D2E/DX2                !
 ! A12   A(5,4,7)              120.004          estimate D2E/DX2                !
 ! A13   A(4,5,6)              119.9967         estimate D2E/DX2                !
 ! A14   A(4,5,11)             121.1652         estimate D2E/DX2                !
 ! A15   A(6,5,11)             118.8381         estimate D2E/DX2                !
 ! A16   A(1,6,5)              120.0026         estimate D2E/DX2                !
 ! A17   A(1,6,12)             119.9946         estimate D2E/DX2                !
 ! A18   A(5,6,12)             120.0028         estimate D2E/DX2                !
 ! D1    D(6,1,2,3)             -0.0063         estimate D2E/DX2                !
 ! D2    D(6,1,2,9)           -179.9888         estimate D2E/DX2                !
 ! D3    D(8,1,2,3)           -179.9917         estimate D2E/DX2                !
 ! D4    D(8,1,2,9)              0.0257         estimate D2E/DX2                !
 ! D5    D(2,1,6,5)              0.004          estimate D2E/DX2                !
 ! D6    D(2,1,6,12)           179.9965         estimate D2E/DX2                !
 ! D7    D(8,1,6,5)            179.9894         estimate D2E/DX2                !
 ! D8    D(8,1,6,12)            -0.0181         estimate D2E/DX2                !
 ! D9    D(1,2,3,4)              0.0043         estimate D2E/DX2                !
 ! D10   D(1,2,3,10)          -179.9952         estimate D2E/DX2                !
 ! D11   D(9,2,3,4)            179.9868         estimate D2E/DX2                !
 ! D12   D(9,2,3,10)            -0.0127         estimate D2E/DX2                !
 ! D13   D(2,3,4,5)              0.0            estimate D2E/DX2                !
 ! D14   D(2,3,4,7)            179.985          estimate D2E/DX2                !
 ! D15   D(10,3,4,5)           179.9995         estimate D2E/DX2                !
 ! D16   D(10,3,4,7)            -0.0155         estimate D2E/DX2                !
 ! D17   D(3,4,5,6)             -0.0023         estimate D2E/DX2                !
 ! D18   D(3,4,5,11)           179.9999         estimate D2E/DX2                !
 ! D19   D(7,4,5,6)           -179.9873         estimate D2E/DX2                !
 ! D20   D(7,4,5,11)             0.0149         estimate D2E/DX2                !
 ! D21   D(4,5,6,1)              0.0003         estimate D2E/DX2                !
 ! D22   D(4,5,6,12)          -179.9922         estimate D2E/DX2                !
 ! D23   D(11,5,6,1)           179.9982         estimate D2E/DX2                !
 ! D24   D(11,5,6,12)            0.0057         estimate D2E/DX2                !
 --------------------------------------------------------------------------------
 Trust Radius=3.00D-01 FncErr=1.00D-07 GrdErr=1.00D-06
 Number of steps in this run=     64 maximum allowed number of steps=    100.
 GradGradGradGradGradGradGradGradGradGradGradGradGradGradGradGradGradGrad

                          Input orientation:                          
 ---------------------------------------------------------------------
 Center     Atomic      Atomic             Coordinates (Angstroms)
 Number     Number       Type             X           Y           Z
 ---------------------------------------------------------------------
      1          6           0        1.885100   -1.036300   -0.112400
      2          6           0        2.921000   -1.630900    0.608100
      3          6           0        2.878300   -1.652000    2.002200
      4          6           0        1.799700   -1.078600    2.675700
      5          6           0        0.763800   -0.484100    1.955100
      6          6           0        0.806600   -0.463000    0.561000
      7         53           0        1.736000   -1.110500    4.751800
      8          1           0        1.918300   -1.020000   -1.197900
      9          1           0        3.760800   -2.077100    0.083600
     10          1           0        3.695600   -2.120200    2.544600
     11          1           0       -0.085500   -0.031800    2.460400
     12          1           0        0.000100    0.000000   -0.000200
 ---------------------------------------------------------------------
                    Distance matrix (angstroms):
                    1          2          3          4          5
     1  C    0.000000
     2  C    1.394904   0.000000
     3  C    2.416002   1.394913   0.000000
     4  C    2.789728   2.416054   1.394908   0.000000
     5  C    2.415946   2.789816   2.416054   1.394913   0.000000
     6  C    1.394741   2.415967   2.789753   2.416023   1.394916
     7  I    4.867050   4.341116   3.026280   2.077322   3.026397
     8  H    1.086130   2.154122   3.400245   3.875858   3.400216
     9  H    2.154050   1.086029   2.154192   3.400279   3.875844
    10  H    3.392993   2.142301   1.086917   2.167154   3.408781
    11  H    3.392873   3.876490   3.408681   2.167054   1.086837
    12  H    2.154004   3.400224   3.875919   3.400350   2.154249
                    6          7          8          9         10
     6  C    0.000000
     7  I    4.341180   0.000000
     8  H    2.154032   5.953180   0.000000
     9  H    3.400078   5.179404   2.480828   0.000000
    10  H    3.876506   3.119496   4.286670   2.462241   0.000000
    11  H    2.142311   3.119611   4.286597   4.962505   4.320327
    12  H    1.086166   5.179581   2.480802   4.297003   4.962658
                   11         12
    11  H    0.000000
    12  H    2.462294   0.000000
 Stoichiometry    C6H5I
 Framework group  C1[X(C6H5I)]
 Deg. of freedom    30
 Full point group                 C1      NOp   1
 Largest Abelian subgroup         C1      NOp   1
 Largest concise Abelian subgroup C1      NOp   1
                         Standard orientation:                         
 ---------------------------------------------------------------------
 Center     Atomic      Atomic             Coordinates (Angstroms)
 Number     Number       Type             X           Y           Z
 ---------------------------------------------------------------------
      1          6           0       -3.325773    0.000005   -0.000074
      2          6           0       -2.628362    1.208051   -0.000071
      3          6           0       -1.233449    1.207997    0.000104
      4          6           0       -0.536045   -0.000058    0.000186
      5          6           0       -1.233554   -1.208058    0.000093
      6          6           0       -2.628470   -1.207916   -0.000034
      7         53           0        1.541277   -0.000004   -0.000025
      8          1           0       -4.411903    0.000067   -0.000346
      9          1           0       -3.171478    2.148521    0.000081
     10          1           0       -0.709265    2.160162    0.000182
     11          1           0       -0.709429   -2.160164    0.000153
     12          1           0       -3.171695   -2.148481    0.000022
 ---------------------------------------------------------------------
 Rotational constants (GHZ):      5.6940720      0.7528997      0.6649734
 Standard basis: def2SVP (5D, 7F)
 There are   143 symmetry adapted cartesian basis functions of A   symmetry.
 There are   135 symmetry adapted basis functions of A   symmetry.
   135 basis functions,   252 primitive gaussians,   143 cartesian basis functions
    33 alpha electrons       33 beta electrons
       nuclear repulsion energy       353.4449566533 Hartrees.
 NAtoms=   12 NActive=   12 NUniq=   12 SFac= 1.00D+00 NAtFMM=   60 NAOKFM=F Big=F
 Integral buffers will be    131072 words long.
 Raffenetti 2 integral format.
 Two-electron integral symmetry is turned on.
 One-electron integrals computed using PRISM.
   1 Symmetry operations used in ECPInt.
 ECPInt:  NShTT=    1891 NPrTT=    7385 LenC2=    1880 LenP2D=    5944.
 LDataN:  DoStor=T MaxTD1= 6 Len=  172
 NBasis=   135 RedAO= T EigKep=  2.98D-04  NBF=   135
 NBsUse=   135 1.00D-06 EigRej= -1.00D+00 NBFU=   135
 Defaulting to unpruned grid for atomic number  53.
 ExpMin= 1.11D-01 ExpMax= 1.24D+03 ExpMxC= 1.86D+02 IAcc=1 IRadAn=         1 AccDes= 0.00D+00
 Harris functional with IExCor= 1009 and IRadAn=       1 diagonalized for initial guess.
 HarFok:  IExCor= 1009 AccDes= 0.00D+00 IRadAn=         1 IDoV= 1 UseB2=F ITyADJ=14
 ICtDFT=  3500011 ScaDFX=  1.000000  1.000000  1.000000  1.000000
 Defaulting to unpruned grid for atomic number  53.
 FoFCou: FMM=F IPFlag=           0 FMFlag=      100000 FMFlg1=           0
         NFxFlg=           0 DoJE=T BraDBF=F KetDBF=T FulRan=T
         wScrn=  0.000000 ICntrl=     500 IOpCl=  0 I1Cent=   200000004 NGrid=           0
         NMat0=    1 NMatS0=      1 NMatT0=    0 NMatD0=    1 NMtDS0=    0 NMtDT0=    0
 Petite list used in FoFCou.
 Requested convergence on RMS density matrix=1.00D-08 within 128 cycles.
 Requested convergence on MAX density matrix=1.00D-06.
 Requested convergence on             energy=1.00D-06.
 No special actions if energy rises.
 Integral accuracy reduced to 1.0D-05 until final iterations.
 Defaulting to unpruned grid for atomic number  53.
 Initial convergence to 1.0D-05 achieved.  Increase integral accuracy.
 SCF Done:  E(RM062X) =  -528.992599954     A.U. after   15 cycles
            NFock= 15  Conv=0.53D-08     -V/T= 2.5446

 **********************************************************************

            Population analysis using the SCF density.

 **********************************************************************

 Orbital symmetries:
       Occupied  (A) (A) (A) (A) (A) (A) (A) (A) (A) (A) (A) (A)
                 (A) (A) (A) (A) (A) (A) (A) (A) (A) (A) (A) (A)
                 (A) (A) (A) (A) (A) (A) (A) (A) (A)
       Virtual   (A) (A) (A) (A) (A) (A) (A) (A) (A) (A) (A) (A)
                 (A) (A) (A) (A) (A) (A) (A) (A) (A) (A) (A) (A)
                 (A) (A) (A) (A) (A) (A) (A) (A) (A) (A) (A) (A)
                 (A) (A) (A) (A) (A) (A) (A) (A) (A) (A) (A) (A)
                 (A) (A) (A) (A) (A) (A) (A) (A) (A) (A) (A) (A)
                 (A) (A) (A) (A) (A) (A) (A) (A) (A) (A) (A) (A)
                 (A) (A) (A) (A) (A) (A) (A) (A) (A) (A) (A) (A)
                 (A) (A) (A) (A) (A) (A) (A) (A) (A) (A) (A) (A)
                 (A) (A) (A) (A) (A) (A)
 The electronic state is 1-A.
 Alpha  occ. eigenvalues --  -10.60808 -10.57359 -10.57358 -10.57038 -10.57029
 Alpha  occ. eigenvalues --  -10.56802  -7.10118  -5.09750  -5.08348  -5.08344
 Alpha  occ. eigenvalues --   -2.06617  -2.06084  -2.06072  -2.04922  -2.04919
 Alpha  occ. eigenvalues --   -0.96792  -0.86322  -0.84739  -0.77601  -0.69598
 Alpha  occ. eigenvalues --   -0.67438  -0.59756  -0.53582  -0.52935  -0.50155
 Alpha  occ. eigenvalues --   -0.47373  -0.45925  -0.42035  -0.39615  -0.35667
 Alpha  occ. eigenvalues --   -0.32118  -0.31765  -0.28812
 Alpha virt. eigenvalues --    0.01069   0.01318   0.01371   0.10835   0.13512
 Alpha virt. eigenvalues --    0.15457   0.17867   0.18397   0.18632   0.27894
 Alpha virt. eigenvalues --    0.28200   0.32292   0.32468   0.33641   0.39469
 Alpha virt. eigenvalues --    0.39771   0.41641   0.44081   0.44254   0.45426
 Alpha virt. eigenvalues --    0.45459   0.46221   0.47456   0.47543   0.51813
 Alpha virt. eigenvalues --    0.52155   0.52406   0.52808   0.58134   0.60983
 Alpha virt. eigenvalues --    0.61687   0.64178   0.65200   0.68373   0.68930
 Alpha virt. eigenvalues --    0.70663   0.71075   0.72287   0.74814   0.76271
 Alpha virt. eigenvalues --    0.76821   0.77627   0.79495   0.80439   0.86647
 Alpha virt. eigenvalues --    0.92099   0.92286   0.98404   1.08695   1.11101
 Alpha virt. eigenvalues --    1.22760   1.28680   1.29419   1.29480   1.30901
 Alpha virt. eigenvalues --    1.32820   1.35037   1.50761   1.51802   1.69873
 Alpha virt. eigenvalues --    1.70937   1.74145   1.75605   1.78529   1.78559
 Alpha virt. eigenvalues --    1.79306   1.81856   1.82391   1.85645   1.88033
 Alpha virt. eigenvalues --    1.94949   1.97504   2.00469   2.01822   2.04693
 Alpha virt. eigenvalues --    2.10773   2.15595   2.15734   2.20239   2.29480
 Alpha virt. eigenvalues --    2.30966   2.31815   2.33505   2.35457   2.36476
 Alpha virt. eigenvalues --    2.54525   2.60704   2.61321   2.65110   2.74491
 Alpha virt. eigenvalues --    2.74585   2.81300   2.86785   2.88634   3.02605
 Alpha virt. eigenvalues --    3.11647   3.19425   3.58752  18.61969  18.80960
 Alpha virt. eigenvalues --   19.23878  55.88034
          Condensed to atoms (all electrons):
               1          2          3          4          5          6
     1  C    5.102575   0.285708   0.087512  -0.168041   0.087505   0.285714
     2  C    0.285708   5.006470   0.335432   0.087344  -0.124226   0.073905
     3  C    0.087512   0.335432   5.061859   0.262269   0.051242  -0.124254
     4  C   -0.168041   0.087344   0.262269   5.488147   0.262343   0.087370
     5  C    0.087505  -0.124226   0.051242   0.262343   5.061741   0.335367
     6  C    0.285714   0.073905  -0.124254   0.087370   0.335367   5.006613
     7  I    0.001086   0.004062  -0.076515   0.267291  -0.076490   0.004061
     8  H    0.449813  -0.068677   0.014132  -0.001741   0.014133  -0.068684
     9  H   -0.071217   0.454529  -0.070736   0.015873  -0.002195   0.014082
    10  H    0.013355  -0.053151   0.445295  -0.071194   0.012192  -0.001416
    11  H    0.013360  -0.001417   0.012197  -0.071200   0.445321  -0.053172
    12  H   -0.071209   0.014077  -0.002194   0.015870  -0.070724   0.454498
               7          8          9         10         11         12
     1  C    0.001086   0.449813  -0.071217   0.013355   0.013360  -0.071209
     2  C    0.004062  -0.068677   0.454529  -0.053151  -0.001417   0.014077
     3  C   -0.076515   0.014132  -0.070736   0.445295   0.012197  -0.002194
     4  C    0.267291  -0.001741   0.015873  -0.071194  -0.071200   0.015870
     5  C   -0.076490   0.014133  -0.002195   0.012192   0.445321  -0.070724
     6  C    0.004061  -0.068684   0.014082  -0.001416  -0.053172   0.454498
     7  I   24.814867   0.000032  -0.000248  -0.003717  -0.003714  -0.000248
     8  H    0.000032   0.659545  -0.011841  -0.000234  -0.000234  -0.011844
     9  H   -0.000248  -0.011841   0.656110  -0.012487   0.000023  -0.000236
    10  H   -0.003717  -0.000234  -0.012487   0.641911  -0.000199   0.000023
    11  H   -0.003714  -0.000234   0.000023  -0.000199   0.641946  -0.012486
    12  H   -0.000248  -0.011844  -0.000236   0.000023  -0.012486   0.656068
 Mulliken charges:
               1
     1  C   -0.016160
     2  C   -0.014056
     3  C    0.003760
     4  C   -0.174332
     5  C    0.003792
     6  C   -0.014085
     7  I    0.069534
     8  H    0.025600
     9  H    0.028343
    10  H    0.029623
    11  H    0.029576
    12  H    0.028405
 Sum of Mulliken charges =   0.00000
 Mulliken charges with hydrogens summed into heavy atoms:
               1
     1  C    0.009440
     2  C    0.014287
     3  C    0.033383
     4  C   -0.174332
     5  C    0.033369
     6  C    0.014319
     7  I    0.069534
 Electronic spatial extent (au):  <R**2>=           1284.4521
 Charge=              0.0000 electrons
 Dipole moment (field-independent basis, Debye):
    X=             -1.5568    Y=              0.0001    Z=              0.0000  Tot=              1.5568
 Quadrupole moment (field-independent basis, Debye-Ang):
   XX=            -54.3079   YY=            -56.8132   ZZ=            -65.9657
   XY=             -0.0001   XZ=              0.0000   YZ=              0.0002
 Traceless Quadrupole moment (field-independent basis, Debye-Ang):
   XX=              4.7211   YY=              2.2158   ZZ=             -6.9368
   XY=             -0.0001   XZ=              0.0000   YZ=              0.0002
 Octapole moment (field-independent basis, Debye-Ang**2):
  XXX=             63.9374  YYY=              0.0006  ZZZ=             -0.0018  XYY=             16.2873
  XXY=              0.0018  XXZ=             -0.0052  XZZ=             33.7124  YZZ=             -0.0001
  YYZ=              0.0010  XYZ=             -0.0004
 Hexadecapole moment (field-independent basis, Debye-Ang**3):
 XXXX=          -1323.2916 YYYY=           -298.1515 ZZZZ=            -81.1426 XXXY=             -0.0043
 XXXZ=              0.0098 YYYX=             -0.0023 YYYZ=              0.0011 ZZZX=             -0.0026
 ZZZY=              0.0002 XXYY=           -278.4599 XXZZ=           -285.1776 YYZZ=            -73.9358
 XXYZ=              0.0015 YYXZ=             -0.0035 ZZXY=             -0.0004
 N-N= 3.534449566533D+02 E-N=-1.872882043147D+03  KE= 3.424819124327D+02
   1 Symmetry operations used in ECPInt.
 ECPInt:  NShTT=    1891 NPrTT=    7385 LenC2=    1880 LenP2D=    5944.
 LDataN:  DoStor=T MaxTD1= 7 Len=  274
 Calling FoFJK, ICntrl=      2127 FMM=F ISym2X=0 I1Cent= 0 IOpClX= 0 NMat=1 NMatS=1 NMatT=0.
 Defaulting to unpruned grid for atomic number  53.
 ***** Axes restored to original set *****
 -------------------------------------------------------------------
 Center     Atomic                   Forces (Hartrees/Bohr)
 Number     Number              X              Y              Z
 -------------------------------------------------------------------
      1        6           0.000022019   -0.000108321    0.002092744
      2        6          -0.006796035    0.003735512    0.001405618
      3        6           0.002367260   -0.001236045   -0.002121736
      4        6           0.000343888    0.000167209   -0.011765792
      5        6          -0.002157885    0.001268565   -0.002204278
      6        6           0.006538646   -0.003646893    0.001690982
      7       53          -0.000274511   -0.000128202    0.008877529
      8        1           0.000105852    0.000061715   -0.003353053
      9        1           0.002939990   -0.001610586   -0.000778571
     10        1           0.000988639   -0.000659443    0.003524807
     11        1          -0.001251193    0.000576669    0.003492657
     12        1          -0.002826670    0.001579820   -0.000860907
 -------------------------------------------------------------------
 Cartesian Forces:  Max     0.011765792 RMS     0.003447718

 GradGradGradGradGradGradGradGradGradGradGradGradGradGradGradGradGradGrad
 Berny optimization.
 FormGI is forming the generalized inverse of G from B-inverse, IUseBI=4.
 Internal  Forces:  Max     0.008882693 RMS     0.001855362
 Search for a local minimum.
 Step number   1 out of a maximum of   64
 All quantities printed in internal units (Hartrees-Bohrs-Radians)
 Mixed Optimization -- RFO/linear search
 Second derivative matrix not updated -- first step.
 ITU=  0
     Eigenvalues ---    0.02156   0.02156   0.02156   0.02156   0.02156
     Eigenvalues ---    0.02156   0.02157   0.02157   0.02158   0.14811
     Eigenvalues ---    0.16000   0.16000   0.16000   0.16000   0.16000
     Eigenvalues ---    0.22000   0.22000   0.23486   0.25000   0.35171
     Eigenvalues ---    0.35181   0.35259   0.35264   0.35276   0.42131
     Eigenvalues ---    0.42327   0.46474   0.46474   0.46475   0.46494
 RFO step:  Lambda=-9.74157446D-04 EMin= 2.15602139D-02
 Linear search not attempted -- first point.
 Iteration  1 RMS(Cart)=  0.00908006 RMS(Int)=  0.00005532
 Iteration  2 RMS(Cart)=  0.00006444 RMS(Int)=  0.00000153
 Iteration  3 RMS(Cart)=  0.00000000 RMS(Int)=  0.00000153
 Variable       Old X    -DE/DX   Delta X   Delta X   Delta X     New X
                                 (Linear)    (Quad)   (Total)
    R1        2.63599  -0.00061   0.00000  -0.00144  -0.00144   2.63454
    R2        2.63568  -0.00049   0.00000  -0.00118  -0.00118   2.63449
    R3        2.05249   0.00336   0.00000   0.00949   0.00949   2.06198
    R4        2.63600  -0.00010   0.00000  -0.00023  -0.00023   2.63578
    R5        2.05230   0.00331   0.00000   0.00936   0.00936   2.06166
    R6        2.63599  -0.00024   0.00000  -0.00039  -0.00039   2.63560
    R7        2.05398   0.00279   0.00000   0.00790   0.00790   2.06188
    R8        2.63600  -0.00027   0.00000  -0.00044  -0.00044   2.63556
    R9        3.92557   0.00888   0.00000   0.05958   0.05958   3.98515
   R10        2.63601  -0.00009   0.00000  -0.00019  -0.00019   2.63582
   R11        2.05382   0.00284   0.00000   0.00805   0.00805   2.06188
   R12        2.05256   0.00322   0.00000   0.00910   0.00910   2.06166
    A1        2.09449  -0.00104   0.00000  -0.00501  -0.00501   2.08947
    A2        2.09430   0.00052   0.00000   0.00252   0.00252   2.09683
    A3        2.09440   0.00052   0.00000   0.00249   0.00249   2.09689
    A4        2.09432   0.00146   0.00000   0.00653   0.00653   2.10085
    A5        2.09432   0.00023   0.00000   0.00271   0.00271   2.09703
    A6        2.09454  -0.00169   0.00000  -0.00925  -0.00924   2.08530
    A7        2.09439  -0.00207   0.00000  -0.00889  -0.00889   2.08551
    A8        2.07400   0.00357   0.00000   0.02017   0.02016   2.09416
    A9        2.11479  -0.00150   0.00000  -0.01128  -0.01128   2.10352
   A10        2.09439   0.00229   0.00000   0.00978   0.00979   2.10418
   A11        2.09433  -0.00113   0.00000  -0.00485  -0.00485   2.08948
   A12        2.09446  -0.00115   0.00000  -0.00494  -0.00494   2.08953
   A13        2.09434  -0.00207   0.00000  -0.00887  -0.00887   2.08547
   A14        2.11473  -0.00148   0.00000  -0.01122  -0.01122   2.10351
   A15        2.07412   0.00356   0.00000   0.02009   0.02009   2.09421
   A16        2.09444   0.00143   0.00000   0.00646   0.00646   2.10090
   A17        2.09430   0.00024   0.00000   0.00274   0.00274   2.09704
   A18        2.09444  -0.00168   0.00000  -0.00920  -0.00920   2.08524
    D1       -0.00011   0.00000   0.00000   0.00020   0.00020   0.00009
    D2       -3.14140   0.00000   0.00000  -0.00013  -0.00013  -3.14153
    D3       -3.14145   0.00000   0.00000  -0.00008  -0.00008  -3.14153
    D4        0.00045  -0.00001   0.00000  -0.00041  -0.00041   0.00004
    D5        0.00007   0.00000   0.00000  -0.00014  -0.00014  -0.00007
    D6        3.14153   0.00000   0.00000  -0.00001  -0.00001   3.14152
    D7        3.14141   0.00000   0.00000   0.00014   0.00014   3.14155
    D8       -0.00032   0.00001   0.00000   0.00027   0.00027  -0.00005
    D9        0.00007   0.00000   0.00000  -0.00009  -0.00010  -0.00002
   D10       -3.14151   0.00000   0.00000  -0.00010  -0.00010   3.14157
   D11        3.14136   0.00001   0.00000   0.00024   0.00024  -3.14159
   D12       -0.00022   0.00001   0.00000   0.00023   0.00023   0.00001
   D13        0.00000   0.00000   0.00000  -0.00007  -0.00007  -0.00007
   D14        3.14133   0.00001   0.00000   0.00025   0.00025   3.14158
   D15        3.14158   0.00000   0.00000  -0.00006  -0.00006   3.14152
   D16       -0.00027   0.00001   0.00000   0.00026   0.00026  -0.00001
   D17       -0.00004   0.00000   0.00000   0.00013   0.00013   0.00009
   D18        3.14159   0.00000   0.00000   0.00007   0.00007  -3.14152
   D19       -3.14137   0.00000   0.00000  -0.00019  -0.00019  -3.14156
   D20        0.00026  -0.00001   0.00000  -0.00025  -0.00025   0.00001
   D21        0.00001   0.00000   0.00000  -0.00002  -0.00002  -0.00002
   D22       -3.14146   0.00000   0.00000  -0.00015  -0.00015   3.14157
   D23        3.14156   0.00000   0.00000   0.00003   0.00003   3.14159
   D24        0.00010   0.00000   0.00000  -0.00010  -0.00010   0.00000
         Item               Value     Threshold  Converged?
 Maximum Force            0.008883     0.000450     NO 
 RMS     Force            0.001855     0.000300     NO 
 Maximum Displacement     0.040355     0.001800     NO 
 RMS     Displacement     0.009079     0.001200     NO 
 Predicted change in Energy=-4.898101D-04
 GradGradGradGradGradGradGradGradGradGradGradGradGradGradGradGradGradGrad

                          Input orientation:                          
 ---------------------------------------------------------------------
 Center     Atomic      Atomic             Coordinates (Angstroms)
 Number     Number       Type             X           Y           Z
 ---------------------------------------------------------------------
      1          6           0        1.885335   -1.036236   -0.119087
      2          6           0        2.919080   -1.629618    0.604027
      3          6           0        2.881226   -1.653516    1.998101
      4          6           0        1.799957   -1.078559    2.665537
      5          6           0        0.761113   -0.482513    1.950927
      6          6           0        0.808767   -0.464052    0.557050
      7         53           0        1.735377   -1.110659    4.773155
      8          1           0        1.918764   -1.019717   -1.209601
      9          1           0        3.764975   -2.079433    0.082136
     10          1           0        3.693641   -2.119599    2.557782
     11          1           0       -0.084453   -0.032838    2.473714
     12          1           0       -0.003982    0.002241   -0.001743
 ---------------------------------------------------------------------
                    Distance matrix (angstroms):
                    1          2          3          4          5
     1  C    0.000000
     2  C    1.394140   0.000000
     3  C    2.419777   1.394793   0.000000
     4  C    2.786254   2.409549   1.394700   0.000000
     5  C    2.419802   2.790485   2.422468   1.394680   0.000000
     6  C    1.394114   2.411259   2.790437   2.409521   1.394814
     7  I    4.895105   4.364870   3.050997   2.108851   3.051020
     8  H    1.091151   2.159134   3.408429   3.877405   3.408472
     9  H    2.159120   1.090982   2.152519   3.396617   3.881458
    10  H    3.407239   2.158051   1.091098   2.163658   3.412923
    11  H    3.407270   3.881578   3.412925   2.163638   1.091099
    12  H    2.159102   3.402089   3.881409   3.396573   2.152505
                    6          7          8          9         10
     6  C    0.000000
     7  I    4.364887   0.000000
     8  H    2.159147   5.986256   0.000000
     9  H    3.402083   5.202254   2.489996   0.000000
    10  H    3.881528   3.124202   4.307331   2.476999   0.000000
    11  H    2.158098   3.124245   4.307392   4.972554   4.316901
    12  H    1.090981   5.202265   2.490034   4.306442   4.972503
                   11         12
    11  H    0.000000
    12  H    2.477013   0.000000
 Stoichiometry    C6H5I
 Framework group  C1[X(C6H5I)]
 Deg. of freedom    30
 Full point group                 C1      NOp   1
 Largest Abelian subgroup         C1      NOp   1
 Largest concise Abelian subgroup C1      NOp   1
                         Standard orientation:                         
 ---------------------------------------------------------------------
 Center     Atomic      Atomic             Coordinates (Angstroms)
 Number     Number       Type             X           Y           Z
 ---------------------------------------------------------------------
      1          6           0       -3.342519    0.000008   -0.000050
      2          6           0       -2.642472    1.205646    0.000017
      3          6           0       -1.247691    1.211214    0.000029
      4          6           0       -0.556265   -0.000033   -0.000003
      5          6           0       -1.247695   -1.211254    0.000039
      6          6           0       -2.642498   -1.205614    0.000004
      7         53           0        1.552587    0.000003   -0.000005
      8          1           0       -4.433670    0.000046   -0.000121
      9          1           0       -3.183132    2.153238    0.000034
     10          1           0       -0.706139    2.158428    0.000061
     11          1           0       -0.706149   -2.158473    0.000083
     12          1           0       -3.183156   -2.153204    0.000020
 ---------------------------------------------------------------------
 Rotational constants (GHZ):      5.6892097      0.7430658      0.6572258
 Standard basis: def2SVP (5D, 7F)
 There are   143 symmetry adapted cartesian basis functions of A   symmetry.
 There are   135 symmetry adapted basis functions of A   symmetry.
   135 basis functions,   252 primitive gaussians,   143 cartesian basis functions
    33 alpha electrons       33 beta electrons
       nuclear repulsion energy       352.0323288454 Hartrees.
 NAtoms=   12 NActive=   12 NUniq=   12 SFac= 1.00D+00 NAtFMM=   60 NAOKFM=F Big=F
 Integral buffers will be    131072 words long.
 Raffenetti 2 integral format.
 Two-electron integral symmetry is turned on.
 One-electron integrals computed using PRISM.
   1 Symmetry operations used in ECPInt.
 ECPInt:  NShTT=    1891 NPrTT=    7385 LenC2=    1879 LenP2D=    5934.
 LDataN:  DoStor=T MaxTD1= 6 Len=  172
 NBasis=   135 RedAO= T EigKep=  2.99D-04  NBF=   135
 NBsUse=   135 1.00D-06 EigRej= -1.00D+00 NBFU=   135
 Defaulting to unpruned grid for atomic number  53.
 Initial guess from the checkpoint file:  "/srv/scratch/z5358697/gauss/Gau-1923820.chk"
 B after Tr=     0.000000    0.000000    0.000000
         Rot=    1.000000    0.000000    0.000000   -0.000005 Ang=   0.00 deg.
 ExpMin= 1.11D-01 ExpMax= 1.24D+03 ExpMxC= 1.86D+02 IAcc=1 IRadAn=         1 AccDes= 0.00D+00
 Harris functional with IExCor= 1009 and IRadAn=       1 diagonalized for initial guess.
 HarFok:  IExCor= 1009 AccDes= 0.00D+00 IRadAn=         1 IDoV= 1 UseB2=F ITyADJ=14
 ICtDFT=  3500011 ScaDFX=  1.000000  1.000000  1.000000  1.000000
 Defaulting to unpruned grid for atomic number  53.
 FoFCou: FMM=F IPFlag=           0 FMFlag=      100000 FMFlg1=           0
         NFxFlg=           0 DoJE=T BraDBF=F KetDBF=T FulRan=T
         wScrn=  0.000000 ICntrl=     500 IOpCl=  0 I1Cent=   200000004 NGrid=           0
         NMat0=    1 NMatS0=      1 NMatT0=    0 NMatD0=    1 NMtDS0=    0 NMtDT0=    0
 Petite list used in FoFCou.
 Requested convergence on RMS density matrix=1.00D-08 within 128 cycles.
 Requested convergence on MAX density matrix=1.00D-06.
 Requested convergence on             energy=1.00D-06.
 No special actions if energy rises.
 Integral accuracy reduced to 1.0D-05 until final iterations.
 Defaulting to unpruned grid for atomic number  53.
 Initial convergence to 1.0D-05 achieved.  Increase integral accuracy.
 SCF Done:  E(RM062X) =  -528.993102077     A.U. after   13 cycles
            NFock= 13  Conv=0.22D-08     -V/T= 2.5449
   1 Symmetry operations used in ECPInt.
 ECPInt:  NShTT=    1891 NPrTT=    7385 LenC2=    1879 LenP2D=    5934.
 LDataN:  DoStor=T MaxTD1= 7 Len=  274
 Calling FoFJK, ICntrl=      2127 FMM=F ISym2X=0 I1Cent= 0 IOpClX= 0 NMat=1 NMatS=1 NMatT=0.
 Defaulting to unpruned grid for atomic number  53.
 ***** Axes restored to original set *****
 -------------------------------------------------------------------
 Center     Atomic                   Forces (Hartrees/Bohr)
 Number     Number              X              Y              Z
 -------------------------------------------------------------------
      1        6           0.000016983   -0.000004086   -0.000031058
      2        6          -0.001010460    0.000559485   -0.000213666
      3        6           0.001534760   -0.000888740    0.001289842
      4        6           0.000089182    0.000038006   -0.002499113
      5        6          -0.001609624    0.000846149    0.001207461
      6        6           0.000997223   -0.000546566   -0.000155020
      7       53           0.000026879    0.000014647   -0.000926504
      8        1          -0.000012820   -0.000002073    0.000345516
      9        1           0.000126099   -0.000076231    0.000188171
     10        1          -0.000514039    0.000273373    0.000298810
     11        1           0.000493965   -0.000283395    0.000316712
     12        1          -0.000138148    0.000069430    0.000178849
 -------------------------------------------------------------------
 Cartesian Forces:  Max     0.002499113 RMS     0.000754096

 GradGradGradGradGradGradGradGradGradGradGradGradGradGradGradGradGradGrad
 Berny optimization.
 Using GEDIIS/GDIIS optimizer.
 FormGI is forming the generalized inverse of G from B-inverse, IUseBI=4.
 Internal  Forces:  Max     0.001957890 RMS     0.000507198
 Search for a local minimum.
 Step number   2 out of a maximum of   64
 All quantities printed in internal units (Hartrees-Bohrs-Radians)
 Mixed Optimization -- En-DIIS/RFO-DIIS
 Update second derivatives using D2CorX and points    1    2
 DE= -5.02D-04 DEPred=-4.90D-04 R= 1.03D+00
 TightC=F SS=  1.41D+00  RLast= 7.49D-02 DXNew= 5.0454D-01 2.2478D-01
 Trust test= 1.03D+00 RLast= 7.49D-02 DXMaxT set to 3.00D-01
 ITU=  1  0
 Use linear search instead of GDIIS.
     Eigenvalues ---    0.02156   0.02156   0.02156   0.02156   0.02156
     Eigenvalues ---    0.02156   0.02157   0.02157   0.02158   0.13746
     Eigenvalues ---    0.15999   0.16000   0.16000   0.16000   0.16530
     Eigenvalues ---    0.21303   0.22000   0.23450   0.25000   0.35171
     Eigenvalues ---    0.35178   0.35241   0.35268   0.36542   0.42138
     Eigenvalues ---    0.42544   0.46460   0.46474   0.46478   0.46495
 RFO step:  Lambda=-6.50744831D-05 EMin= 2.15602098D-02
 Quartic linear search produced a step of  0.04401.
 Iteration  1 RMS(Cart)=  0.00338708 RMS(Int)=  0.00000945
 Iteration  2 RMS(Cart)=  0.00001282 RMS(Int)=  0.00000179
 Iteration  3 RMS(Cart)=  0.00000000 RMS(Int)=  0.00000179
 Variable       Old X    -DE/DX   Delta X   Delta X   Delta X     New X
                                 (Linear)    (Quad)   (Total)
    R1        2.63454  -0.00004  -0.00006  -0.00013  -0.00020   2.63434
    R2        2.63449  -0.00003  -0.00005  -0.00010  -0.00016   2.63434
    R3        2.06198  -0.00035   0.00042  -0.00080  -0.00038   2.06159
    R4        2.63578  -0.00015  -0.00001  -0.00034  -0.00035   2.63543
    R5        2.06166   0.00004   0.00041   0.00033   0.00075   2.06240
    R6        2.63560  -0.00070  -0.00002  -0.00158  -0.00160   2.63401
    R7        2.06188  -0.00035   0.00035  -0.00084  -0.00050   2.06138
    R8        2.63556  -0.00069  -0.00002  -0.00156  -0.00157   2.63399
    R9        3.98515  -0.00093   0.00262  -0.00509  -0.00247   3.98268
   R10        2.63582  -0.00016  -0.00001  -0.00036  -0.00037   2.63545
   R11        2.06188  -0.00035   0.00035  -0.00084  -0.00049   2.06139
   R12        2.06166   0.00004   0.00040   0.00033   0.00073   2.06239
    A1        2.08947   0.00022  -0.00022   0.00111   0.00088   2.09035
    A2        2.09683  -0.00011   0.00011  -0.00053  -0.00042   2.09641
    A3        2.09689  -0.00011   0.00011  -0.00058  -0.00047   2.09642
    A4        2.10085   0.00011   0.00029   0.00084   0.00112   2.10198
    A5        2.09703   0.00019   0.00012   0.00131   0.00143   2.09846
    A6        2.08530  -0.00030  -0.00041  -0.00215  -0.00255   2.08274
    A7        2.08551  -0.00120  -0.00039  -0.00569  -0.00607   2.07943
    A8        2.09416   0.00117   0.00089   0.00695   0.00784   2.10200
    A9        2.10352   0.00003  -0.00050  -0.00127  -0.00177   2.10175
   A10        2.10418   0.00196   0.00043   0.00859   0.00902   2.11320
   A11        2.08948  -0.00098  -0.00021  -0.00428  -0.00450   2.08499
   A12        2.08953  -0.00098  -0.00022  -0.00431  -0.00453   2.08500
   A13        2.08547  -0.00119  -0.00039  -0.00565  -0.00603   2.07943
   A14        2.10351   0.00003  -0.00049  -0.00126  -0.00175   2.10176
   A15        2.09421   0.00116   0.00088   0.00690   0.00779   2.10200
   A16        2.10090   0.00010   0.00028   0.00080   0.00108   2.10198
   A17        2.09704   0.00019   0.00012   0.00131   0.00143   2.09848
   A18        2.08524  -0.00029  -0.00040  -0.00211  -0.00251   2.08273
    D1        0.00009   0.00000   0.00001  -0.00011  -0.00011  -0.00001
    D2       -3.14153   0.00000  -0.00001  -0.00007  -0.00008   3.14158
    D3       -3.14153   0.00000   0.00000  -0.00007  -0.00007   3.14159
    D4        0.00004   0.00000  -0.00002  -0.00003  -0.00004  -0.00001
    D5       -0.00007   0.00000  -0.00001   0.00009   0.00008   0.00001
    D6        3.14152   0.00000   0.00000   0.00008   0.00008  -3.14158
    D7        3.14155   0.00000   0.00001   0.00004   0.00005  -3.14159
    D8       -0.00005   0.00000   0.00001   0.00004   0.00005   0.00000
    D9       -0.00002   0.00000   0.00000   0.00003   0.00002   0.00000
   D10        3.14157   0.00000   0.00000   0.00003   0.00003  -3.14159
   D11       -3.14159   0.00000   0.00001  -0.00001   0.00000  -3.14159
   D12        0.00001   0.00000   0.00001  -0.00001   0.00000   0.00001
   D13       -0.00007   0.00000   0.00000   0.00008   0.00008   0.00001
   D14        3.14158   0.00000   0.00001  -0.00001   0.00000   3.14159
   D15        3.14152   0.00000   0.00000   0.00008   0.00008  -3.14159
   D16       -0.00001   0.00000   0.00001  -0.00001   0.00000  -0.00001
   D17        0.00009   0.00000   0.00001  -0.00011  -0.00010  -0.00001
   D18       -3.14152   0.00000   0.00000  -0.00008  -0.00008   3.14159
   D19       -3.14156   0.00000  -0.00001  -0.00002  -0.00003  -3.14159
   D20        0.00001   0.00000  -0.00001   0.00001   0.00000   0.00001
   D21       -0.00002   0.00000   0.00000   0.00002   0.00002   0.00000
   D22        3.14157   0.00000  -0.00001   0.00003   0.00002  -3.14159
   D23        3.14159   0.00000   0.00000  -0.00001  -0.00001   3.14158
   D24        0.00000   0.00000   0.00000   0.00000  -0.00001  -0.00001
         Item               Value     Threshold  Converged?
 Maximum Force            0.001958     0.000450     NO 
 RMS     Force            0.000507     0.000300     NO 
 Maximum Displacement     0.013983     0.001800     NO 
 RMS     Displacement     0.003388     0.001200     NO 
 Predicted change in Energy=-3.333100D-05
 GradGradGradGradGradGradGradGradGradGradGradGradGradGradGradGradGradGrad

                          Input orientation:                          
 ---------------------------------------------------------------------
 Center     Atomic      Atomic             Coordinates (Angstroms)
 Number     Number       Type             X           Y           Z
 ---------------------------------------------------------------------
      1          6           0        1.885340   -1.036209   -0.118523
      2          6           0        2.919259   -1.629742    0.604016
      3          6           0        2.883321   -1.654677    1.997940
      4          6           0        1.800179   -1.078441    2.659444
      5          6           0        0.759043   -0.481387    1.950661
      6          6           0        0.808556   -0.463946    0.557031
      7         53           0        1.735619   -1.110478    4.765755
      8          1           0        1.918771   -1.019634   -1.208832
      9          1           0        3.765884   -2.080026    0.082887
     10          1           0        3.692356   -2.119107    2.563351
     11          1           0       -0.083536   -0.033586    2.479307
     12          1           0       -0.004992    0.002732   -0.001037
 ---------------------------------------------------------------------
                    Distance matrix (angstroms):
                    1          2          3          4          5
     1  C    0.000000
     2  C    1.394034   0.000000
     3  C    2.420306   1.394610   0.000000
     4  C    2.779593   2.404383   1.393856   0.000000
     5  C    2.420309   2.792616   2.427221   1.393847   0.000000
     6  C    1.394030   2.411712   2.792617   2.404384   1.394619
     7  I    4.887137   4.357833   3.045353   2.107544   3.045359
     8  H    1.090948   2.158617   3.408375   3.870541   3.408384
     9  H    2.160223   1.091378   2.151108   3.392022   3.883982
    10  H    3.410341   2.162441   1.090836   2.161609   3.414943
    11  H    3.410344   3.883453   3.414952   2.161609   1.090840
    12  H    2.160221   3.403278   3.883975   3.392011   2.151104
                    6          7          8          9         10
     6  C    0.000000
     7  I    4.357845   0.000000
     8  H    2.158620   5.978084   0.000000
     9  H    3.403280   5.195311   2.490943   0.000000
    10  H    3.883450   3.113958   4.310895   2.481862   0.000000
    11  H    2.162449   3.113980   4.310904   4.974814   4.314374
    12  H    1.091370   5.195313   2.490956   4.308645   4.974803
                   11         12
    11  H    0.000000
    12  H    2.481853   0.000000
 Stoichiometry    C6H5I
 Framework group  C1[X(C6H5I)]
 Deg. of freedom    30
 Full point group                 C1      NOp   1
 Largest Abelian subgroup         C1      NOp   1
 Largest concise Abelian subgroup C1      NOp   1
                         Standard orientation:                         
 ---------------------------------------------------------------------
 Center     Atomic      Atomic             Coordinates (Angstroms)
 Number     Number       Type             X           Y           Z
 ---------------------------------------------------------------------
      1          6           0       -3.337540    0.000004    0.000004
      2          6           0       -2.638078    1.205858   -0.000003
      3          6           0       -1.243490    1.213609    0.000001
      4          6           0       -0.557947   -0.000008    0.000007
      5          6           0       -1.243494   -1.213612   -0.000002
      6          6           0       -2.638091   -1.205854   -0.000002
      7         53           0        1.549596    0.000000    0.000000
      8          1           0       -4.428488    0.000015    0.000006
      9          1           0       -3.177996    2.154328   -0.000014
     10          1           0       -0.696136    2.157179    0.000001
     11          1           0       -0.696150   -2.157195    0.000001
     12          1           0       -3.178002   -2.154318   -0.000007
 ---------------------------------------------------------------------
 Rotational constants (GHZ):      5.6796206      0.7457637      0.6592065
 Standard basis: def2SVP (5D, 7F)
 There are   143 symmetry adapted cartesian basis functions of A   symmetry.
 There are   135 symmetry adapted basis functions of A   symmetry.
   135 basis functions,   252 primitive gaussians,   143 cartesian basis functions
    33 alpha electrons       33 beta electrons
       nuclear repulsion energy       352.3118407508 Hartrees.
 NAtoms=   12 NActive=   12 NUniq=   12 SFac= 1.00D+00 NAtFMM=   60 NAOKFM=F Big=F
 Integral buffers will be    131072 words long.
 Raffenetti 2 integral format.
 Two-electron integral symmetry is turned on.
 One-electron integrals computed using PRISM.
   1 Symmetry operations used in ECPInt.
 ECPInt:  NShTT=    1891 NPrTT=    7385 LenC2=    1879 LenP2D=    5935.
 LDataN:  DoStor=T MaxTD1= 6 Len=  172
 NBasis=   135 RedAO= T EigKep=  2.99D-04  NBF=   135
 NBsUse=   135 1.00D-06 EigRej= -1.00D+00 NBFU=   135
 Defaulting to unpruned grid for atomic number  53.
 Initial guess from the checkpoint file:  "/srv/scratch/z5358697/gauss/Gau-1923820.chk"
 B after Tr=     0.000000    0.000000    0.000000
         Rot=    1.000000    0.000000    0.000000    0.000000 Ang=   0.00 deg.
 Requested convergence on RMS density matrix=1.00D-08 within 128 cycles.
 Requested convergence on MAX density matrix=1.00D-06.
 Requested convergence on             energy=1.00D-06.
 No special actions if energy rises.
 Defaulting to unpruned grid for atomic number  53.
 SCF Done:  E(RM062X) =  -528.993136926     A.U. after    9 cycles
            NFock=  9  Conv=0.39D-08     -V/T= 2.5448
   1 Symmetry operations used in ECPInt.
 ECPInt:  NShTT=    1891 NPrTT=    7385 LenC2=    1879 LenP2D=    5935.
 LDataN:  DoStor=T MaxTD1= 7 Len=  274
 Calling FoFJK, ICntrl=      2127 FMM=F ISym2X=0 I1Cent= 0 IOpClX= 0 NMat=1 NMatS=1 NMatT=0.
 Defaulting to unpruned grid for atomic number  53.
 ***** Axes restored to original set *****
 -------------------------------------------------------------------
 Center     Atomic                   Forces (Hartrees/Bohr)
 Number     Number              X              Y              Z
 -------------------------------------------------------------------
      1        6           0.000001017   -0.000000889   -0.000026379
      2        6           0.000149496   -0.000071632   -0.000324339
      3        6           0.000401801   -0.000233918    0.000390601
      4        6           0.000008423   -0.000000584   -0.000168423
      5        6          -0.000430205    0.000226575    0.000365995
      6        6          -0.000126101    0.000080369   -0.000321193
      7       53          -0.000003465   -0.000001070    0.000103097
      8        1          -0.000007662   -0.000003422    0.000233443
      9        1          -0.000170308    0.000094582   -0.000005153
     10        1          -0.000247802    0.000140648   -0.000128349
     11        1           0.000257632   -0.000138690   -0.000118228
     12        1           0.000167175   -0.000091969   -0.000001072
 -------------------------------------------------------------------
 Cartesian Forces:  Max     0.000430205 RMS     0.000194599

 GradGradGradGradGradGradGradGradGradGradGradGradGradGradGradGradGradGrad
 Berny optimization.
 Using GEDIIS/GDIIS optimizer.
 FormGI is forming the generalized inverse of G from B-inverse, IUseBI=4.
 Internal  Forces:  Max     0.000313228 RMS     0.000106045
 Search for a local minimum.
 Step number   3 out of a maximum of   64
 All quantities printed in internal units (Hartrees-Bohrs-Radians)
 Mixed Optimization -- En-DIIS/RFO-DIIS
 Swapping is turned off.
 Update second derivatives using D2CorX and points    1    2    3
 DE= -3.48D-05 DEPred=-3.33D-05 R= 1.05D+00
 TightC=F SS=  1.41D+00  RLast= 1.89D-02 DXNew= 5.0454D-01 5.6723D-02
 Trust test= 1.05D+00 RLast= 1.89D-02 DXMaxT set to 3.00D-01
 ITU=  1  1  0
     Eigenvalues ---    0.02156   0.02156   0.02156   0.02156   0.02156
     Eigenvalues ---    0.02156   0.02157   0.02157   0.02158   0.12776
     Eigenvalues ---    0.16000   0.16000   0.16000   0.16077   0.16790
     Eigenvalues ---    0.21735   0.22000   0.22596   0.25000   0.35130
     Eigenvalues ---    0.35176   0.35266   0.35272   0.36694   0.42156
     Eigenvalues ---    0.42954   0.46343   0.46474   0.46488   0.47352
 En-DIIS/RFO-DIIS IScMMF=        0 using points:     3    2
 RFO step:  Lambda=-1.10857551D-06.
 DidBck=F Rises=F RFO-DIIS coefs:    1.04550   -0.04550
 Iteration  1 RMS(Cart)=  0.00049275 RMS(Int)=  0.00000021
 Iteration  2 RMS(Cart)=  0.00000024 RMS(Int)=  0.00000008
 Variable       Old X    -DE/DX   Delta X   Delta X   Delta X     New X
                                 (Linear)    (Quad)   (Total)
    R1        2.63434  -0.00007  -0.00001  -0.00018  -0.00019   2.63415
    R2        2.63434  -0.00007  -0.00001  -0.00018  -0.00019   2.63415
    R3        2.06159  -0.00023  -0.00002  -0.00064  -0.00065   2.06094
    R4        2.63543   0.00023  -0.00002   0.00051   0.00049   2.63592
    R5        2.06240  -0.00017   0.00003  -0.00046  -0.00043   2.06197
    R6        2.63401   0.00013  -0.00007   0.00034   0.00027   2.63428
    R7        2.06138  -0.00031  -0.00002  -0.00087  -0.00089   2.06049
    R8        2.63399   0.00013  -0.00007   0.00035   0.00028   2.63427
    R9        3.98268   0.00010  -0.00011   0.00108   0.00096   3.98364
   R10        2.63545   0.00022  -0.00002   0.00050   0.00048   2.63593
   R11        2.06139  -0.00031  -0.00002  -0.00088  -0.00090   2.06049
   R12        2.06239  -0.00016   0.00003  -0.00045  -0.00042   2.06197
    A1        2.09035   0.00017   0.00004   0.00067   0.00071   2.09106
    A2        2.09641  -0.00009  -0.00002  -0.00033  -0.00035   2.09606
    A3        2.09642  -0.00009  -0.00002  -0.00034  -0.00036   2.09606
    A4        2.10198  -0.00004   0.00005  -0.00021  -0.00016   2.10182
    A5        2.09846  -0.00008   0.00007  -0.00056  -0.00049   2.09797
    A6        2.08274   0.00012  -0.00012   0.00077   0.00065   2.08339
    A7        2.07943  -0.00011  -0.00028  -0.00037  -0.00065   2.07879
    A8        2.10200   0.00009   0.00036   0.00043   0.00079   2.10279
    A9        2.10175   0.00001  -0.00008  -0.00006  -0.00014   2.10161
   A10        2.11320   0.00011   0.00041   0.00049   0.00090   2.11410
   A11        2.08499  -0.00006  -0.00020  -0.00024  -0.00044   2.08454
   A12        2.08500  -0.00006  -0.00021  -0.00025  -0.00045   2.08455
   A13        2.07943  -0.00011  -0.00027  -0.00037  -0.00064   2.07879
   A14        2.10176   0.00001  -0.00008  -0.00007  -0.00015   2.10161
   A15        2.10200   0.00009   0.00035   0.00044   0.00079   2.10279
   A16        2.10198  -0.00004   0.00005  -0.00021  -0.00016   2.10182
   A17        2.09848  -0.00008   0.00007  -0.00056  -0.00050   2.09798
   A18        2.08273   0.00012  -0.00011   0.00077   0.00066   2.08339
    D1       -0.00001   0.00000   0.00000   0.00002   0.00002   0.00000
    D2        3.14158   0.00000   0.00000   0.00002   0.00002  -3.14159
    D3        3.14159   0.00000   0.00000   0.00001   0.00000   3.14159
    D4       -0.00001   0.00000   0.00000   0.00000   0.00000  -0.00001
    D5        0.00001   0.00000   0.00000  -0.00002  -0.00002   0.00000
    D6       -3.14158   0.00000   0.00000  -0.00002  -0.00001   3.14159
    D7       -3.14159   0.00000   0.00000   0.00000   0.00000  -3.14159
    D8        0.00000   0.00000   0.00000   0.00000   0.00000   0.00001
    D9        0.00000   0.00000   0.00000  -0.00001  -0.00001   0.00000
   D10       -3.14159   0.00000   0.00000  -0.00001  -0.00001   3.14159
   D11       -3.14159   0.00000   0.00000   0.00000   0.00000  -3.14159
   D12        0.00001   0.00000   0.00000   0.00000   0.00000   0.00000
   D13        0.00001   0.00000   0.00000  -0.00001  -0.00001   0.00000
   D14        3.14159   0.00000   0.00000   0.00001   0.00001  -3.14159
   D15       -3.14159   0.00000   0.00000  -0.00001  -0.00001   3.14159
   D16       -0.00001   0.00000   0.00000   0.00001   0.00001   0.00000
   D17       -0.00001   0.00000   0.00000   0.00002   0.00001   0.00000
   D18        3.14159   0.00000   0.00000   0.00001   0.00000  -3.14159
   D19       -3.14159   0.00000   0.00000  -0.00001  -0.00001   3.14159
   D20        0.00001   0.00000   0.00000  -0.00002  -0.00002  -0.00001
   D21        0.00000   0.00000   0.00000   0.00000   0.00000   0.00000
   D22       -3.14159   0.00000   0.00000  -0.00001   0.00000   3.14159
   D23        3.14158   0.00000   0.00000   0.00001   0.00001  -3.14159
   D24       -0.00001   0.00000   0.00000   0.00001   0.00001   0.00000
         Item               Value     Threshold  Converged?
 Maximum Force            0.000313     0.000450     YES
 RMS     Force            0.000106     0.000300     YES
 Maximum Displacement     0.001586     0.001800     YES
 RMS     Displacement     0.000493     0.001200     YES
 Predicted change in Energy=-1.067697D-06
 Optimization completed.
    -- Stationary point found.
                           ----------------------------
                           !   Optimized Parameters   !
                           ! (Angstroms and Degrees)  !
 --------------------------                            --------------------------
 ! Name  Definition              Value          Derivative Info.                !
 --------------------------------------------------------------------------------
 ! R1    R(1,2)                  1.394          -DE/DX =   -0.0001              !
 ! R2    R(1,6)                  1.394          -DE/DX =   -0.0001              !
 ! R3    R(1,8)                  1.0909         -DE/DX =   -0.0002              !
 ! R4    R(2,3)                  1.3946         -DE/DX =    0.0002              !
 ! R5    R(2,9)                  1.0914         -DE/DX =   -0.0002              !
 ! R6    R(3,4)                  1.3939         -DE/DX =    0.0001              !
 ! R7    R(3,10)                 1.0908         -DE/DX =   -0.0003              !
 ! R8    R(4,5)                  1.3938         -DE/DX =    0.0001              !
 ! R9    R(4,7)                  2.1075         -DE/DX =    0.0001              !
 ! R10   R(5,6)                  1.3946         -DE/DX =    0.0002              !
 ! R11   R(5,11)                 1.0908         -DE/DX =   -0.0003              !
 ! R12   R(6,12)                 1.0914         -DE/DX =   -0.0002              !
 ! A1    A(2,1,6)              119.7683         -DE/DX =    0.0002              !
 ! A2    A(2,1,8)              120.1155         -DE/DX =   -0.0001              !
 ! A3    A(6,1,8)              120.1161         -DE/DX =   -0.0001              !
 ! A4    A(1,2,3)              120.4345         -DE/DX =    0.0                 !
 ! A5    A(1,2,9)              120.2331         -DE/DX =   -0.0001              !
 ! A6    A(3,2,9)              119.3324         -DE/DX =    0.0001              !
 ! A7    A(2,3,4)              119.1427         -DE/DX =   -0.0001              !
 ! A8    A(2,3,10)             120.4359         -DE/DX =    0.0001              !
 ! A9    A(4,3,10)             120.4214         -DE/DX =    0.0                 !
 ! A10   A(3,4,5)              121.0775         -DE/DX =    0.0001              !
 ! A11   A(3,4,7)              119.4608         -DE/DX =   -0.0001              !
 ! A12   A(5,4,7)              119.4617         -DE/DX =   -0.0001              !
 ! A13   A(4,5,6)              119.1427         -DE/DX =   -0.0001              !
 ! A14   A(4,5,11)             120.4218         -DE/DX =    0.0                 !
 ! A15   A(6,5,11)             120.4355         -DE/DX =    0.0001              !
 ! A16   A(1,6,5)              120.4343         -DE/DX =    0.0                 !
 ! A17   A(1,6,12)             120.2339         -DE/DX =   -0.0001              !
 ! A18   A(5,6,12)             119.3318         -DE/DX =    0.0001              !
 ! D1    D(6,1,2,3)             -0.0008         -DE/DX =    0.0                 !
 ! D2    D(6,1,2,9)           -180.0009         -DE/DX =    0.0                 !
 ! D3    D(8,1,2,3)            179.9997         -DE/DX =    0.0                 !
 ! D4    D(8,1,2,9)             -0.0005         -DE/DX =    0.0                 !
 ! D5    D(2,1,6,5)              0.0007         -DE/DX =    0.0                 !
 ! D6    D(2,1,6,12)           180.0006         -DE/DX =    0.0                 !
 ! D7    D(8,1,6,5)           -179.9998         -DE/DX =    0.0                 !
 ! D8    D(8,1,6,12)             0.0001         -DE/DX =    0.0                 !
 ! D9    D(1,2,3,4)              0.0002         -DE/DX =    0.0                 !
 ! D10   D(1,2,3,10)           180.0003         -DE/DX =    0.0                 !
 ! D11   D(9,2,3,4)           -179.9996         -DE/DX =    0.0                 !
 ! D12   D(9,2,3,10)             0.0005         -DE/DX =    0.0                 !
 ! D13   D(2,3,4,5)              0.0005         -DE/DX =    0.0                 !
 ! D14   D(2,3,4,7)           -180.0004         -DE/DX =    0.0                 !
 ! D15   D(10,3,4,5)           180.0004         -DE/DX =    0.0                 !
 ! D16   D(10,3,4,7)            -0.0005         -DE/DX =    0.0                 !
 ! D17   D(3,4,5,6)             -0.0007         -DE/DX =    0.0                 !
 ! D18   D(3,4,5,11)          -180.0001         -DE/DX =    0.0                 !
 ! D19   D(7,4,5,6)            180.0003         -DE/DX =    0.0                 !
 ! D20   D(7,4,5,11)             0.0008         -DE/DX =    0.0                 !
 ! D21   D(4,5,6,1)              0.0001         -DE/DX =    0.0                 !
 ! D22   D(4,5,6,12)           180.0001         -DE/DX =    0.0                 !
 ! D23   D(11,5,6,1)          -180.0005         -DE/DX =    0.0                 !
 ! D24   D(11,5,6,12)           -0.0004         -DE/DX =    0.0                 !
 --------------------------------------------------------------------------------
 GradGradGradGradGradGradGradGradGradGradGradGradGradGradGradGradGradGrad

                          Input orientation:                          
 ---------------------------------------------------------------------
 Center     Atomic      Atomic             Coordinates (Angstroms)
 Number     Number       Type             X           Y           Z
 ---------------------------------------------------------------------
      1          6           0        1.885340   -1.036209   -0.118523
      2          6           0        2.919259   -1.629742    0.604016
      3          6           0        2.883321   -1.654677    1.997940
      4          6           0        1.800179   -1.078441    2.659444
      5          6           0        0.759043   -0.481387    1.950661
      6          6           0        0.808556   -0.463946    0.557031
      7         53           0        1.735619   -1.110478    4.765755
      8          1           0        1.918771   -1.019634   -1.208832
      9          1           0        3.765884   -2.080026    0.082887
     10          1           0        3.692356   -2.119107    2.563351
     11          1           0       -0.083536   -0.033586    2.479307
     12          1           0       -0.004992    0.002732   -0.001037
 ---------------------------------------------------------------------
                    Distance matrix (angstroms):
                    1          2          3          4          5
     1  C    0.000000
     2  C    1.394034   0.000000
     3  C    2.420306   1.394610   0.000000
     4  C    2.779593   2.404383   1.393856   0.000000
     5  C    2.420309   2.792616   2.427221   1.393847   0.000000
     6  C    1.394030   2.411712   2.792617   2.404384   1.394619
     7  I    4.887137   4.357833   3.045353   2.107544   3.045359
     8  H    1.090948   2.158617   3.408375   3.870541   3.408384
     9  H    2.160223   1.091378   2.151108   3.392022   3.883982
    10  H    3.410341   2.162441   1.090836   2.161609   3.414943
    11  H    3.410344   3.883453   3.414952   2.161609   1.090840
    12  H    2.160221   3.403278   3.883975   3.392011   2.151104
                    6          7          8          9         10
     6  C    0.000000
     7  I    4.357845   0.000000
     8  H    2.158620   5.978084   0.000000
     9  H    3.403280   5.195311   2.490943   0.000000
    10  H    3.883450   3.113958   4.310895   2.481862   0.000000
    11  H    2.162449   3.113980   4.310904   4.974814   4.314374
    12  H    1.091370   5.195313   2.490956   4.308645   4.974803
                   11         12
    11  H    0.000000
    12  H    2.481853   0.000000
 Stoichiometry    C6H5I
 Framework group  C1[X(C6H5I)]
 Deg. of freedom    30
 Full point group                 C1      NOp   1
 Largest Abelian subgroup         C1      NOp   1
 Largest concise Abelian subgroup C1      NOp   1
                         Standard orientation:                         
 ---------------------------------------------------------------------
 Center     Atomic      Atomic             Coordinates (Angstroms)
 Number     Number       Type             X           Y           Z
 ---------------------------------------------------------------------
      1          6           0       -3.337540    0.000004    0.000004
      2          6           0       -2.638078    1.205858   -0.000003
      3          6           0       -1.243490    1.213609    0.000001
      4          6           0       -0.557947   -0.000008    0.000007
      5          6           0       -1.243494   -1.213612   -0.000002
      6          6           0       -2.638091   -1.205854   -0.000002
      7         53           0        1.549596    0.000000    0.000000
      8          1           0       -4.428488    0.000015    0.000006
      9          1           0       -3.177996    2.154328   -0.000014
     10          1           0       -0.696136    2.157179    0.000001
     11          1           0       -0.696150   -2.157195    0.000001
     12          1           0       -3.178002   -2.154318   -0.000007
 ---------------------------------------------------------------------
 Rotational constants (GHZ):      5.6796206      0.7457637      0.6592065

 **********************************************************************

            Population analysis using the SCF density.

 **********************************************************************

 Orbital symmetries:
       Occupied  (A) (A) (A) (A) (A) (A) (A) (A) (A) (A) (A) (A)
                 (A) (A) (A) (A) (A) (A) (A) (A) (A) (A) (A) (A)
                 (A) (A) (A) (A) (A) (A) (A) (A) (A)
       Virtual   (A) (A) (A) (A) (A) (A) (A) (A) (A) (A) (A) (A)
                 (A) (A) (A) (A) (A) (A) (A) (A) (A) (A) (A) (A)
                 (A) (A) (A) (A) (A) (A) (A) (A) (A) (A) (A) (A)
                 (A) (A) (A) (A) (A) (A) (A) (A) (A) (A) (A) (A)
                 (A) (A) (A) (A) (A) (A) (A) (A) (A) (A) (A) (A)
                 (A) (A) (A) (A) (A) (A) (A) (A) (A) (A) (A) (A)
                 (A) (A) (A) (A) (A) (A) (A) (A) (A) (A) (A) (A)
                 (A) (A) (A) (A) (A) (A) (A) (A) (A) (A) (A) (A)
                 (A) (A) (A) (A) (A) (A)
 The electronic state is 1-A.
 Alpha  occ. eigenvalues --  -10.60972 -10.57476 -10.57474 -10.57192 -10.57182
 Alpha  occ. eigenvalues --  -10.56951  -7.10025  -5.09650  -5.08257  -5.08248
 Alpha  occ. eigenvalues --   -2.06495  -2.05985  -2.05968  -2.04827  -2.04825
 Alpha  occ. eigenvalues --   -0.96866  -0.86119  -0.84814  -0.77437  -0.69654
 Alpha  occ. eigenvalues --   -0.67398  -0.59803  -0.53607  -0.52804  -0.50250
 Alpha  occ. eigenvalues --   -0.47360  -0.45967  -0.42074  -0.39341  -0.35511
 Alpha  occ. eigenvalues --   -0.32218  -0.31720  -0.28934
 Alpha virt. eigenvalues --    0.00757   0.01078   0.01292   0.10701   0.13443
 Alpha virt. eigenvalues --    0.15389   0.17746   0.18406   0.18412   0.27988
 Alpha virt. eigenvalues --    0.28513   0.32059   0.32573   0.33771   0.39390
 Alpha virt. eigenvalues --    0.39651   0.41555   0.44187   0.44331   0.45135
 Alpha virt. eigenvalues --    0.45200   0.45941   0.47245   0.47593   0.51740
 Alpha virt. eigenvalues --    0.52043   0.52263   0.52559   0.58046   0.60825
 Alpha virt. eigenvalues --    0.61553   0.63943   0.65080   0.68297   0.68876
 Alpha virt. eigenvalues --    0.70589   0.70914   0.72074   0.74163   0.76069
 Alpha virt. eigenvalues --    0.76866   0.77495   0.79164   0.80178   0.86535
 Alpha virt. eigenvalues --    0.91677   0.92072   0.98078   1.08638   1.10906
 Alpha virt. eigenvalues --    1.22695   1.28663   1.29196   1.29222   1.30858
 Alpha virt. eigenvalues --    1.32474   1.34979   1.51048   1.51430   1.69803
 Alpha virt. eigenvalues --    1.70037   1.73816   1.75955   1.77931   1.78339
 Alpha virt. eigenvalues --    1.78648   1.81532   1.82016   1.85315   1.87987
 Alpha virt. eigenvalues --    1.94956   1.97097   2.00009   2.00689   2.04233
 Alpha virt. eigenvalues --    2.11060   2.15336   2.15642   2.19386   2.28252
 Alpha virt. eigenvalues --    2.31146   2.32331   2.32928   2.35058   2.36326
 Alpha virt. eigenvalues --    2.54198   2.60638   2.61454   2.65169   2.73267
 Alpha virt. eigenvalues --    2.73328   2.81132   2.86386   2.87918   3.01840
 Alpha virt. eigenvalues --    3.11000   3.19193   3.58475  18.61964  18.79922
 Alpha virt. eigenvalues --   19.19411  55.87107
          Condensed to atoms (all electrons):
               1          2          3          4          5          6
     1  C    5.098270   0.286104   0.084756  -0.166988   0.084757   0.286104
     2  C    0.286104   5.013667   0.332594   0.089634  -0.123930   0.076722
     3  C    0.084756   0.332594   5.054221   0.270028   0.046501  -0.123930
     4  C   -0.166988   0.089634   0.270028   5.474859   0.270030   0.089633
     5  C    0.084757  -0.123930   0.046501   0.270030   5.054228   0.332593
     6  C    0.286104   0.076722  -0.123930   0.089633   0.332593   5.013662
     7  I    0.001110   0.003965  -0.072960   0.266425  -0.072958   0.003965
     8  H    0.449968  -0.068254   0.013891  -0.001855   0.013891  -0.068256
     9  H   -0.069667   0.452100  -0.069954   0.015543  -0.002000   0.013718
    10  H    0.012877  -0.054001   0.444467  -0.068358   0.012155  -0.001513
    11  H    0.012877  -0.001513   0.012155  -0.068357   0.444466  -0.054000
    12  H   -0.069668   0.013718  -0.002000   0.015544  -0.069954   0.452102
               7          8          9         10         11         12
     1  C    0.001110   0.449968  -0.069667   0.012877   0.012877  -0.069668
     2  C    0.003965  -0.068254   0.452100  -0.054001  -0.001513   0.013718
     3  C   -0.072960   0.013891  -0.069954   0.444467   0.012155  -0.002000
     4  C    0.266425  -0.001855   0.015543  -0.068358  -0.068357   0.015544
     5  C   -0.072958   0.013891  -0.002000   0.012155   0.444466  -0.069954
     6  C    0.003965  -0.068256   0.013718  -0.001513  -0.054000   0.452102
     7  I   24.818844   0.000031  -0.000249  -0.003564  -0.003564  -0.000249
     8  H    0.000031   0.655305  -0.011591  -0.000208  -0.000208  -0.011591
     9  H   -0.000249  -0.011591   0.652306  -0.011936   0.000023  -0.000236
    10  H   -0.003564  -0.000208  -0.011936   0.637345  -0.000197   0.000023
    11  H   -0.003564  -0.000208   0.000023  -0.000197   0.637343  -0.011937
    12  H   -0.000249  -0.011591  -0.000236   0.000023  -0.011937   0.652308
 Mulliken charges:
               1
     1  C   -0.010499
     2  C   -0.020805
     3  C    0.010230
     4  C   -0.186138
     5  C    0.010222
     6  C   -0.020801
     7  I    0.059205
     8  H    0.028878
     9  H    0.031943
    10  H    0.032911
    11  H    0.032914
    12  H    0.031940
 Sum of Mulliken charges =   0.00000
 Mulliken charges with hydrogens summed into heavy atoms:
               1
     1  C    0.018379
     2  C    0.011138
     3  C    0.043141
     4  C   -0.186138
     5  C    0.043136
     6  C    0.011138
     7  I    0.059205
 Electronic spatial extent (au):  <R**2>=           1293.3527
 Charge=              0.0000 electrons
 Dipole moment (field-independent basis, Debye):
    X=             -1.6275    Y=              0.0000    Z=              0.0000  Tot=              1.6275
 Quadrupole moment (field-independent basis, Debye-Ang):
   XX=            -54.2997   YY=            -56.8003   ZZ=            -66.0418
   XY=              0.0000   XZ=              0.0000   YZ=              0.0000
 Traceless Quadrupole moment (field-independent basis, Debye-Ang):
   XX=              4.7476   YY=              2.2470   ZZ=             -6.9945
   XY=              0.0000   XZ=              0.0000   YZ=              0.0000
 Octapole moment (field-independent basis, Debye-Ang**2):
  XXX=             63.7315  YYY=             -0.0002  ZZZ=              0.0000  XYY=             16.5377
  XXY=              0.0002  XXZ=             -0.0001  XZZ=             33.8688  YZZ=              0.0000
  YYZ=             -0.0001  XYZ=              0.0000
 Hexadecapole moment (field-independent basis, Debye-Ang**3):
 XXXX=          -1333.6658 YYYY=           -298.8220 ZZZZ=            -81.3196 XXXY=             -0.0006
 XXXZ=             -0.0001 YYYX=              0.0003 YYYZ=             -0.0001 ZZZX=              0.0000
 ZZZY=              0.0000 XXYY=           -281.1548 XXZZ=           -287.7467 YYZZ=            -74.1494
 XXYZ=             -0.0001 YYXZ=              0.0003 ZZXY=              0.0000
 N-N= 3.523118407508D+02 E-N=-1.870577484824D+03  KE= 3.424288268639D+02
 1\1\GINC-KATANA1\FOpt\RM062X\def2SVP\C6H5I1\Z5358697\16-Mar-2025\0\\#m
 062X/def2SVP OPT Freq=noraman\\iodobenzene\\0,1\C,1.8853397709,-1.0362
 092407,-0.1185226959\C,2.9192590263,-1.6297415303,0.6040160894\C,2.883
 3211632,-1.6546771816,1.9979395312\C,1.8001790596,-1.0784408577,2.6594
 443717\C,0.7590430836,-0.481387478,1.9506613595\C,0.8085561322,-0.4639
 455352,0.5570305513\I,1.7356187912,-1.1104782801,4.7657552387\H,1.9187
 710903,-1.0196337982,-1.2088322667\H,3.7658839031,-2.0800256504,0.0828
 870582\H,3.6923558567,-2.119106788,2.5633513238\H,-0.0835361371,-0.033
 5856777,2.4793068114\H,-0.00499174,0.0027320177,-0.0010373728\\Version
 =ES64L-G09RevD.01\State=1-A\HF=-528.9931369\RMSD=3.912e-09\RMSF=1.946e
 -04\Dipole=0.0196138,0.0097268,-0.6399513\Quadrupole=0.0706808,-3.5927
 686,3.5220878,-2.9026997,-0.1501509,-0.1972741\PG=C01 [X(C6H5I1)]\\@


 FRICTION IS A DRAG,
 AND ENTROPY AIN'T WHAT IT USED TO BE.
 Job cpu time:       0 days  0 hours  1 minutes 35.3 seconds.
 File lengths (MBytes):  RWF=    137 Int=      0 D2E=      0 Chk=      3 Scr=      2
 Normal termination of Gaussian 09 at Sun Mar 16 20:22:44 2025.
 Link1:  Proceeding to internal job step number  2.
 -------------------------------------------------------------------
 #N Geom=AllCheck Guess=TCheck SCRF=Check GenChk RM062X/def2SVP Freq
 -------------------------------------------------------------------
 1/10=4,29=7,30=1,38=1,40=1/1,3;
 2/12=2,40=1/2;
 3/5=43,7=101,11=2,14=-4,16=1,25=1,30=1,70=2,71=2,74=-55,116=1,140=1/1,2,3;
 4/5=101/1;
 5/5=2,98=1/2;
 8/6=4,10=90,11=11/1;
 11/6=1,8=1,9=11,15=111,16=1/1,2,10;
 10/6=1/2;
 6/7=2,8=2,9=2,10=2,18=1,28=1/1;
 7/8=1,10=1,25=1/1,2,3,16;
 1/10=4,30=1/3;
 99//99;
 Structure from the checkpoint file:  "/srv/scratch/z5358697/gauss/Gau-1923820.chk"
 -----------
 iodobenzene
 -----------
 Charge =  0 Multiplicity = 1
 Redundant internal coordinates found in file.
 C,0,1.8853397709,-1.0362092407,-0.1185226959
 C,0,2.9192590263,-1.6297415303,0.6040160894
 C,0,2.8833211632,-1.6546771816,1.9979395312
 C,0,1.8001790596,-1.0784408577,2.6594443717
 C,0,0.7590430836,-0.481387478,1.9506613595
 C,0,0.8085561322,-0.4639455352,0.5570305513
 I,0,1.7356187912,-1.1104782801,4.7657552387
 H,0,1.9187710903,-1.0196337982,-1.2088322667
 H,0,3.7658839031,-2.0800256504,0.0828870582
 H,0,3.6923558567,-2.119106788,2.5633513238
 H,0,-0.0835361371,-0.0335856777,2.4793068114
 H,0,-0.00499174,0.0027320177,-0.0010373728
 Recover connectivity data from disk.

 GradGradGradGradGradGradGradGradGradGradGradGradGradGradGradGradGradGrad
 Berny optimization.
 Initialization pass.
                           ----------------------------
                           !    Initial Parameters    !
                           ! (Angstroms and Degrees)  !
 --------------------------                            --------------------------
 ! Name  Definition              Value          Derivative Info.                !
 --------------------------------------------------------------------------------
 ! R1    R(1,2)                  1.394          calculate D2E/DX2 analytically  !
 ! R2    R(1,6)                  1.394          calculate D2E/DX2 analytically  !
 ! R3    R(1,8)                  1.0909         calculate D2E/DX2 analytically  !
 ! R4    R(2,3)                  1.3946         calculate D2E/DX2 analytically  !
 ! R5    R(2,9)                  1.0914         calculate D2E/DX2 analytically  !
 ! R6    R(3,4)                  1.3939         calculate D2E/DX2 analytically  !
 ! R7    R(3,10)                 1.0908         calculate D2E/DX2 analytically  !
 ! R8    R(4,5)                  1.3938         calculate D2E/DX2 analytically  !
 ! R9    R(4,7)                  2.1075         calculate D2E/DX2 analytically  !
 ! R10   R(5,6)                  1.3946         calculate D2E/DX2 analytically  !
 ! R11   R(5,11)                 1.0908         calculate D2E/DX2 analytically  !
 ! R12   R(6,12)                 1.0914         calculate D2E/DX2 analytically  !
 ! A1    A(2,1,6)              119.7683         calculate D2E/DX2 analytically  !
 ! A2    A(2,1,8)              120.1155         calculate D2E/DX2 analytically  !
 ! A3    A(6,1,8)              120.1161         calculate D2E/DX2 analytically  !
 ! A4    A(1,2,3)              120.4345         calculate D2E/DX2 analytically  !
 ! A5    A(1,2,9)              120.2331         calculate D2E/DX2 analytically  !
 ! A6    A(3,2,9)              119.3324         calculate D2E/DX2 analytically  !
 ! A7    A(2,3,4)              119.1427         calculate D2E/DX2 analytically  !
 ! A8    A(2,3,10)             120.4359         calculate D2E/DX2 analytically  !
 ! A9    A(4,3,10)             120.4214         calculate D2E/DX2 analytically  !
 ! A10   A(3,4,5)              121.0775         calculate D2E/DX2 analytically  !
 ! A11   A(3,4,7)              119.4608         calculate D2E/DX2 analytically  !
 ! A12   A(5,4,7)              119.4617         calculate D2E/DX2 analytically  !
 ! A13   A(4,5,6)              119.1427         calculate D2E/DX2 analytically  !
 ! A14   A(4,5,11)             120.4218         calculate D2E/DX2 analytically  !
 ! A15   A(6,5,11)             120.4355         calculate D2E/DX2 analytically  !
 ! A16   A(1,6,5)              120.4343         calculate D2E/DX2 analytically  !
[...]
 Sum of electronic and zero-point Energies=           -528.902170
 Sum of electronic and thermal Energies=              -528.896365
 Sum of electronic and thermal Enthalpies=            -528.895420
 Sum of electronic and thermal Free Energies=         -528.933836
 
                     E (Thermal)             CV                S
                      KCal/Mol        Cal/Mol-Kelvin    Cal/Mol-Kelvin
 Total                   60.726             21.377             80.853
 Electronic               0.000              0.000              0.000
 Translational            0.889              2.981             41.842
 Rotational               0.889              2.981             29.133
 Vibrational             58.948             15.415              9.878
 Vibration     1          0.621              1.892              2.558
 Vibration     2          0.650              1.802              1.915
 Vibration     3          0.676              1.722              1.573
 Vibration     4          0.778              1.439              0.911
 Vibration     5          0.830              1.311              0.730
 Vibration     6          0.980              0.990              0.417
                       Q            Log10(Q)             Ln(Q)
 Total Bot       0.529310D-27        -27.276290        -62.805978
 Total V=0       0.367750D+15         14.565553         33.538425
 Vib (Bot)       0.890236D-41        -41.050495        -94.522257
 Vib (Bot)    1  0.126898D+01          0.103455          0.238215
 Vib (Bot)    2  0.875144D+00         -0.057920         -0.133367
 Vib (Bot)    3  0.704806D+00         -0.151930         -0.349833
 Vib (Bot)    4  0.425349D+00         -0.371254         -0.854845
 Vib (Bot)    5  0.356020D+00         -0.448526         -1.032769
 Vib (Bot)    6  0.235985D+00         -0.627115         -1.443985
 Vib (V=0)       0.618512D+01          0.791348          1.822146
 Vib (V=0)    1  0.186393D+01          0.270430          0.622689
 Vib (V=0)    2  0.150791D+01          0.178375          0.410723
 Vib (V=0)    3  0.136415D+01          0.134861          0.310530
 Vib (V=0)    4  0.115645D+01          0.063126          0.145352
 Vib (V=0)    5  0.111380D+01          0.046807          0.107777
 Vib (V=0)    6  0.105289D+01          0.022384          0.051540
 Electronic      0.100000D+01          0.000000          0.000000
 Translational   0.114474D+09          8.058707         18.555859
 Rotational      0.519395D+06          5.715498         13.160420
 ***** Axes restored to original set *****
 -------------------------------------------------------------------
 Center     Atomic                   Forces (Hartrees/Bohr)
 Number     Number              X              Y              Z
 -------------------------------------------------------------------
      1        6           0.000001016   -0.000000887   -0.000026421
      2        6           0.000149479   -0.000071623   -0.000324350
      3        6           0.000401797   -0.000233916    0.000390622
      4        6           0.000008419   -0.000000583   -0.000168416
      5        6          -0.000430208    0.000226576    0.000366005
      6        6          -0.000126089    0.000080362   -0.000321191
      7       53          -0.000003464   -0.000001071    0.000103102
      8        1          -0.000007661   -0.000003423    0.000233460
      9        1          -0.000170292    0.000094574   -0.000005162
     10        1          -0.000247794    0.000140643   -0.000128345
     11        1           0.000257631   -0.000138689   -0.000118229
     12        1           0.000167166   -0.000091964   -0.000001077
 -------------------------------------------------------------------
 Cartesian Forces:  Max     0.000430208 RMS     0.000194599
 FormGI is forming the generalized inverse of G from B-inverse, IUseBI=4.

 GradGradGradGradGradGradGradGradGradGradGradGradGradGradGradGradGradGrad
 Berny optimization.
 Internal  Forces:  Max     0.000313227 RMS     0.000106045
 Search for a local minimum.
 Step number   1 out of a maximum of    2
 All quantities printed in internal units (Hartrees-Bohrs-Radians)
 Second derivative matrix not updated -- analytic derivatives used.
 ITU=  0
     Eigenvalues ---    0.01713   0.01772   0.01915   0.02411   0.02535
     Eigenvalues ---    0.02815   0.02987   0.02991   0.03087   0.10690
     Eigenvalues ---    0.11095   0.11432   0.11993   0.12234   0.13928
     Eigenvalues ---    0.17716   0.18819   0.18929   0.21729   0.29212
     Eigenvalues ---    0.36287   0.36351   0.36497   0.36504   0.36640
     Eigenvalues ---    0.44035   0.44291   0.49828   0.50028   0.53960
 Angle between quadratic step and forces=  31.46 degrees.
 Linear search not attempted -- first point.
 Iteration  1 RMS(Cart)=  0.00061306 RMS(Int)=  0.00000033
 Iteration  2 RMS(Cart)=  0.00000039 RMS(Int)=  0.00000001
 Variable       Old X    -DE/DX   Delta X   Delta X   Delta X     New X
                                 (Linear)    (Quad)   (Total)
    R1        2.63434  -0.00007   0.00000  -0.00018  -0.00018   2.63417
    R2        2.63434  -0.00007   0.00000  -0.00017  -0.00017   2.63417
    R3        2.06159  -0.00023   0.00000  -0.00060  -0.00060   2.06099
    R4        2.63543   0.00023   0.00000   0.00048   0.00048   2.63591
    R5        2.06240  -0.00017   0.00000  -0.00048  -0.00048   2.06193
    R6        2.63401   0.00013   0.00000   0.00022   0.00022   2.63422
    R7        2.06138  -0.00031   0.00000  -0.00089  -0.00089   2.06049
    R8        2.63399   0.00013   0.00000   0.00023   0.00023   2.63422
    R9        3.98268   0.00010   0.00000   0.00093   0.00093   3.98361
   R10        2.63545   0.00022   0.00000   0.00046   0.00046   2.63591
   R11        2.06139  -0.00031   0.00000  -0.00090  -0.00090   2.06049
   R12        2.06239  -0.00016   0.00000  -0.00046  -0.00046   2.06193
    A1        2.09035   0.00017   0.00000   0.00093   0.00093   2.09128
    A2        2.09641  -0.00009   0.00000  -0.00046  -0.00046   2.09595
    A3        2.09642  -0.00009   0.00000  -0.00047  -0.00047   2.09595
    A4        2.10198  -0.00004   0.00000  -0.00031  -0.00031   2.10167
    A5        2.09846  -0.00008   0.00000  -0.00074  -0.00074   2.09772
    A6        2.08274   0.00012   0.00000   0.00105   0.00105   2.08380
    A7        2.07943  -0.00011   0.00000  -0.00067  -0.00067   2.07876
    A8        2.10200   0.00009   0.00000   0.00077   0.00077   2.10277
    A9        2.10175   0.00001   0.00000  -0.00010  -0.00010   2.10165
   A10        2.11320   0.00011   0.00000   0.00103   0.00103   2.11423
   A11        2.08499  -0.00006   0.00000  -0.00051  -0.00051   2.08448
   A12        2.08500  -0.00006   0.00000  -0.00052  -0.00052   2.08448
   A13        2.07943  -0.00011   0.00000  -0.00067  -0.00067   2.07876
   A14        2.10176   0.00001   0.00000  -0.00011  -0.00011   2.10165
   A15        2.10200   0.00009   0.00000   0.00078   0.00078   2.10277
   A16        2.10198  -0.00004   0.00000  -0.00031  -0.00031   2.10167
   A17        2.09848  -0.00008   0.00000  -0.00075  -0.00075   2.09772
   A18        2.08273   0.00012   0.00000   0.00106   0.00106   2.08380
    D1       -0.00001   0.00000   0.00000   0.00001   0.00001   0.00000
    D2        3.14158   0.00000   0.00000   0.00002   0.00002  -3.14159
    D3        3.14159   0.00000   0.00000   0.00001   0.00001  -3.14159
    D4       -0.00001   0.00000   0.00000   0.00001   0.00001   0.00000
    D5        0.00001   0.00000   0.00000  -0.00001  -0.00001   0.00000
    D6       -3.14158   0.00000   0.00000  -0.00001  -0.00001   3.14159
    D7       -3.14159   0.00000   0.00000   0.00000   0.00000   3.14159
    D8        0.00000   0.00000   0.00000   0.00000   0.00000   0.00000
    D9        0.00000   0.00000   0.00000   0.00000   0.00000   0.00000
   D10       -3.14159   0.00000   0.00000  -0.00001  -0.00001   3.14159
   D11       -3.14159   0.00000   0.00000  -0.00001  -0.00001   3.14159
   D12        0.00001   0.00000   0.00000  -0.00001  -0.00001   0.00000
   D13        0.00001   0.00000   0.00000  -0.00001  -0.00001   0.00000
   D14        3.14159   0.00000   0.00000   0.00001   0.00001   3.14159
   D15       -3.14159   0.00000   0.00000  -0.00001  -0.00001   3.14159
   D16       -0.00001   0.00000   0.00000   0.00001   0.00001   0.00000
   D17       -0.00001   0.00000   0.00000   0.00001   0.00001   0.00000
   D18        3.14159   0.00000   0.00000   0.00000   0.00000   3.14159
   D19       -3.14159   0.00000   0.00000   0.00000   0.00000  -3.14159
   D20        0.00001   0.00000   0.00000  -0.00001  -0.00001   0.00000
   D21        0.00000   0.00000   0.00000   0.00000   0.00000   0.00000
   D22       -3.14159   0.00000   0.00000   0.00000   0.00000   3.14159
   D23        3.14158   0.00000   0.00000   0.00001   0.00001   3.14159
   D24       -0.00001   0.00000   0.00000   0.00001   0.00001   0.00000
         Item               Value     Threshold  Converged?
 Maximum Force            0.000313     0.000450     YES
 RMS     Force            0.000106     0.000300     YES
 Maximum Displacement     0.002110     0.001800     NO 
 RMS     Displacement     0.000613     0.001200     YES
 Predicted change in Energy=-1.170213D-06
 GradGradGradGradGradGradGradGradGradGradGradGradGradGradGradGradGradGrad

 1\1\GINC-KATANA1\Freq\RM062X\def2SVP\C6H5I1\Z5358697\16-Mar-2025\0\\#N
  Geom=AllCheck Guess=TCheck SCRF=Check GenChk RM062X/def2SVP Freq\\iod
 obenzene\\0,1\C,1.8853397709,-1.0362092407,-0.1185226959\C,2.919259026
 3,-1.6297415303,0.6040160894\C,2.8833211632,-1.6546771816,1.9979395312
 \C,1.8001790596,-1.0784408577,2.6594443717\C,0.7590430836,-0.481387478
 ,1.9506613595\C,0.8085561322,-0.4639455352,0.5570305513\I,1.7356187912
 ,-1.1104782801,4.7657552387\H,1.9187710903,-1.0196337982,-1.2088322667
 \H,3.7658839031,-2.0800256504,0.0828870582\H,3.6923558567,-2.119106788
 ,2.5633513238\H,-0.0835361371,-0.0335856777,2.4793068114\H,-0.00499174
 ,0.0027320177,-0.0010373728\\Version=ES64L-G09RevD.01\State=1-A\HF=-52
 8.9931369\RMSD=1.269e-09\RMSF=1.946e-04\ZeroPoint=0.090967\Thermal=0.0
 967723\Dipole=0.0196137,0.0097269,-0.639951\DipoleDeriv=-0.0947612,-0.
 0103948,-0.0042477,-0.0103947,-0.1080382,-0.0025486,-0.0042446,-0.0025
 514,0.0384205,0.0229675,-0.0699838,0.0144347,-0.0668634,-0.0658114,-0.
 0113079,-0.0827595,0.0423053,0.0011884,-0.0328624,-0.0205142,-0.00456,
 -0.0250835,-0.0569099,0.0133483,0.1377883,-0.065173,-0.4076258,-0.0929
 72,-0.0211758,-0.0354447,-0.0211756,-0.1211501,-0.0185058,-0.0354403,-
 0.0185043,1.0514976,-0.0260774,-0.0252777,0.0272216,-0.0207099,-0.0587
 657,-0.0040233,-0.1151297,0.0744975,-0.4125544,0.01883,-0.0667385,-0.0
 154005,-0.0698596,-0.064686,0.0050518,0.0817902,-0.0485592,0.0041897,-
 0.0189851,0.0036374,0.0103133,0.0036371,-0.0139665,0.0052804,0.0103108
 ,0.0052774,-0.3532348,0.0884659,0.0191144,0.0048427,0.0191145,0.112753
 ,0.0032097,0.0048415,0.0032129,-0.0597874,0.0111261,0.0601755,0.047121
 9,0.0601655,0.0904907,-0.0224314,0.0474554,-0.0226152,0.0120408,0.0562
 209,0.0351985,-0.0305555,0.0358149,0.0978918,0.0188161,-0.0497506,0.02
 94045,0.0571654,0.0512452,0.0359556,0.0313182,0.0353407,0.0992536,-0.0
 154309,0.0505143,-0.0260184,0.0607774,0.0168024,0.0600034,-0.0450438,0
 .0600139,0.0889388,0.0285416,-0.0453758,0.028724,0.0079225\Polar=73.73
 01204,-17.9507776,51.0319069,-1.9388208,-1.7217183,127.9911181\PG=C01 
 [X(C6H5I1)]\NImag=0\\0.57448436,-0.23715947,0.27528400,-0.00952343,-0.
 01475021,0.76681281,-0.24730435,0.10240306,-0.12346559,0.60951723,0.10
 020187,-0.12644119,0.07213636,-0.25605599,0.28504832,-0.05491112,0.034
 32100,-0.19435848,-0.02780885,-0.00291901,0.71233034,0.03809113,-0.015
 13671,-0.02185030,-0.11528784,0.02760283,-0.03087247,0.60448200,-0.013
 44267,0.01636838,0.01323305,0.02526363,-0.08183445,0.02657413,-0.25728
 230,0.28258520,-0.07460443,0.04233248,-0.02736670,0.04196854,-0.013605
 92,-0.36429083,0.02650383,-0.03291255,0.70929342,-0.06866170,0.0332835
 4,-0.00157713,0.03067689,-0.01368497,0.08399367,-0.25622884,0.10356280
 ,0.05369392,0.54571650,0.03328345,-0.02679430,0.00062380,-0.01170154,0
 .01866298,-0.04516745,0.10159839,-0.12054424,-0.02672013,-0.23660614,0
 .24755017,-0.00157709,0.00062372,-0.00074796,0.02223182,-0.01109906,-0
 .02550445,0.11486191,-0.06046115,-0.15561846,-0.00151808,-0.01076434,0
 .47799909,0.03197348,-0.01327027,0.02511136,-0.01731235,0.00662929,-0.
 02977809,-0.04042742,0.02653543,0.02249328,-0.24574853,0.10327321,-0.1
 1736869,0.60860799,-0.01496424,0.01804411,-0.01281423,0.00659964,-0.01
 125311,0.01820815,0.02817361,-0.00609057,-0.01440713,0.10130895,-0.123
 41940,0.06788424,-0.25740150,0.28145942,0.07786521,-0.04191401,-0.0229
 2442,-0.02885892,0.01770149,-0.06253380,-0.02851500,0.01372957,0.07126
 057,-0.05620092,0.03414349,-0.16324304,-0.04054690,0.00416985,0.706281
 31,-0.25821289,0.10051127,0.12273484,-0.04260658,0.02960514,-0.0291307
 0,-0.02108028,0.00673553,0.03163853,0.03698597,-0.01386275,-0.01883876
 ,-0.11559456,0.02761093,-0.02589651,0.60700333,0.10271251,-0.12345464,
 -0.06392456,0.02793998,-0.00649121,0.01393145,0.00670583,-0.01022092,-
 0.01575741,-0.01187938,0.01693469,0.01170303,0.02527173,-0.08175198,0.
 02382226,-0.25599138,0.28574307,0.05418055,-0.02610934,-0.18644741,0.0
 2273180,-0.01467640,0.07592644,0.03255709,-0.01626449,-0.05979775,-0.0
 8060048,0.04577156,-0.03008552,0.04694489,-0.01635789,-0.36404355,0.01
 356413,-0.02580094,0.71414998,0.00049452,-0.00059591,0.00004917,-0.000
 88714,0.00249354,-0.00036571,0.00163215,0.00023236,0.01643866,-0.02289
 818,0.00323854,0.00282196,0.00256460,0.00071120,-0.01448819,-0.0006839
 1,0.00236251,0.00022469,0.02020360,-0.00059591,-0.00025419,-0.00000074
 ,0.00236821,0.00229836,0.00022804,0.00073752,0.00286170,-0.00803636,0.
 00323854,-0.01869861,0.00153963,0.00020604,0.00260627,0.00904489,0.002
 48784,0.00224281,-0.00009288,-0.00652826,0.01178109,0.00004912,-0.0000
 0072,-0.00140387,0.00353798,-0.00192529,0.00279259,0.00070972,0.000639
 96,-0.02910741,0.00282205,0.00153943,-0.11325117,0.00124077,0.00036876
 ,-0.02978395,-0.00367898,0.00206042,0.00264503,-0.00467230,-0.00259745
 ,0.16921111,-0.05492147,0.00816800,0.00908945,0.00573751,-0.00012466,-
 0.02328637,-0.00145812,0.00483533,-0.00218530,-0.00145690,0.00030544,-
 0.00007204,-0.00175287,0.00485695,0.00220585,0.00448366,-0.00095681,0.
 02416499,-0.00002360,-0.00033400,-0.00000539,0.04980973,0.00816810,-0.
 04424640,0.00485770,-0.00099223,0.00427616,0.01329730,0.00484861,0.004
 46011,0.00142455,0.00030549,-0.00107515,-0.00002288,0.00484363,0.00454
 110,-0.00100462,-0.00008935,0.00461968,-0.01290650,-0.00033400,-0.0004
 4464,-0.00001681,-0.01230478,0.03389151,0.00908925,0.00485798,-0.34696
 007,0.00372698,-0.00160361,-0.00992766,-0.00259764,0.00165202,0.000358
 79,-0.00007201,-0.00002285,0.00104092,0.00261820,-0.00123197,0.0005728
 4,-0.00284824,0.00199411,-0.00901687,-0.00000540,-0.00001680,-0.000013
 58,-0.00982554,-0.00539842,0.36378204,-0.01091816,0.00805465,0.0134119
 5,-0.22708283,0.09997759,0.10672143,0.00343695,0.00064530,-0.00245315,
 0.00304463,0.00234326,-0.00001754,0.00012508,-0.00051377,-0.00083246,-
 0.00061005,0.00434319,-0.00318141,0.00003174,0.00002466,-0.00019540,-0
 .00032499,-0.00218383,-0.00004991,0.23383095,0.00891999,-0.00021067,-0
 .00763701,0.09997464,-0.09297204,-0.05616219,-0.00022231,0.00452914,0.
 00178842,0.00234605,0.00598509,0.00038133,-0.00051540,-0.00058526,0.00
 046074,0.00433081,0.00462465,0.00201030,0.00000367,0.00005851,0.000141
 22,-0.00219892,-0.00306967,-0.00012971,-0.11059875,0.08577832,-0.01354
 056,0.00723057,0.01189580,0.10681900,-0.05621601,-0.12395178,0.0245654
 5,-0.01311552,-0.00909058,-0.00011010,0.00043238,-0.00428285,-0.000781
 11,0.00043230,-0.00089904,-0.00279681,0.00179813,-0.00087506,0.0004583
 7,-0.00021940,-0.00097630,0.00042114,-0.00038950,0.00060889,-0.1141409
 3,0.05977030,0.12610789,0.00286824,0.00242037,0.00083323,0.00535145,-0
 .00044582,0.00295993,-0.21266380,0.09954002,-0.11119324,-0.01223713,0.
 00831886,-0.01353239,-0.00088764,0.00388210,0.00330547,0.00007828,-0.0
 0053729,0.00087102,-0.00025842,-0.00078182,-0.00038672,0.00012800,-0.0
 0005147,0.00019303,-0.00066328,-0.00205887,-0.00023699,0.21903568,0.00
 240604,0.00597928,-0.00006000,0.00038709,0.00454029,-0.00118997,0.0996
 1372,-0.09570006,0.06438904,0.00746320,-0.00229315,0.00724214,0.003897
 49,0.00424373,-0.00159503,-0.00053724,-0.00053316,-0.00048401,-0.00082
 500,-0.00124783,0.00014431,-0.00001186,0.00005530,-0.00008780,-0.00206
 869,-0.00326702,-0.00004378,-0.11034680,0.08892723,0.00127638,-0.00030
 444,-0.00514106,-0.02297614,0.01311651,-0.00906567,-0.11349004,0.06565
 618,-0.13378236,0.01311610,-0.00745761,0.00898809,0.00282599,-0.001330
 60,-0.00076609,0.00087141,-0.00048413,-0.00073781,0.00095754,-0.000597
 19,0.00045051,-0.00104070,0.00059276,-0.00053578,0.00006724,-0.0002116
 0,0.00102549,0.11787936,-0.06865316,0.13888137,0.00296268,0.00240332,-
 0.00026306,0.00018274,-0.00054022,-0.00083187,-0.00051943,0.00388710,-
 0.00317504,-0.01219760,0.00746214,0.01247222,-0.22628959,0.09999532,0.
 10866516,0.00407307,0.00042318,-0.00214272,-0.00021939,-0.00082614,0.0
 0032078,0.00007374,-0.00001032,-0.00015610,-0.00024667,-0.00039065,0.0
 0002336,-0.00051041,0.00041286,0.00058223,0.23335425,0.00241764,0.0059
 5311,0.00054699,-0.00054023,-0.00056176,0.00045779,0.00387171,0.004143
 14,0.00198816,0.00831761,-0.00230383,-0.00710137,0.09992185,-0.0919660
 3,-0.05720549,-0.00040979,0.00489025,0.00159491,-0.00078296,-0.0012586
 2,-0.00024505,-0.00004994,0.00007016,0.00010353,-0.00039120,-0.0007362
 8,-0.00004485,0.00045208,0.00003325,-0.00033315,-0.11074800,0.08500349
 ,-0.00070626,0.00079142,-0.00520972,-0.00083222,0.00045805,-0.00081367
 ,-0.00269554,0.00172372,-0.00103340,-0.01417624,0.00759805,0.00895949,
 0.11096209,-0.05847224,-0.12388263,0.02379299,-0.01271171,-0.00813761,
 -0.00102335,0.00049640,0.00042227,0.00107765,-0.00057702,-0.00049637,0
 .00004005,-0.00005405,0.00004185,-0.00064000,0.00034104,0.00064560,-0.
 11556538,0.06045191,0.12847855,-0.01085585,0.00891815,-0.01455048,-0.0
 0098474,0.00434139,0.00331015,0.00002349,-0.00051253,0.00087441,0.0030
 0490,0.00234713,0.00053667,0.00474180,-0.00025920,0.00329723,-0.213836
 05,0.09960593,-0.10931455,0.00004402,0.00000332,0.00025836,-0.00029468
 ,-0.00219986,-0.00007262,-0.00062337,0.00040972,-0.00068083,-0.0002409
 7,-0.00039081,-0.00006938,-0.00066340,-0.00205877,-0.00023378,0.219684
 85,0.00805269,-0.00022748,0.00778883,0.00435373,0.00472767,-0.00157924
 ,-0.00051092,-0.00055742,-0.00048316,0.00234430,0.00599576,0.00007471,
 0.00060849,0.00417170,-0.00135315,0.09960898,-0.09660324,0.06331568,0.
 00002431,0.00005516,-0.00010879,-0.00218475,-0.00307815,-0.00011647,0.
 00036759,-0.00013477,0.00036538,-0.00039136,-0.00073785,0.00000644,-0.
 00206858,-0.00326686,-0.00004556,-0.11020448,0.08965549,0.01240237,-0.
 00707844,0.01185109,0.00292558,-0.00136711,-0.00060303,0.00082299,-0.0
 0045491,-0.00082530,0.00062923,0.00002368,-0.00425412,-0.02372179,0.01
 355076,-0.01003819,-0.10941189,0.06336934,-0.13357985,-0.00039544,0.00
 025185,-0.00098523,-0.00054375,0.00014343,0.00058686,0.00063013,-0.000
 35775,0.00039569,-0.00005268,-0.00000277,0.00003772,0.00007043,-0.0002
 1338,0.00102564,0.11664483,-0.06786470,0.13638872\\-0.00000102,0.00000
 089,0.00002642,-0.00014948,0.00007162,0.00032435,-0.00040180,0.0002339
 2,-0.00039062,-0.00000842,0.00000058,0.00016842,0.00043021,-0.00022658
 ,-0.00036600,0.00012609,-0.00008036,0.00032119,0.00000346,0.00000107,-
 0.00010310,0.00000766,0.00000342,-0.00023346,0.00017029,-0.00009457,0.
 00000516,0.00024779,-0.00014064,0.00012834,-0.00025763,0.00013869,0.00
 011823,-0.00016717,0.00009196,0.00000108\\\@


 ONLY THE DAY DAWNS TO WHICH YOU ARE AWAKE.

                                 -- THOREAU
 Job cpu time:       0 days  0 hours  2 minutes 40.3 seconds.
 File lengths (MBytes):  RWF=    137 Int=      0 D2E=      0 Chk=      3 Scr=      2
 Normal termination of Gaussian 09 at Sun Mar 16 20:25:27 2025.
