 Entering Gaussian System, Link 0=g09
 Initial command:
 /apps/z_install_tree/linux-rocky8-ivybridge/gcc-12.2.0/gaussian-09-D.01-wczn3gur5lpur3omlkzwa2l5ecyxp5ef/g09/l1.exe "/srv/scratch/z5358697/gauss/Gau-370153.inp" -scrdir="/srv/scratch/z5358697/gauss/"
 Entering Link 1 = /apps/z_install_tree/linux-rocky8-ivybridge/gcc-12.2.0/gaussian-09-D.01-wczn3gur5lpur3omlkzwa2l5ecyxp5ef/g09/l1.exe PID=    370154.
  
 Copyright (c) 1988,1990,1992,1993,1995,1998,2003,2009,2013,
            Gaussian, Inc.  All Rights Reserved.
  
 This is part of the Gaussian(R) 09 program.  It is based on
 the Gaussian(R) 03 system (copyright 2003, Gaussian, Inc.),
 the Gaussian(R) 98 system (copyright 1998, Gaussian, Inc.),
 the Gaussian(R) 94 system (copyright 1995, Gaussian, Inc.),
 the Gaussian 92(TM) system (copyright 1992, Gaussian, Inc.),
 the Gaussian 90(TM) system (copyright 1990, Gaussian, Inc.),
 the Gaussian 88(TM) system (copyright 1988, Gaussian, Inc.),
 the Gaussian 86(TM) system (copyright 1986, Carnegie Mellon
 University), and the Gaussian 82(TM) system (copyright 1983,
 Carnegie Mellon University). Gaussian is a federally registered
 trademark of Gaussian, Inc.
  
 This software contains proprietary and confidential information,
 including trade secrets, belonging to Gaussian, Inc.
  
 This software is provided under written license and may be
 used, copied, transmitted, or stored only in accord with that
 written license.
  
 The following legend is applicable only to US Government
 contracts under FAR:
  
                    RESTRICTED RIGHTS LEGEND
  
 Use, reproduction and disclosure by the US Government is
 subject to restrictions as set forth in subparagraphs (a)
 and (c) of the Commercial Computer Software - Restricted
 Rights clause in FAR 52.227-19.
  
 Gaussian, Inc.
 340 Quinnipiac St., Bldg. 40, Wallingford CT 06492
  
  
 ---------------------------------------------------------------
 Warning -- This program may not be used in any manner that
 competes with the business of Gaussian, Inc. or will provide
 assistance to any competitor of Gaussian, Inc.  The licensee
 of this program is prohibited from giving any competitor of
 Gaussian, Inc. access to this program.  By using this program,
 the user acknowledges that Gaussian, Inc. is engaged in the
 business of creating and licensing software in the field of
 computational chemistry and represents and warrants to the
 licensee that it is not a competitor of Gaussian, Inc. and that
 it will not use this program in any manner prohibited above.
 ---------------------------------------------------------------
  

 Cite this work as:
 Gaussian 09, Revision D.01,
 M. J. Frisch, G. W. Trucks, H. B. Schlegel, G. E. Scuseria, 
 M. A. Robb, J. R. Cheeseman, G. Scalmani, V. Barone, B. Mennucci, 
 G. A. Petersson, H. Nakatsuji, M. Caricato, X. Li, H. P. Hratchian, 
 A. F. Izmaylov, J. Bloino, G. Zheng, J. L. Sonnenberg, M. Hada, 
 M. Ehara, K. Toyota, R. Fukuda, J. Hasegawa, M. Ishida, T. Nakajima, 
 Y. Honda, O. Kitao, H. Nakai, T. Vreven, J. A. Montgomery, Jr., 
 J. E. Peralta, F. Ogliaro, M. Bearpark, J. J. Heyd, E. Brothers, 
 K. N. Kudin, V. N. Staroverov, T. Keith, R. Kobayashi, J. Normand, 
 K. Raghavachari, A. Rendell, J. C. Burant, S. S. Iyengar, J. Tomasi, 
 M. Cossi, N. Rega, J. M. Millam, M. Klene, J. E. Knox, J. B. Cross, 
 V. Bakken, C. Adamo, J. Jaramillo, R. Gomperts, R. E. Stratmann, 
 O. Yazyev, A. J. Austin, R. Cammi, C. Pomelli, J. W. Ochterski, 
 R. L. Martin, K. Morokuma, V. G. Zakrzewski, G. A. Voth, 
 P. Salvador, J. J. Dannenberg, S. Dapprich, A. D. Daniels, 
 O. Farkas, J. B. Foresman, J. V. Ortiz, J. Cioslowski, 
 and D. J. Fox, Gaussian, Inc., Wallingford CT, 2013.
 
 ******************************************
 Gaussian 09:  ES64L-G09RevD.01 24-Apr-2013
                13-Mar-2025 
 ******************************************
 ---------------------------------
 #m062X/6-31+G(d) OPT Freq=noraman
 ---------------------------------
 1/14=-1,18=20,19=15,26=3,38=1/1,3;
 2/9=110,12=2,17=6,18=5,40=1/2;
 3/5=1,6=6,7=11,11=2,16=1,25=1,30=1,71=1,74=-55/1,2,3;
 4//1;
 5/5=2,38=5/2;
 6/7=2,8=2,9=2,10=2,28=1/1;
 7//1,2,3,16;
 1/14=-1,18=20,19=15,26=3/3(2);
 2/9=110/2;
 99//99;
 2/9=110/2;
 3/5=1,6=6,7=11,11=2,16=1,25=1,30=1,71=1,74=-55/1,2,3;
 4/5=5,16=3,69=1/1;
 5/5=2,38=5/2;
 7//1,2,3,16;
 1/14=-1,18=20,19=15,26=3/3(-5);
 2/9=110/2;
 6/7=2,8=2,9=2,10=2,19=2,28=1/1;
 99/9=1/99;
 ---------------------
 chloro(fluoro)methane
 ---------------------
 Symbolic Z-matrix:
 Charge =  0 Multiplicity = 1
 C                     0.1087   -0.0108   -0.0646 
 F                    -0.6737    0.0934   -1.1682 
 Cl                   -0.8928    0.0735    1.386 
 H                     0.8258    0.8132   -0.0612 
 H                     0.632    -0.9694   -0.092 
 

 GradGradGradGradGradGradGradGradGradGradGradGradGradGradGradGradGradGrad
 Berny optimization.
 Initialization pass.
                           ----------------------------
                           !    Initial Parameters    !
                           ! (Angstroms and Degrees)  !
 --------------------------                            --------------------------
 ! Name  Definition              Value          Derivative Info.                !
 --------------------------------------------------------------------------------
 ! R1    R(1,2)                  1.3568         estimate D2E/DX2                !
 ! R2    R(1,3)                  1.7648         estimate D2E/DX2                !
 ! R3    R(1,4)                  1.0923         estimate D2E/DX2                !
 ! R4    R(1,5)                  1.0925         estimate D2E/DX2                !
 ! A1    A(2,1,3)              109.7348         estimate D2E/DX2                !
 ! A2    A(2,1,4)              108.8538         estimate D2E/DX2                !
 ! A3    A(2,1,5)              108.8566         estimate D2E/DX2                !
 ! A4    A(3,1,4)              109.5093         estimate D2E/DX2                !
 ! A5    A(3,1,5)              109.534          estimate D2E/DX2                !
 ! A6    A(4,1,5)              110.3359         estimate D2E/DX2                !
 ! D1    D(2,1,4,3)            119.969          estimate D2E/DX2                !
 ! D2    D(2,1,5,3)           -119.9855         estimate D2E/DX2                !
 ! D3    D(2,1,5,4)            119.3906         estimate D2E/DX2                !
 ! D4    D(3,1,5,4)           -120.624          estimate D2E/DX2                !
 --------------------------------------------------------------------------------
 Trust Radius=3.00D-01 FncErr=1.00D-07 GrdErr=1.00D-06
 Number of steps in this run=     24 maximum allowed number of steps=    100.
 GradGradGradGradGradGradGradGradGradGradGradGradGradGradGradGradGradGrad

                          Input orientation:                          
 ---------------------------------------------------------------------
 Center     Atomic      Atomic             Coordinates (Angstroms)
 Number     Number       Type             X           Y           Z
 ---------------------------------------------------------------------
      1          6           0        0.108700   -0.010800   -0.064600
      2          9           0       -0.673700    0.093400   -1.168200
      3         17           0       -0.892800    0.073500    1.386000
      4          1           0        0.825800    0.813200   -0.061200
      5          1           0        0.632000   -0.969400   -0.092000
 ---------------------------------------------------------------------
                    Distance matrix (angstroms):
                    1          2          3          4          5
     1  C    0.000000
     2  F    1.356813   0.000000
     3  Cl   1.764752   2.563657   0.000000
     4  H    1.092346   1.998014   2.365403   0.000000
     5  H    1.092478   1.998150   2.365827   1.793368   0.000000
 Stoichiometry    CH2ClF
 Framework group  C1[X(CH2ClF)]
 Deg. of freedom     9
 Full point group                 C1      NOp   1
 Largest Abelian subgroup         C1      NOp   1
 Largest concise Abelian subgroup C1      NOp   1
                         Standard orientation:                         
 ---------------------------------------------------------------------
 Center     Atomic      Atomic             Coordinates (Angstroms)
 Number     Number       Type             X           Y           Z
 ---------------------------------------------------------------------
      1          6           0       -0.561008    0.572157    0.000016
      2          9           0       -1.480638   -0.425450   -0.000014
      3         17           0        1.064222   -0.115574   -0.000014
      4          1           0       -0.699815    1.180186    0.896818
      5          1           0       -0.700165    1.180690   -0.896550
 ---------------------------------------------------------------------
 Rotational constants (GHZ):     41.8419351      5.7632382      5.2356197
 Standard basis: 6-31+G(d) (6D, 7F)
 There are    65 symmetry adapted cartesian basis functions of A   symmetry.
 There are    65 symmetry adapted basis functions of A   symmetry.
    65 basis functions,   128 primitive gaussians,    65 cartesian basis functions
    17 alpha electrons       17 beta electrons
       nuclear repulsion energy       101.7087690135 Hartrees.
 NAtoms=    5 NActive=    5 NUniq=    5 SFac= 1.00D+00 NAtFMM=   60 NAOKFM=F Big=F
 Integral buffers will be    131072 words long.
 Raffenetti 2 integral format.
 Two-electron integral symmetry is turned on.
 One-electron integrals computed using PRISM.
 NBasis=    65 RedAO= T EigKep=  1.17D-03  NBF=    65
 NBsUse=    65 1.00D-06 EigRej= -1.00D+00 NBFU=    65
 ExpMin= 4.38D-02 ExpMax= 2.52D+04 ExpMxC= 3.78D+03 IAcc=2 IRadAn=         4 AccDes= 0.00D+00
 Harris functional with IExCor= 1009 and IRadAn=       4 diagonalized for initial guess.
 HarFok:  IExCor= 1009 AccDes= 0.00D+00 IRadAn=         4 IDoV= 1 UseB2=F ITyADJ=14
 ICtDFT=  3500011 ScaDFX=  1.000000  1.000000  1.000000  1.000000
 FoFCou: FMM=F IPFlag=           0 FMFlag=      100000 FMFlg1=           0
         NFxFlg=           0 DoJE=T BraDBF=F KetDBF=T FulRan=T
         wScrn=  0.000000 ICntrl=     500 IOpCl=  0 I1Cent=   200000004 NGrid=           0
         NMat0=    1 NMatS0=      1 NMatT0=    0 NMatD0=    1 NMtDS0=    0 NMtDT0=    0
 Petite list used in FoFCou.
 Keep R1 ints in memory in canonical form, NReq=3219953.
 Requested convergence on RMS density matrix=1.00D-08 within 128 cycles.
 Requested convergence on MAX density matrix=1.00D-06.
 Requested convergence on             energy=1.00D-06.
 No special actions if energy rises.
 SCF Done:  E(RM062X) =  -599.254202785     A.U. after   11 cycles
            NFock= 11  Conv=0.49D-08     -V/T= 2.0037

 **********************************************************************

            Population analysis using the SCF density.

 **********************************************************************

 Orbital symmetries:
       Occupied  (A) (A) (A) (A) (A) (A) (A) (A) (A) (A) (A) (A)
                 (A) (A) (A) (A) (A)
       Virtual   (A) (A) (A) (A) (A) (A) (A) (A) (A) (A) (A) (A)
                 (A) (A) (A) (A) (A) (A) (A) (A) (A) (A) (A) (A)
                 (A) (A) (A) (A) (A) (A) (A) (A) (A) (A) (A) (A)
                 (A) (A) (A) (A) (A) (A) (A) (A) (A) (A) (A) (A)
 The electronic state is 1-A.
 Alpha  occ. eigenvalues -- -102.67673 -25.28572 -10.69859  -9.82487  -7.54890
 Alpha  occ. eigenvalues --   -7.54224  -7.54183  -1.38266  -0.97357  -0.78837
 Alpha  occ. eigenvalues --   -0.62397  -0.62186  -0.58433  -0.47626  -0.46000
 Alpha  occ. eigenvalues --   -0.39635  -0.37942
 Alpha virt. eigenvalues --    0.01746   0.03398   0.04398   0.05231   0.07516
 Alpha virt. eigenvalues --    0.10571   0.10987   0.11970   0.17283   0.19983
 Alpha virt. eigenvalues --    0.22002   0.23037   0.29443   0.31462   0.32607
 Alpha virt. eigenvalues --    0.37951   0.59490   0.63157   0.64405   0.66077
 Alpha virt. eigenvalues --    0.66144   0.68969   0.73952   0.91648   0.92585
 Alpha virt. eigenvalues --    0.95670   0.96649   1.02187   1.05138   1.13548
 Alpha virt. eigenvalues --    1.37359   1.50632   1.53725   1.65866   1.66438
 Alpha virt. eigenvalues --    1.70432   1.85283   1.87733   2.03689   2.16458
 Alpha virt. eigenvalues --    2.20676   2.25029   2.45601   2.47745   3.10140
 Alpha virt. eigenvalues --    4.21885   4.44205   5.20359
          Condensed to atoms (all electrons):
               1          2          3          4          5
     1  C    5.126857   0.067034   0.261088   0.390119   0.390081
     2  F    0.067034   9.350536  -0.070345  -0.047938  -0.047934
     3  Cl   0.261088  -0.070345  16.907075  -0.053121  -0.053057
     4  H    0.390119  -0.047938  -0.053121   0.512731  -0.040883
     5  H    0.390081  -0.047934  -0.053057  -0.040883   0.512715
 Mulliken charges:
               1
     1  C   -0.235178
     2  F   -0.251353
     3  Cl   0.008361
     4  H    0.239093
     5  H    0.239078
 Sum of Mulliken charges =   0.00000
 Mulliken charges with hydrogens summed into heavy atoms:
               1
     1  C    0.242992
     2  F   -0.251353
     3  Cl   0.008361
 Electronic spatial extent (au):  <R**2>=            232.9908
 Charge=              0.0000 electrons
 Dipole moment (field-independent basis, Debye):
    X=             -0.3849    Y=              1.9884    Z=              0.0002  Tot=              2.0253
 Quadrupole moment (field-independent basis, Debye-Ang):
   XX=            -26.2230   YY=            -23.1124   ZZ=            -23.5588
   XY=             -2.1907   XZ=              0.0003   YZ=             -0.0002
 Traceless Quadrupole moment (field-independent basis, Debye-Ang):
   XX=             -1.9249   YY=              1.1856   ZZ=              0.7393
   XY=             -2.1907   XZ=              0.0003   YZ=             -0.0002
 Octapole moment (field-independent basis, Debye-Ang**2):
  XXX=             -2.1017  YYY=             -1.1210  ZZZ=              0.0009  XYY=             -3.2427
  XXY=             -0.5517  XXZ=              0.0000  XZZ=             -3.7967  YZZ=              0.5669
  YYZ=             -0.0006  XYZ=              0.0005
 Hexadecapole moment (field-independent basis, Debye-Ang**3):
 XXXX=           -188.9176 YYYY=            -50.8924 ZZZZ=            -30.3348 XXXY=             -1.4434
 XXXZ=              0.0006 YYYX=              2.2841 YYYZ=             -0.0014 ZZZX=              0.0001
 ZZZY=              0.0005 XXYY=            -39.5325 XXZZ=            -37.2969 YYZZ=            -12.4018
 XXYZ=             -0.0007 YYXZ=              0.0011 ZZXY=              0.1179
 N-N= 1.017087690135D+02 E-N=-1.625986018489D+03  KE= 5.970346603657D+02
 Calling FoFJK, ICntrl=      2127 FMM=F ISym2X=0 I1Cent= 0 IOpClX= 0 NMat=1 NMatS=1 NMatT=0.
 ***** Axes restored to original set *****
 -------------------------------------------------------------------
 Center     Atomic                   Forces (Hartrees/Bohr)
 Number     Number              X              Y              Z
 -------------------------------------------------------------------
      1        6           0.010073987   -0.001085183   -0.002400419
      2        9          -0.002720032    0.000353458   -0.003859414
      3       17          -0.000793971    0.000008770    0.003313092
      4        1          -0.003183012    0.000921921    0.001471597
      5        1          -0.003376973   -0.000198967    0.001475145
 -------------------------------------------------------------------
 Cartesian Forces:  Max     0.010073987 RMS     0.003358741

 GradGradGradGradGradGradGradGradGradGradGradGradGradGradGradGradGradGrad
 Berny optimization.
 FormGI is forming the generalized inverse of G from B-inverse, IUseBI=4.
 Internal  Forces:  Max     0.004725728 RMS     0.002284918
 Search for a local minimum.
 Step number   1 out of a maximum of   24
 All quantities printed in internal units (Hartrees-Bohrs-Radians)
 Mixed Optimization -- RFO/linear search
 Second derivative matrix not updated -- first step.
 The second derivative matrix:
                          R1        R2        R3        R4        A1
           R1           0.53597
           R2           0.00000   0.29102
           R3           0.00000   0.00000   0.34543
           R4           0.00000   0.00000   0.00000   0.34528
           A1           0.00000   0.00000   0.00000   0.00000   0.25000
           A2           0.00000   0.00000   0.00000   0.00000   0.00000
           A3           0.00000   0.00000   0.00000   0.00000   0.00000
           A4           0.00000   0.00000   0.00000   0.00000   0.00000
           A5           0.00000   0.00000   0.00000   0.00000   0.00000
           A6           0.00000   0.00000   0.00000   0.00000   0.00000
           D1           0.00000   0.00000   0.00000   0.00000   0.00000
           D2           0.00000   0.00000   0.00000   0.00000   0.00000
           D3           0.00000   0.00000   0.00000   0.00000   0.00000
           D4           0.00000   0.00000   0.00000   0.00000   0.00000
                          A2        A3        A4        A5        A6
           A2           0.16000
           A3           0.00000   0.16000
           A4           0.00000   0.00000   0.16000
           A5           0.00000   0.00000   0.00000   0.16000
           A6           0.00000   0.00000   0.00000   0.00000   0.16000
           D1           0.00000   0.00000   0.00000   0.00000   0.00000
           D2           0.00000   0.00000   0.00000   0.00000   0.00000
           D3           0.00000   0.00000   0.00000   0.00000   0.00000
           D4           0.00000   0.00000   0.00000   0.00000   0.00000
                          D1        D2        D3        D4
           D1           0.00230
           D2           0.00000   0.00230
           D3           0.00000   0.00000   0.00230
           D4           0.00000   0.00000   0.00000   0.00230
 ITU=  0
     Eigenvalues ---    0.05641   0.06854   0.09040   0.16000   0.16774
     Eigenvalues ---    0.29102   0.34528   0.34543   0.53597
 RFO step:  Lambda=-3.60436808D-04 EMin= 5.64064139D-02
 Linear search not attempted -- first point.
 Iteration  1 RMS(Cart)=  0.01211988 RMS(Int)=  0.00022572
 Iteration  2 RMS(Cart)=  0.00014507 RMS(Int)=  0.00012957
 Iteration  3 RMS(Cart)=  0.00000002 RMS(Int)=  0.00012957
 Variable       Old X    -DE/DX   Delta X   Delta X   Delta X     New X
                                 (Linear)    (Quad)   (Total)
    R1        2.56400   0.00473   0.00000   0.00881   0.00881   2.57282
    R2        3.33490   0.00318   0.00000   0.01091   0.01091   3.34580
    R3        2.06423  -0.00139   0.00000  -0.00401  -0.00401   2.06022
    R4        2.06448  -0.00148   0.00000  -0.00427  -0.00427   2.06021
    A1        1.91523   0.00120   0.00000   0.00294   0.00291   1.91815
    A2        1.89986  -0.00108   0.00000   0.00226   0.00197   1.90183
    A3        1.89991  -0.00037   0.00000   0.00232   0.00214   1.90205
    A4        1.91130  -0.00184   0.00000  -0.01863  -0.01844   1.89286
    A5        1.91173  -0.00252   0.00000  -0.01928  -0.01920   1.89253
    A6        1.92572   0.00463   0.00000   0.03068   0.03061   1.95634
    D1        2.09385  -0.00029   0.00000  -0.00620  -0.00622   2.08764
    D2       -2.09414   0.00027   0.00000   0.00656   0.00657  -2.08757
    D3        2.08376   0.00124   0.00000   0.02263   0.02282   2.10658
    D4       -2.10529   0.00097   0.00000   0.01607   0.01625  -2.08903
         Item               Value     Threshold  Converged?
 Maximum Force            0.004726     0.000450     NO 
 RMS     Force            0.002285     0.000300     NO 
 Maximum Displacement     0.018156     0.001800     NO 
 RMS     Displacement     0.012133     0.001200     NO 
 Predicted change in Energy=-1.819276D-04
 GradGradGradGradGradGradGradGradGradGradGradGradGradGradGradGradGradGrad

                          Input orientation:                          
 ---------------------------------------------------------------------
 Center     Atomic      Atomic             Coordinates (Angstroms)
 Number     Number       Type             X           Y           Z
 ---------------------------------------------------------------------
      1          6           0        0.114908   -0.011299   -0.070477
      2          9           0       -0.671571    0.093361   -1.176872
      3         17           0       -0.883866    0.072242    1.389052
      4          1           0        0.818138    0.821667   -0.055535
      5          1           0        0.622392   -0.976071   -0.086167
 ---------------------------------------------------------------------
                    Distance matrix (angstroms):
                    1          2          3          4          5
     1  C    0.000000
     2  F    1.361475   0.000000
     3  Cl   1.770524   2.574778   0.000000
     4  H    1.090223   2.001764   2.354844   0.000000
     5  H    1.090216   2.001915   2.354580   1.808622   0.000000
 Stoichiometry    CH2ClF
 Framework group  C1[X(CH2ClF)]
 Deg. of freedom     9
 Full point group                 C1      NOp   1
 Largest Abelian subgroup         C1      NOp   1
 Largest concise Abelian subgroup C1      NOp   1
                         Standard orientation:                         
 ---------------------------------------------------------------------
 Center     Atomic      Atomic             Coordinates (Angstroms)
 Number     Number       Type             X           Y           Z
 ---------------------------------------------------------------------
      1          6           0       -0.562443    0.574764    0.000003
      2          9           0       -1.489204   -0.422597   -0.000013
      3         17           0        1.067368   -0.116950    0.000008
      4          1           0       -0.684070    1.171472    0.904289
      5          1           0       -0.683692    1.171460   -0.904333
 ---------------------------------------------------------------------
 Rotational constants (GHZ):     41.8712275      5.7164814      5.2004167
 Standard basis: 6-31+G(d) (6D, 7F)
 There are    65 symmetry adapted cartesian basis functions of A   symmetry.
 There are    65 symmetry adapted basis functions of A   symmetry.
    65 basis functions,   128 primitive gaussians,    65 cartesian basis functions
    17 alpha electrons       17 beta electrons
       nuclear repulsion energy       101.4359999417 Hartrees.
 NAtoms=    5 NActive=    5 NUniq=    5 SFac= 1.00D+00 NAtFMM=   60 NAOKFM=F Big=F
 Integral buffers will be    131072 words long.
 Raffenetti 2 integral format.
 Two-electron integral symmetry is turned on.
 One-electron integrals computed using PRISM.
 NBasis=    65 RedAO= T EigKep=  1.18D-03  NBF=    65
 NBsUse=    65 1.00D-06 EigRej= -1.00D+00 NBFU=    65
 Initial guess from the checkpoint file:  "/srv/scratch/z5358697/gauss/Gau-370154.chk"
 B after Tr=     0.000000    0.000000    0.000000
         Rot=    0.999999    0.000056    0.000015    0.001223 Ang=   0.14 deg.
 Keep R1 ints in memory in canonical form, NReq=3219953.
 Requested convergence on RMS density matrix=1.00D-08 within 128 cycles.
 Requested convergence on MAX density matrix=1.00D-06.
 Requested convergence on             energy=1.00D-06.
 No special actions if energy rises.
 SCF Done:  E(RM062X) =  -599.254414824     A.U. after    9 cycles
            NFock=  9  Conv=0.79D-08     -V/T= 2.0037
 Calling FoFJK, ICntrl=      2127 FMM=F ISym2X=0 I1Cent= 0 IOpClX= 0 NMat=1 NMatS=1 NMatT=0.
 ***** Axes restored to original set *****
 -------------------------------------------------------------------
 Center     Atomic                   Forces (Hartrees/Bohr)
 Number     Number              X              Y              Z
 -------------------------------------------------------------------
      1        6           0.003131660   -0.000317612   -0.001320962
      2        9          -0.000125288    0.000003469   -0.000157013
      3       17          -0.001096806    0.000102655    0.001785292
      4        1          -0.000960425    0.000078523   -0.000135424
      5        1          -0.000949140    0.000132966   -0.000171893
 -------------------------------------------------------------------
 Cartesian Forces:  Max     0.003131660 RMS     0.001095119

 GradGradGradGradGradGradGradGradGradGradGradGradGradGradGradGradGradGrad
 Berny optimization.
 Using GEDIIS/GDIIS optimizer.
 FormGI is forming the generalized inverse of G from B-inverse, IUseBI=4.
 Internal  Forces:  Max     0.002099022 RMS     0.000704101
 Search for a local minimum.
 Step number   2 out of a maximum of   24
 All quantities printed in internal units (Hartrees-Bohrs-Radians)
 Mixed Optimization -- En-DIIS/RFO-DIIS
 Update second derivatives using D2CorX and points    1    2
 DE= -2.12D-04 DEPred=-1.82D-04 R= 1.17D+00
 TightC=F SS=  1.41D+00  RLast= 5.25D-02 DXNew= 5.0454D-01 1.5763D-01
 Trust test= 1.17D+00 RLast= 5.25D-02 DXMaxT set to 3.00D-01
 The second derivative matrix:
                          R1        R2        R3        R4        A1
           R1           0.54508
           R2          -0.02496   0.26685
           R3           0.00526   0.00921   0.34244
           R4           0.00495   0.00966  -0.00307   0.34214
           A1           0.00668  -0.00259  -0.00015  -0.00031   0.25223
           A2          -0.01553  -0.00551   0.00330   0.00362  -0.00323
           A3          -0.00384  -0.00288   0.00120   0.00128  -0.00054
           A4           0.01518   0.02056  -0.00710  -0.00734   0.00058
           A5           0.00425   0.01866  -0.00528  -0.00530  -0.00203
           A6          -0.00975  -0.03046   0.00896   0.00905   0.00256
           D1          -0.00129  -0.00023   0.00022   0.00024  -0.00031
           D2           0.00150   0.00027  -0.00025  -0.00028   0.00036
           D3           0.01874   0.00416  -0.00335  -0.00374   0.00432
           D4           0.01724   0.00389  -0.00309  -0.00346   0.00396
                          A2        A3        A4        A5        A6
           A2           0.16153
           A3          -0.00041   0.15968
           A4           0.00639   0.00260   0.14356
           A5           0.00849   0.00260  -0.01327   0.15206
           A6          -0.01306  -0.00417   0.02214   0.01417   0.13513
           D1           0.00025   0.00000   0.00038   0.00063  -0.00094
           D2          -0.00028   0.00000  -0.00044  -0.00073   0.00110
           D3          -0.00313   0.00014  -0.00604  -0.00943   0.01423
           D4          -0.00285   0.00014  -0.00560  -0.00870   0.01313
                          D1        D2        D3        D4
           D1           0.00233
           D2          -0.00003   0.00234
           D3          -0.00040   0.00046   0.00757
           D4          -0.00037   0.00042   0.00481   0.00669
 ITU=  1  0
 Use linear search instead of GDIIS.
     Eigenvalues ---    0.05920   0.06658   0.09169   0.13767   0.16182
     Eigenvalues ---    0.27239   0.34183   0.34536   0.54776
 RFO step:  Lambda=-2.41517842D-05 EMin= 5.92037279D-02
 Quartic linear search produced a step of  0.29092.
 Iteration  1 RMS(Cart)=  0.00425068 RMS(Int)=  0.00004456
 Iteration  2 RMS(Cart)=  0.00001938 RMS(Int)=  0.00003990
 Iteration  3 RMS(Cart)=  0.00000000 RMS(Int)=  0.00003990
 Variable       Old X    -DE/DX   Delta X   Delta X   Delta X     New X
                                 (Linear)    (Quad)   (Total)
    R1        2.57282   0.00019   0.00256  -0.00143   0.00113   2.57395
    R2        3.34580   0.00210   0.00317   0.00702   0.01020   3.35600
    R3        2.06022  -0.00056  -0.00117  -0.00124  -0.00241   2.05782
    R4        2.06021  -0.00055  -0.00124  -0.00117  -0.00241   2.05780
    A1        1.91815   0.00017   0.00085  -0.00170  -0.00088   1.91727
    A2        1.90183  -0.00036   0.00057  -0.00314  -0.00265   1.89917
    A3        1.90205  -0.00041   0.00062  -0.00379  -0.00322   1.89883
    A4        1.89286  -0.00033  -0.00536   0.00167  -0.00364   1.88922
    A5        1.89253  -0.00021  -0.00559   0.00248  -0.00309   1.88944
    A6        1.95634   0.00114   0.00891   0.00444   0.01333   1.96967
    D1        2.08764  -0.00020  -0.00181  -0.00288  -0.00469   2.08295
    D2       -2.08757   0.00016   0.00191   0.00279   0.00470  -2.08287
    D3        2.10658   0.00000   0.00664  -0.00365   0.00304   2.10963
    D4       -2.08903  -0.00015   0.00473  -0.00644  -0.00165  -2.09069
         Item               Value     Threshold  Converged?
 Maximum Force            0.002099     0.000450     NO 
 RMS     Force            0.000704     0.000300     NO 
 Maximum Displacement     0.006769     0.001800     NO 
 RMS     Displacement     0.004241     0.001200     NO 
 Predicted change in Energy=-2.123364D-05
 GradGradGradGradGradGradGradGradGradGradGradGradGradGradGradGradGradGrad

                          Input orientation:                          
 ---------------------------------------------------------------------
 Center     Atomic      Atomic             Coordinates (Angstroms)
 Number     Number       Type             X           Y           Z
 ---------------------------------------------------------------------
      1          6           0        0.118490   -0.011676   -0.071390
      2          9           0       -0.668880    0.092914   -1.177896
      3         17           0       -0.883889    0.072353    1.392189
      4          1           0        0.815323    0.824980   -0.055850
      5          1           0        0.618956   -0.978670   -0.087052
 ---------------------------------------------------------------------
                    Distance matrix (angstroms):
                    1          2          3          4          5
     1  C    0.000000
     2  F    1.362074   0.000000
     3  Cl   1.775919   2.579145   0.000000
     4  H    1.088950   1.999441   2.355968   0.000000
     5  H    1.088939   1.999189   2.356129   1.814577   0.000000
 Stoichiometry    CH2ClF
 Framework group  C1[X(CH2ClF)]
 Deg. of freedom     9
 Full point group                 C1      NOp   1
 Largest Abelian subgroup         C1      NOp   1
 Largest concise Abelian subgroup C1      NOp   1
                         Standard orientation:                         
 ---------------------------------------------------------------------
 Center     Atomic      Atomic             Coordinates (Angstroms)
 Number     Number       Type             X           Y           Z
 ---------------------------------------------------------------------
      1          6           0       -0.565469    0.576208   -0.000004
      2          9           0       -1.491181   -0.422943    0.000023
      3         17           0        1.069713   -0.116661   -0.000005
      4          1           0       -0.685668    1.166357    0.907238
      5          1           0       -0.686005    1.166126   -0.907339
 ---------------------------------------------------------------------
 Rotational constants (GHZ):     41.8345245      5.6943273      5.1826682
 Standard basis: 6-31+G(d) (6D, 7F)
 There are    65 symmetry adapted cartesian basis functions of A   symmetry.
 There are    65 symmetry adapted basis functions of A   symmetry.
    65 basis functions,   128 primitive gaussians,    65 cartesian basis functions
    17 alpha electrons       17 beta electrons
       nuclear repulsion energy       101.2884499991 Hartrees.
 NAtoms=    5 NActive=    5 NUniq=    5 SFac= 1.00D+00 NAtFMM=   60 NAOKFM=F Big=F
 Integral buffers will be    131072 words long.
 Raffenetti 2 integral format.
 Two-electron integral symmetry is turned on.
 One-electron integrals computed using PRISM.
 NBasis=    65 RedAO= T EigKep=  1.20D-03  NBF=    65
 NBsUse=    65 1.00D-06 EigRej= -1.00D+00 NBFU=    65
 Initial guess from the checkpoint file:  "/srv/scratch/z5358697/gauss/Gau-370154.chk"
 B after Tr=     0.000000    0.000000    0.000000
         Rot=    1.000000    0.000024   -0.000015   -0.000249 Ang=   0.03 deg.
 Keep R1 ints in memory in canonical form, NReq=3219953.
 Requested convergence on RMS density matrix=1.00D-08 within 128 cycles.
 Requested convergence on MAX density matrix=1.00D-06.
 Requested convergence on             energy=1.00D-06.
 No special actions if energy rises.
 SCF Done:  E(RM062X) =  -599.254436557     A.U. after    9 cycles
            NFock=  9  Conv=0.37D-08     -V/T= 2.0037
 Calling FoFJK, ICntrl=      2127 FMM=F ISym2X=0 I1Cent= 0 IOpClX= 0 NMat=1 NMatS=1 NMatT=0.
 ***** Axes restored to original set *****
 -------------------------------------------------------------------
 Center     Atomic                   Forces (Hartrees/Bohr)
 Number     Number              X              Y              Z
 -------------------------------------------------------------------
      1        6          -0.000298085    0.000027067   -0.000466211
      2        9          -0.000043944    0.000023144    0.000295815
      3       17           0.000001047   -0.000009758    0.000132520
      4        1           0.000164262   -0.000014423   -0.000000679
      5        1           0.000176720   -0.000026030    0.000038554
 -------------------------------------------------------------------
 Cartesian Forces:  Max     0.000466211 RMS     0.000177980

 GradGradGradGradGradGradGradGradGradGradGradGradGradGradGradGradGradGrad
 Berny optimization.
 Using GEDIIS/GDIIS optimizer.
 FormGI is forming the generalized inverse of G from B-inverse, IUseBI=4.
 Internal  Forces:  Max     0.000229924 RMS     0.000115683
 Search for a local minimum.
 Step number   3 out of a maximum of   24
 All quantities printed in internal units (Hartrees-Bohrs-Radians)
 Mixed Optimization -- En-DIIS/RFO-DIIS
 Swapping is turned off.
 Update second derivatives using D2CorX and points    1    2    3
 DE= -2.17D-05 DEPred=-2.12D-05 R= 1.02D+00
 TightC=F SS=  1.41D+00  RLast= 1.98D-02 DXNew= 5.0454D-01 5.9371D-02
 Trust test= 1.02D+00 RLast= 1.98D-02 DXMaxT set to 3.00D-01
 The second derivative matrix:
                          R1        R2        R3        R4        A1
           R1           0.55069
           R2          -0.02067   0.25484
           R3           0.00183   0.00829   0.34438
           R4           0.00136   0.00845  -0.00100   0.34433
           A1           0.01403   0.01331  -0.00593  -0.00622   0.25550
           A2          -0.01276   0.00806   0.00023   0.00057  -0.00689
           A3          -0.00487   0.00066   0.00136   0.00150  -0.00482
           A4           0.00725   0.00532  -0.00109  -0.00118  -0.00418
           A5           0.00041   0.01390  -0.00271  -0.00262  -0.00592
           A6          -0.00441  -0.03619   0.00680   0.00663   0.01609
           D1          -0.00368  -0.00485   0.00204   0.00211  -0.00176
           D2           0.00348   0.00397  -0.00174  -0.00182   0.00163
           D3           0.01363  -0.01126   0.00121   0.00087   0.00474
           D4           0.01015  -0.01523   0.00295   0.00269   0.00311
                          A2        A3        A4        A5        A6
           A2           0.15462
           A3          -0.00418   0.15864
           A4           0.00895   0.00668   0.14980
           A5           0.00790   0.00382  -0.00885   0.15448
           A6          -0.00313  -0.00237   0.00877   0.00935   0.13391
           D1           0.00102   0.00124   0.00227   0.00197  -0.00499
           D2          -0.00083  -0.00099  -0.00208  -0.00185   0.00437
           D3           0.00251   0.00436  -0.00511  -0.00720   0.00204
           D4           0.00334   0.00535  -0.00304  -0.00535  -0.00232
                          D1        D2        D3        D4
           D1           0.00291
           D2          -0.00053   0.00277
           D3          -0.00011   0.00013   0.00425
           D4           0.00043  -0.00034   0.00182   0.00446
 ITU=  1  1  0
     Eigenvalues ---    0.05406   0.06732   0.09260   0.14785   0.16316
     Eigenvalues ---    0.26398   0.34498   0.34536   0.55236
 En-DIIS/RFO-DIIS IScMMF=        0 using points:     3    2
 RFO step:  Lambda=-3.88822548D-07.
 DidBck=F Rises=F RFO-DIIS coefs:    0.93206    0.06794
 Iteration  1 RMS(Cart)=  0.00062935 RMS(Int)=  0.00000062
 Iteration  2 RMS(Cart)=  0.00000031 RMS(Int)=  0.00000047
 Variable       Old X    -DE/DX   Delta X   Delta X   Delta X     New X
                                 (Linear)    (Quad)   (Total)
    R1        2.57395  -0.00022  -0.00008  -0.00033  -0.00040   2.57354
    R2        3.35600   0.00011  -0.00069   0.00096   0.00026   3.35626
    R3        2.05782   0.00010   0.00016   0.00012   0.00028   2.05810
    R4        2.05780   0.00011   0.00016   0.00015   0.00031   2.05811
    A1        1.91727  -0.00009   0.00006  -0.00057  -0.00051   1.91676
    A2        1.89917   0.00007   0.00018   0.00054   0.00072   1.89989
    A3        1.89883   0.00016   0.00022   0.00092   0.00113   1.89996
    A4        1.88922   0.00007   0.00025  -0.00012   0.00013   1.88935
    A5        1.88944   0.00001   0.00021  -0.00026  -0.00005   1.88939
    A6        1.96967  -0.00023  -0.00091  -0.00053  -0.00144   1.96824
    D1        2.08295  -0.00003   0.00032  -0.00045  -0.00013   2.08282
    D2       -2.08287   0.00001  -0.00032   0.00032   0.00000  -2.08288
    D3        2.10963   0.00005  -0.00021   0.00097   0.00076   2.11039
    D4       -2.09069   0.00004   0.00011   0.00066   0.00077  -2.08992
         Item               Value     Threshold  Converged?
 Maximum Force            0.000230     0.000450     YES
 RMS     Force            0.000116     0.000300     YES
 Maximum Displacement     0.001154     0.001800     YES
 RMS     Displacement     0.000629     0.001200     YES
 Predicted change in Energy=-4.399875D-07
 Optimization completed.
    -- Stationary point found.
                           ----------------------------
                           !   Optimized Parameters   !
                           ! (Angstroms and Degrees)  !
 --------------------------                            --------------------------
 ! Name  Definition              Value          Derivative Info.                !
 --------------------------------------------------------------------------------
 ! R1    R(1,2)                  1.3621         -DE/DX =   -0.0002              !
 ! R2    R(1,3)                  1.7759         -DE/DX =    0.0001              !
 ! R3    R(1,4)                  1.0889         -DE/DX =    0.0001              !
 ! R4    R(1,5)                  1.0889         -DE/DX =    0.0001              !
 ! A1    A(2,1,3)              109.8514         -DE/DX =   -0.0001              !
 ! A2    A(2,1,4)              108.8147         -DE/DX =    0.0001              !
 ! A3    A(2,1,5)              108.7947         -DE/DX =    0.0002              !
 ! A4    A(3,1,4)              108.2444         -DE/DX =    0.0001              !
 ! A5    A(3,1,5)              108.2568         -DE/DX =    0.0                 !
 ! A6    A(4,1,5)              112.8539         -DE/DX =   -0.0002              !
 ! D1    D(2,1,4,3)            119.3442         -DE/DX =    0.0                 !
 ! D2    D(2,1,5,3)           -119.3399         -DE/DX =    0.0                 !
 ! D3    D(2,1,5,4)            120.8726         -DE/DX =    0.0001              !
 ! D4    D(3,1,5,4)           -119.7875         -DE/DX =    0.0                 !
 --------------------------------------------------------------------------------
 GradGradGradGradGradGradGradGradGradGradGradGradGradGradGradGradGradGrad

                          Input orientation:                          
 ---------------------------------------------------------------------
 Center     Atomic      Atomic             Coordinates (Angstroms)
 Number     Number       Type             X           Y           Z
 ---------------------------------------------------------------------
      1          6           0        0.118490   -0.011676   -0.071390
      2          9           0       -0.668880    0.092914   -1.177896
      3         17           0       -0.883889    0.072353    1.392189
      4          1           0        0.815323    0.824980   -0.055850
      5          1           0        0.618956   -0.978670   -0.087052
 ---------------------------------------------------------------------
                    Distance matrix (angstroms):
                    1          2          3          4          5
     1  C    0.000000
     2  F    1.362074   0.000000
     3  Cl   1.775919   2.579145   0.000000
     4  H    1.088950   1.999441   2.355968   0.000000
     5  H    1.088939   1.999189   2.356129   1.814577   0.000000
 Stoichiometry    CH2ClF
 Framework group  C1[X(CH2ClF)]
 Deg. of freedom     9
 Full point group                 C1      NOp   1
 Largest Abelian subgroup         C1      NOp   1
 Largest concise Abelian subgroup C1      NOp   1
                         Standard orientation:                         
 ---------------------------------------------------------------------
 Center     Atomic      Atomic             Coordinates (Angstroms)
 Number     Number       Type             X           Y           Z
 ---------------------------------------------------------------------
      1          6           0       -0.565469    0.576208   -0.000004
      2          9           0       -1.491181   -0.422943    0.000023
      3         17           0        1.069713   -0.116661   -0.000005
      4          1           0       -0.685668    1.166357    0.907238
      5          1           0       -0.686005    1.166126   -0.907339
 ---------------------------------------------------------------------
 Rotational constants (GHZ):     41.8345245      5.6943273      5.1826682

 **********************************************************************

            Population analysis using the SCF density.

 **********************************************************************

 Orbital symmetries:
       Occupied  (A) (A) (A) (A) (A) (A) (A) (A) (A) (A) (A) (A)
                 (A) (A) (A) (A) (A)
       Virtual   (A) (A) (A) (A) (A) (A) (A) (A) (A) (A) (A) (A)
                 (A) (A) (A) (A) (A) (A) (A) (A) (A) (A) (A) (A)
                 (A) (A) (A) (A) (A) (A) (A) (A) (A) (A) (A) (A)
                 (A) (A) (A) (A) (A) (A) (A) (A) (A) (A) (A) (A)
 The electronic state is 1-A.
 Alpha  occ. eigenvalues -- -102.67583 -25.28614 -10.69977  -9.82386  -7.54787
 Alpha  occ. eigenvalues --   -7.54124  -7.54083  -1.38092  -0.97136  -0.78891
 Alpha  occ. eigenvalues --   -0.62578  -0.61988  -0.58311  -0.47876  -0.45788
 Alpha  occ. eigenvalues --   -0.39551  -0.37983
 Alpha virt. eigenvalues --    0.01716   0.03365   0.04350   0.05177   0.07439
 Alpha virt. eigenvalues --    0.10562   0.10990   0.11773   0.17229   0.19714
 Alpha virt. eigenvalues --    0.22337   0.22741   0.29516   0.31379   0.32579
 Alpha virt. eigenvalues --    0.37888   0.59508   0.63198   0.64099   0.66027
 Alpha virt. eigenvalues --    0.66174   0.69163   0.73818   0.91824   0.92643
 Alpha virt. eigenvalues --    0.96234   0.96605   1.01549   1.05251   1.13176
 Alpha virt. eigenvalues --    1.37649   1.50225   1.53853   1.65850   1.66619
 Alpha virt. eigenvalues --    1.70398   1.85646   1.87633   2.03696   2.15343
 Alpha virt. eigenvalues --    2.21168   2.24337   2.44993   2.46967   3.09666
 Alpha virt. eigenvalues --    4.21968   4.43848   5.20071
          Condensed to atoms (all electrons):
               1          2          3          4          5
     1  C    5.126268   0.068246   0.258636   0.389904   0.389926
     2  F    0.068246   9.347295  -0.067869  -0.047244  -0.047278
     3  Cl   0.258636  -0.067869  16.915365  -0.054272  -0.054249
     4  H    0.389904  -0.047244  -0.054272   0.507770  -0.038033
     5  H    0.389926  -0.047278  -0.054249  -0.038033   0.507769
 Mulliken charges:
               1
     1  C   -0.232981
     2  F   -0.253149
     3  Cl   0.002390
     4  H    0.241875
     5  H    0.241865
 Sum of Mulliken charges =   0.00000
 Mulliken charges with hydrogens summed into heavy atoms:
               1
     1  C    0.250759
     2  F   -0.253149
     3  Cl   0.002390
 Electronic spatial extent (au):  <R**2>=            234.6781
 Charge=              0.0000 electrons
 Dipole moment (field-independent basis, Debye):
    X=             -0.4080    Y=              2.0139    Z=              0.0000  Tot=              2.0548
 Quadrupole moment (field-independent basis, Debye-Ang):
   XX=            -26.3325   YY=            -23.1491   ZZ=            -23.4880
   XY=             -2.1646   XZ=              0.0004   YZ=              0.0002
 Traceless Quadrupole moment (field-independent basis, Debye-Ang):
   XX=             -2.0093   YY=              1.1741   ZZ=              0.8352
   XY=             -2.1646   XZ=              0.0004   YZ=              0.0002
 Octapole moment (field-independent basis, Debye-Ang**2):
  XXX=             -2.1438  YYY=             -1.1403  ZZZ=             -0.0001  XYY=             -3.2404
  XXY=             -0.5569  XXZ=             -0.0005  XZZ=             -3.8763  YZZ=              0.6749
  YYZ=              0.0005  XYZ=              0.0002
 Hexadecapole moment (field-independent basis, Debye-Ang**3):
 XXXX=           -191.1241 YYYY=            -50.8533 ZZZZ=            -30.2769 XXXY=             -1.4034
 XXXZ=              0.0008 YYYX=              2.4066 YYYZ=              0.0009 ZZZX=              0.0006
 ZZZY=              0.0000 XXYY=            -39.9100 XXZZ=            -37.6695 YYZZ=            -12.3203
 XXYZ=             -0.0005 YYXZ=              0.0003 ZZXY=              0.1001
 N-N= 1.012884499991D+02 E-N=-1.625148127030D+03  KE= 5.970188900960D+02
 1\1\GINC-KATANA1\FOpt\RM062X\6-31+G(d)\C1H2Cl1F1\Z5358697\13-Mar-2025\
 0\\#m062X/6-31+G(d) OPT Freq=noraman\\chloro(fluoro)methane\\0,1\C,0.1
 184900199,-0.0116764204,-0.0713901534\F,-0.6688800929,0.0929143796,-1.
 177896042\Cl,-0.8838888041,0.0723525271,1.3921887472\H,0.8153232486,0.
 8249798986,-0.0558503427\H,0.6189556285,-0.9786703849,-0.087052209\\Ve
 rsion=ES64L-G09RevD.01\State=1-A\HF=-599.2544366\RMSD=3.737e-09\RMSF=1
 .780e-04\Dipole=0.8036811,-0.0874465,0.0009969\Quadrupole=1.403022,0.6
 256588,-2.0286808,-0.067792,-1.006497,0.1551168\PG=C01 [X(C1H2Cl1F1)]\
 \@


 BETTER TO HUNT IN FIELDS, FOR HEALTH UNBOUGHT
 THAN FEE THE DOCTOR FOR A NAUSEOUS DRAUGHT.
 THE WISE, FOR CURE, ON EXERCISE DEPEND;
 GOD NEVER MADE HIS WORK FOR MAN TO MEND.
     -- JOHN DRYDEN (1631-1700)
 Job cpu time:       0 days  0 hours  0 minutes 13.4 seconds.
 File lengths (MBytes):  RWF=    132 Int=      0 D2E=      0 Chk=      2 Scr=      2
 Normal termination of Gaussian 09 at Thu Mar 13 14:55:32 2025.
 Link1:  Proceeding to internal job step number  2.
 ---------------------------------------------------------------------
 #N Geom=AllCheck Guess=TCheck SCRF=Check GenChk RM062X/6-31+G(d) Freq
 ---------------------------------------------------------------------
 1/10=4,29=7,30=1,38=1,40=1/1,3;
 2/12=2,40=1/2;
 3/5=1,6=6,7=11,11=2,14=-4,16=1,25=1,30=1,70=2,71=2,74=-55,116=1,140=1/1,2,3;
 4/5=101/1;
 5/5=2,98=1/2;
 8/6=4,10=90,11=11/1;
 11/6=1,8=1,9=11,15=111,16=1/1,2,10;
 10/6=1/2;
 6/7=2,8=2,9=2,10=2,18=1,28=1/1;
 7/8=1,10=1,25=1/1,2,3,16;
 1/10=4,30=1/3;
 99//99;
 Structure from the checkpoint file:  "/srv/scratch/z5358697/gauss/Gau-370154.chk"
 ---------------------
 chloro(fluoro)methane
 ---------------------
 Charge =  0 Multiplicity = 1
 Redundant internal coordinates found in file.
 C,0,0.1184900199,-0.0116764204,-0.0713901534
 F,0,-0.6688800929,0.0929143796,-1.177896042
 Cl,0,-0.8838888041,0.0723525271,1.3921887472
 H,0,0.8153232486,0.8249798986,-0.0558503427
 H,0,0.6189556285,-0.9786703849,-0.087052209
 Recover connectivity data from disk.

 GradGradGradGradGradGradGradGradGradGradGradGradGradGradGradGradGradGrad
 Berny optimization.
 Initialization pass.
                           ----------------------------
                           !    Initial Parameters    !
                           ! (Angstroms and Degrees)  !
 --------------------------                            --------------------------
 ! Name  Definition              Value          Derivative Info.                !
 --------------------------------------------------------------------------------
 ! R1    R(1,2)                  1.3621         calculate D2E/DX2 analytically  !
 ! R2    R(1,3)                  1.7759         calculate D2E/DX2 analytically  !
 ! R3    R(1,4)                  1.0889         calculate D2E/DX2 analytically  !
 ! R4    R(1,5)                  1.0889         calculate D2E/DX2 analytically  !
 ! A1    A(2,1,3)              109.8514         calculate D2E/DX2 analytically  !
 ! A2    A(2,1,4)              108.8147         calculate D2E/DX2 analytically  !
 ! A3    A(2,1,5)              108.7947         calculate D2E/DX2 analytically  !
 ! A4    A(3,1,4)              108.2444         calculate D2E/DX2 analytically  !
 ! A5    A(3,1,5)              108.2568         calculate D2E/DX2 analytically  !
 ! A6    A(4,1,5)              112.8539         calculate D2E/DX2 analytically  !
 ! D1    D(2,1,4,3)            119.3442         calculate D2E/DX2 analytically  !
 ! D2    D(2,1,5,3)           -119.3399         calculate D2E/DX2 analytically  !
 ! D3    D(2,1,5,4)            120.8726         calculate D2E/DX2 analytically  !
 ! D4    D(3,1,5,4)           -119.7875         calculate D2E/DX2 analytically  !
 --------------------------------------------------------------------------------
 Trust Radius=3.00D-01 FncErr=1.00D-07 GrdErr=1.00D-07
 Number of steps in this run=      2 maximum allowed number of steps=      2.
 GradGradGradGradGradGradGradGradGradGradGradGradGradGradGradGradGradGrad

                          Input orientation:                          
 ---------------------------------------------------------------------
 Center     Atomic      Atomic             Coordinates (Angstroms)
 Number     Number       Type             X           Y           Z
 ---------------------------------------------------------------------
      1          6           0        0.118490   -0.011676   -0.071390
      2          9           0       -0.668880    0.092914   -1.177896
      3         17           0       -0.883889    0.072353    1.392189
      4          1           0        0.815323    0.824980   -0.055850
      5          1           0        0.618956   -0.978670   -0.087052
 ---------------------------------------------------------------------
                    Distance matrix (angstroms):
                    1          2          3          4          5
     1  C    0.000000
     2  F    1.362074   0.000000
     3  Cl   1.775919   2.579145   0.000000
     4  H    1.088950   1.999441   2.355968   0.000000
     5  H    1.088939   1.999189   2.356129   1.814577   0.000000
 Stoichiometry    CH2ClF
 Framework group  C1[X(CH2ClF)]
 Deg. of freedom     9
 Full point group                 C1      NOp   1
 Largest Abelian subgroup         C1      NOp   1
 Largest concise Abelian subgroup C1      NOp   1
                         Standard orientation:                         
 ---------------------------------------------------------------------
 Center     Atomic      Atomic             Coordinates (Angstroms)
 Number     Number       Type             X           Y           Z
 ---------------------------------------------------------------------
      1          6           0       -0.565469    0.576208   -0.000004
      2          9           0       -1.491181   -0.422943    0.000023
      3         17           0        1.069713   -0.116661   -0.000005
      4          1           0       -0.685668    1.166357    0.907238
      5          1           0       -0.686005    1.166126   -0.907339
 ---------------------------------------------------------------------
 Rotational constants (GHZ):     41.8345245      5.6943273      5.1826682
 Standard basis: 6-31+G(d) (6D, 7F)
 There are    65 symmetry adapted cartesian basis functions of A   symmetry.
 There are    65 symmetry adapted basis functions of A   symmetry.
    65 basis functions,   128 primitive gaussians,    65 cartesian basis functions
    17 alpha electrons       17 beta electrons
       nuclear repulsion energy       101.2884499991 Hartrees.
 NAtoms=    5 NActive=    5 NUniq=    5 SFac= 1.00D+00 NAtFMM=   60 NAOKFM=F Big=F
 Integral buffers will be    131072 words long.
 Raffenetti 2 integral format.
 Two-electron integral symmetry is turned on.
 One-electron integrals computed using PRISM.
 NBasis=    65 RedAO= T EigKep=  1.20D-03  NBF=    65
 NBsUse=    65 1.00D-06 EigRej= -1.00D+00 NBFU=    65
 Initial guess from the checkpoint file:  "/srv/scratch/z5358697/gauss/Gau-370154.chk"
 B after Tr=     0.000000    0.000000    0.000000
         Rot=    1.000000    0.000000    0.000000    0.000000 Ang=   0.00 deg.
 Keep R1 ints in memory in canonical form, NReq=3219953.
 Requested convergence on RMS density matrix=1.00D-08 within 128 cycles.
 Requested convergence on MAX density matrix=1.00D-06.
 Requested convergence on             energy=1.00D-06.
 No special actions if energy rises.
 SCF Done:  E(RM062X) =  -599.254436557     A.U. after    1 cycles
            NFock=  1  Conv=0.64D-09     -V/T= 2.0037
 DoSCS=F DFT=T ScalE2(SS,OS)=  1.000000  1.000000
 Range of M.O.s used for correlation:     1    65
 NBasis=    65 NAE=    17 NBE=    17 NFC=     0 NFV=     0
 NROrb=     65 NOA=    17 NOB=    17 NVA=    48 NVB=    48

 **** Warning!!: The largest alpha MO coefficient is  0.12949739D+02

 Symmetrizing basis deriv contribution to polar:
 IMax=3 JMax=2 DiffMx= 0.00D+00
 G2DrvN: will do     6 centers at a time, making    1 passes.
 Calling FoFCou, ICntrl=  3107 FMM=F I1Cent=   0 AccDes= 0.00D+00.
 End of G2Drv F.D. properties file   721 does not exist.
 End of G2Drv F.D. properties file   722 does not exist.
 End of G2Drv F.D. properties file   788 does not exist.
          IDoAtm=11111
          Differentiating once with respect to electric field.
                with respect to dipole field.
          Differentiating once with respect to nuclear coordinates.
 Keep R1 ints in memory in canonical form, NReq=3188048.
          There are    18 degrees of freedom in the 1st order CPHF.  IDoFFX=6 NUNeed=     3.
     16 vectors produced by pass  0 Test12= 4.53D-15 5.56D-09 XBig12= 1.38D+01 1.49D+00.
 AX will form    16 AO Fock derivatives at one time.
     15 vectors produced by pass  1 Test12= 4.53D-15 5.56D-09 XBig12= 1.40D+00 2.80D-01.
     15 vectors produced by pass  2 Test12= 4.53D-15 5.56D-09 XBig12= 2.85D-02 4.33D-02.
     15 vectors produced by pass  3 Test12= 4.53D-15 5.56D-09 XBig12= 2.15D-04 3.75D-03.
     15 vectors produced by pass  4 Test12= 4.53D-15 5.56D-09 XBig12= 1.05D-06 2.34D-04.
     15 vectors produced by pass  5 Test12= 4.53D-15 5.56D-09 XBig12= 4.22D-09 1.95D-05.
      7 vectors produced by pass  6 Test12= 4.53D-15 5.56D-09 XBig12= 1.72D-11 9.18D-07.
      3 vectors produced by pass  7 Test12= 4.53D-15 5.56D-09 XBig12= 5.22D-14 4.70D-08.
 InvSVY:  IOpt=1 It=  1 EMax= 2.22D-15
 Solved reduced A of dimension   101 with    18 vectors.
 Isotropic polarizability for W=    0.000000       24.36 Bohr**3.
 End of Minotr F.D. properties file   721 does not exist.
 End of Minotr F.D. properties file   722 does not exist.
 End of Minotr F.D. properties file   788 does not exist.

 **********************************************************************

            Population analysis using the SCF density.

 **********************************************************************

 Orbital symmetries:
       Occupied  (A) (A) (A) (A) (A) (A) (A) (A) (A) (A) (A) (A)
                 (A) (A) (A) (A) (A)
       Virtual   (A) (A) (A) (A) (A) (A) (A) (A) (A) (A) (A) (A)
                 (A) (A) (A) (A) (A) (A) (A) (A) (A) (A) (A) (A)
                 (A) (A) (A) (A) (A) (A) (A) (A) (A) (A) (A) (A)
                 (A) (A) (A) (A) (A) (A) (A) (A) (A) (A) (A) (A)
 The electronic state is 1-A.
 Alpha  occ. eigenvalues -- -102.67583 -25.28614 -10.69977  -9.82386  -7.54787
 Alpha  occ. eigenvalues --   -7.54124  -7.54083  -1.38092  -0.97136  -0.78891
 Alpha  occ. eigenvalues --   -0.62578  -0.61988  -0.58311  -0.47876  -0.45788
 Alpha  occ. eigenvalues --   -0.39551  -0.37983
 Alpha virt. eigenvalues --    0.01716   0.03365   0.04350   0.05177   0.07439
 Alpha virt. eigenvalues --    0.10562   0.10990   0.11773   0.17229   0.19714
 Alpha virt. eigenvalues --    0.22337   0.22741   0.29516   0.31379   0.32579
 Alpha virt. eigenvalues --    0.37888   0.59508   0.63198   0.64099   0.66027
 Alpha virt. eigenvalues --    0.66174   0.69163   0.73818   0.91824   0.92643
 Alpha virt. eigenvalues --    0.96234   0.96605   1.01549   1.05251   1.13176
 Alpha virt. eigenvalues --    1.37649   1.50225   1.53853   1.65850   1.66619
 Alpha virt. eigenvalues --    1.70398   1.85646   1.87633   2.03696   2.15343
 Alpha virt. eigenvalues --    2.21168   2.24337   2.44993   2.46967   3.09666
 Alpha virt. eigenvalues --    4.21968   4.43848   5.20071
          Condensed to atoms (all electrons):
               1          2          3          4          5
     1  C    5.126268   0.068246   0.258636   0.389904   0.389926
     2  F    0.068246   9.347295  -0.067869  -0.047244  -0.047278
     3  Cl   0.258636  -0.067869  16.915365  -0.054272  -0.054249
     4  H    0.389904  -0.047244  -0.054272   0.507770  -0.038033
     5  H    0.389926  -0.047278  -0.054249  -0.038033   0.507769
 Mulliken charges:
               1
     1  C   -0.232981
     2  F   -0.253149
     3  Cl   0.002390
     4  H    0.241875
     5  H    0.241865
 Sum of Mulliken charges =   0.00000
 Mulliken charges with hydrogens summed into heavy atoms:
               1
     1  C    0.250759
     2  F   -0.253149
     3  Cl   0.002390
 APT charges:
               1
     1  C    0.951741
     2  F   -0.560580
     3  Cl  -0.338562
     4  H   -0.026304
     5  H   -0.026295
 Sum of APT charges =   0.00000
 APT charges with hydrogens summed into heavy atoms:
               1
     1  C    0.899142
     2  F   -0.560580
     3  Cl  -0.338562
 Electronic spatial extent (au):  <R**2>=            234.6781
 Charge=              0.0000 electrons
 Dipole moment (field-independent basis, Debye):
    X=             -0.4080    Y=              2.0139    Z=              0.0000  Tot=              2.0548
 Quadrupole moment (field-independent basis, Debye-Ang):
   XX=            -26.3325   YY=            -23.1491   ZZ=            -23.4880
   XY=             -2.1646   XZ=              0.0004   YZ=              0.0002
 Traceless Quadrupole moment (field-independent basis, Debye-Ang):
   XX=             -2.0093   YY=              1.1741   ZZ=              0.8352
   XY=             -2.1646   XZ=              0.0004   YZ=              0.0002
 Octapole moment (field-independent basis, Debye-Ang**2):
  XXX=             -2.1438  YYY=             -1.1403  ZZZ=             -0.0001  XYY=             -3.2404
  XXY=             -0.5569  XXZ=             -0.0005  XZZ=             -3.8763  YZZ=              0.6749
  YYZ=              0.0005  XYZ=              0.0002
 Hexadecapole moment (field-independent basis, Debye-Ang**3):
 XXXX=           -191.1241 YYYY=            -50.8533 ZZZZ=            -30.2769 XXXY=             -1.4034
 XXXZ=              0.0008 YYYX=              2.4066 YYYZ=              0.0009 ZZZX=              0.0006
 ZZZY=              0.0000 XXYY=            -39.9100 XXZZ=            -37.6695 YYZZ=            -12.3203
 XXYZ=             -0.0005 YYXZ=              0.0003 ZZXY=              0.1001
 N-N= 1.012884499991D+02 E-N=-1.625148127251D+03  KE= 5.970188901693D+02
  Exact polarizability:  31.002  -3.268  21.909   0.001   0.001  20.176
 Approx polarizability:  33.937  -3.661  23.716   0.001   0.000  21.541
 Calling FoFJK, ICntrl=    100127 FMM=F ISym2X=0 I1Cent= 0 IOpClX= 0 NMat=1 NMatS=1 NMatT=0.
 Full mass-weighted force constant matrix:
 Low frequencies ---  -85.4695  -44.7991  -25.2940   -0.0048   -0.0033   -0.0031
 Low frequencies ---  387.1795  786.3447 1020.7019
 Diagonal vibrational polarizability:
        7.6493744       1.9625285       0.0915015
 Harmonic frequencies (cm**-1), IR intensities (KM/Mole), Raman scattering
 activities (A**4/AMU), depolarization ratios for plane and unpolarized
 incident light, reduced masses (AMU), force constants (mDyne/A),
 and normal coordinates:
                      1                      2                      3
                      A                      A                      A
 Frequencies --    387.1735               786.3447              1020.7011
 Red. masses --     15.4922                 6.4852                 1.3412
 Frc consts  --      1.3683                 2.3626                 0.8233
 IR Inten    --      2.0545               100.9906                 0.6091
  Atom  AN      X      Y      Z        X      Y      Z        X      Y      Z
     1   6     0.07   0.38   0.00     0.48  -0.35   0.00     0.00   0.00   0.16
     2   9     0.65  -0.11   0.00    -0.03   0.05   0.00     0.00   0.00  -0.03
     3  17    -0.37  -0.09   0.00    -0.18   0.11   0.00     0.00   0.00  -0.02
     4   1    -0.08   0.36   0.00     0.47  -0.27  -0.06    -0.39   0.53  -0.22
     5   1    -0.08   0.36   0.00     0.47  -0.27   0.06     0.39  -0.53  -0.22
                      4                      5                      6
                      A                      A                      A
 Frequencies --   1134.8860              1266.5785              1400.0845
 Red. masses --      8.5976                 1.0772                 1.1482
 Frc consts  --      6.5243                 1.0182                 1.3261
 IR Inten    --    193.5755                 3.5531                54.3928
  Atom  AN      X      Y      Z        X      Y      Z        X      Y      Z
     1   6     0.40   0.48   0.00     0.00   0.00  -0.06     0.11  -0.01   0.00
     2   9    -0.28  -0.33   0.00     0.00   0.00   0.04     0.00   0.03   0.00
     3  17     0.01  -0.01   0.00     0.00   0.00  -0.01     0.01  -0.01   0.00
     4   1     0.17   0.43  -0.01    -0.63  -0.31   0.06    -0.70  -0.06  -0.06
     5   1     0.17   0.43   0.01     0.63   0.31   0.06    -0.70  -0.06   0.06
                      7                      8                      9
                      A                      A                      A
 Frequencies --   1516.5001              3166.9998              3248.6306
 Red. masses --      1.0883                 1.0522                 1.1184
 Frc consts  --      1.4746                 6.2181                 6.9544
 IR Inten    --      0.1776                20.2471                 6.3398
  Atom  AN      X      Y      Z        X      Y      Z        X      Y      Z
     1   6     0.01   0.08   0.00     0.01  -0.06   0.00     0.00   0.00   0.10
     2   9     0.00   0.00   0.00     0.00   0.00   0.00     0.00   0.00   0.00
     3  17     0.00   0.00   0.00     0.00   0.00   0.00     0.00   0.00   0.00
     4   1     0.02  -0.57   0.41    -0.07   0.37   0.60     0.07  -0.38  -0.59
     5   1     0.02  -0.57  -0.41    -0.07   0.37  -0.60    -0.07   0.38  -0.59

 -------------------
 - Thermochemistry -
 -------------------
 Temperature   298.150 Kelvin.  Pressure   1.00000 Atm.
 Atom     1 has atomic number  6 and mass  12.00000
 Atom     2 has atomic number  9 and mass  18.99840
 Atom     3 has atomic number 17 and mass  34.96885
 Atom     4 has atomic number  1 and mass   1.00783
 Atom     5 has atomic number  1 and mass   1.00783
 Molecular mass:    67.98291 amu.
 Principal axes and moments of inertia in atomic units:
                           1         2         3
     Eigenvalues --    43.14000 316.93668 348.22627
           X            0.99961  -0.02784   0.00000
           Y            0.02784   0.99961   0.00001
           Z            0.00000  -0.00001   1.00000
 This molecule is an asymmetric top.
 Rotational symmetry number  1.
 Rotational temperatures (Kelvin)      2.00774     0.27328     0.24873
 Rotational constants (GHZ):          41.83452     5.69433     5.18267
 Zero-point vibrational energy      83307.3 (Joules/Mol)
                                   19.91093 (Kcal/Mol)
 Warning -- explicit consideration of   1 degrees of freedom as
           vibrations may cause significant error
 Vibrational temperatures:    557.06  1131.37  1468.56  1632.85  1822.32
          (Kelvin)           2014.41  2181.90  4556.60  4674.05
 
 Zero-point correction=                           0.031730 (Hartree/Particle)
 Thermal correction to Energy=                    0.035048
 Thermal correction to Enthalpy=                  0.035992
 Thermal correction to Gibbs Free Energy=         0.006021
 Sum of electronic and zero-point Energies=           -599.222706
 Sum of electronic and thermal Energies=              -599.219389
 Sum of electronic and thermal Enthalpies=            -599.218445
 Sum of electronic and thermal Free Energies=         -599.248415
 
                     E (Thermal)             CV                S
                      KCal/Mol        Cal/Mol-Kelvin    Cal/Mol-Kelvin
 Total                   21.993              9.081             63.078
 Electronic               0.000              0.000              0.000
 Translational            0.889              2.981             38.568
 Rotational               0.889              2.981             23.081
 Vibrational             20.215              3.120              1.430
 Vibration     1          0.756              1.498              1.011
                       Q            Log10(Q)             Ln(Q)
 Total Bot       0.169983D-02         -2.769595         -6.377228
 Total V=0       0.668654D+12         11.825201         27.228532
 Vib (Bot)       0.312354D-14        -14.505353        -33.399810
 Vib (Bot)    1  0.464633D+00         -0.332890         -0.766508
 Vib (V=0)       0.122869D+01          0.089443          0.205950
 Vib (V=0)    1  0.118256D+01          0.072822          0.167679
 Electronic      0.100000D+01          0.000000          0.000000
 Translational   0.220320D+08          7.343055         16.908009
 Rotational      0.247004D+05          4.392703         10.114574
 ***** Axes restored to original set *****
 -------------------------------------------------------------------
 Center     Atomic                   Forces (Hartrees/Bohr)
 Number     Number              X              Y              Z
 -------------------------------------------------------------------
      1        6          -0.000298091    0.000027067   -0.000466214
      2        9          -0.000043942    0.000023143    0.000295816
      3       17           0.000001050   -0.000009757    0.000132521
      4        1           0.000164262   -0.000014422   -0.000000678
      5        1           0.000176720   -0.000026032    0.000038555
 -------------------------------------------------------------------
 Cartesian Forces:  Max     0.000466214 RMS     0.000177982
 FormGI is forming the generalized inverse of G from B-inverse, IUseBI=4.

 GradGradGradGradGradGradGradGradGradGradGradGradGradGradGradGradGradGrad
 Berny optimization.
 Internal  Forces:  Max     0.000229923 RMS     0.000115683
 Search for a local minimum.
 Step number   1 out of a maximum of    2
 All quantities printed in internal units (Hartrees-Bohrs-Radians)
 Second derivative matrix not updated -- analytic derivatives used.
 The second derivative matrix:
                          R1        R2        R3        R4        A1
           R1           0.40980
           R2           0.04240   0.23423
           R3           0.01290   0.00530   0.36313
           R4           0.01291   0.00530   0.00265   0.36314
           A1           0.00435   0.00409   0.00114   0.00065   0.03317
           A2           0.01162   0.00000   0.00083  -0.00464  -0.01001
           A3           0.02213  -0.01090  -0.00418   0.00243  -0.02007
           A4          -0.00173   0.01004  -0.00215  -0.00327  -0.00969
           A5          -0.01535   0.01784  -0.00338  -0.00318  -0.01710
           A6          -0.02090  -0.02047   0.00770   0.00794   0.02497
           D1           0.01084   0.01070   0.00060  -0.00375   0.02853
           D2          -0.00899  -0.00898   0.00296  -0.00033  -0.01853
           D3           0.01651  -0.02085   0.00314   0.00097  -0.01039
           D4           0.02550  -0.01187   0.00018   0.00130   0.00813
                          A2        A3        A4        A5        A6
           A2           0.05750
           A3          -0.04078   0.10435
           A4           0.00112   0.02261   0.04778
           A5           0.02412  -0.03776  -0.03194   0.08931
           A6          -0.03204  -0.02941  -0.03007  -0.02675   0.09351
           D1           0.02139  -0.03430   0.01654  -0.02518  -0.00561
           D2           0.02135  -0.01362   0.01714  -0.00939   0.00219
           D3           0.02360   0.00184  -0.00239  -0.01307  -0.00028
           D4           0.00224   0.01547  -0.01952  -0.00368  -0.00247
                          D1        D2        D3        D4
           D1           0.05596
           D2          -0.00020   0.03541
           D3          -0.00041   0.01895   0.03093
           D4          -0.00021  -0.01645   0.01198   0.02843
 ITU=  0
     Eigenvalues ---    0.05196   0.07116   0.12083   0.14377   0.16553
     Eigenvalues ---    0.23967   0.36075   0.36159   0.43138
 Angle between quadratic step and forces=  31.32 degrees.
 Linear search not attempted -- first point.
 Iteration  1 RMS(Cart)=  0.00071441 RMS(Int)=  0.00000080
 Iteration  2 RMS(Cart)=  0.00000053 RMS(Int)=  0.00000044
 Variable       Old X    -DE/DX   Delta X   Delta X   Delta X     New X
                                 (Linear)    (Quad)   (Total)
    R1        2.57395  -0.00022   0.00000  -0.00096  -0.00096   2.57299
    R2        3.35600   0.00011   0.00000   0.00074   0.00074   3.35674
    R3        2.05782   0.00010   0.00000   0.00033   0.00033   2.05814
    R4        2.05780   0.00011   0.00000   0.00035   0.00035   2.05814
    A1        1.91727  -0.00009   0.00000  -0.00048  -0.00048   1.91678
    A2        1.89917   0.00007   0.00000   0.00103   0.00103   1.90020
    A3        1.89883   0.00016   0.00000   0.00138   0.00138   1.90020
    A4        1.88922   0.00007   0.00000  -0.00002  -0.00002   1.88920
    A5        1.88944   0.00001   0.00000  -0.00023  -0.00023   1.88920
    A6        1.96967  -0.00023   0.00000  -0.00169  -0.00169   1.96798
    D1        2.08295  -0.00003   0.00000  -0.00001  -0.00001   2.08294
    D2       -2.08287   0.00001   0.00000  -0.00007  -0.00007  -2.08294
    D3        2.10963   0.00005   0.00000   0.00116   0.00116   2.11078
    D4       -2.09069   0.00004   0.00000   0.00123   0.00123  -2.08946
         Item               Value     Threshold  Converged?
 Maximum Force            0.000230     0.000450     YES
 RMS     Force            0.000116     0.000300     YES
 Maximum Displacement     0.001241     0.001800     YES
 RMS     Displacement     0.000714     0.001200     YES
 Predicted change in Energy=-6.030167D-07
 Optimization completed.
    -- Stationary point found.
                           ----------------------------
                           !   Optimized Parameters   !
                           ! (Angstroms and Degrees)  !
 --------------------------                            --------------------------
 ! Name  Definition              Value          Derivative Info.                !
 --------------------------------------------------------------------------------
 ! R1    R(1,2)                  1.3621         -DE/DX =   -0.0002              !
 ! R2    R(1,3)                  1.7759         -DE/DX =    0.0001              !
 ! R3    R(1,4)                  1.0889         -DE/DX =    0.0001              !
 ! R4    R(1,5)                  1.0889         -DE/DX =    0.0001              !
 ! A1    A(2,1,3)              109.8514         -DE/DX =   -0.0001              !
 ! A2    A(2,1,4)              108.8147         -DE/DX =    0.0001              !
 ! A3    A(2,1,5)              108.7947         -DE/DX =    0.0002              !
 ! A4    A(3,1,4)              108.2444         -DE/DX =    0.0001              !
 ! A5    A(3,1,5)              108.2568         -DE/DX =    0.0                 !
 ! A6    A(4,1,5)              112.8539         -DE/DX =   -0.0002              !
 ! D1    D(2,1,4,3)            119.3442         -DE/DX =    0.0                 !
 ! D2    D(2,1,5,3)           -119.3399         -DE/DX =    0.0                 !
 ! D3    D(2,1,5,4)            120.8726         -DE/DX =    0.0001              !
 ! D4    D(3,1,5,4)           -119.7875         -DE/DX =    0.0                 !
 --------------------------------------------------------------------------------
 GradGradGradGradGradGradGradGradGradGradGradGradGradGradGradGradGradGrad

 1\1\GINC-KATANA1\Freq\RM062X\6-31+G(d)\C1H2Cl1F1\Z5358697\13-Mar-2025\
 0\\#N Geom=AllCheck Guess=TCheck SCRF=Check GenChk RM062X/6-31+G(d) Fr
 eq\\chloro(fluoro)methane\\0,1\C,0.1184900199,-0.0116764204,-0.0713901
 534\F,-0.6688800929,0.0929143796,-1.177896042\Cl,-0.8838888041,0.07235
 25271,1.3921887472\H,0.8153232486,0.8249798986,-0.0558503427\H,0.61895
 56285,-0.9786703849,-0.087052209\\Version=ES64L-G09RevD.01\State=1-A\H
 F=-599.2544366\RMSD=6.391e-10\RMSF=1.780e-04\ZeroPoint=0.0317301\Therm
 al=0.0350477\Dipole=0.8036811,-0.0874465,0.000997\DipoleDeriv=0.776516
 6,-0.0361735,0.0243612,-0.0332417,0.451934,-0.0229312,-0.1448395,-0.00
 44072,1.6267731,-0.4268713,0.024289,-0.3840232,0.0203677,-0.2673694,0.
 0541562,-0.1551519,0.0292792,-0.9875005,-0.3052011,0.0104639,0.2813033
 ,0.012159,-0.1656684,-0.0240817,0.1811871,-0.0132096,-0.5448159,-0.033
 6961,-0.036052,0.0373698,-0.067025,0.0017144,-0.0144181,0.0613522,0.02
 31156,-0.0469289,-0.0107481,0.0374726,0.0409889,0.06774,-0.0206106,0.0
 072747,0.0574521,-0.0347781,-0.0475278\Polar=23.529877,-0.2829373,20.2
 004978,-4.7754497,0.3636333,29.3567712\PG=C01 [X(C1H2Cl1F1)]\NImag=0\\
 0.52638010,0.01312038,0.65468829,0.05853638,-0.00158120,0.38005787,-0.
 16486605,0.01191058,-0.10877591,0.17680542,0.01244550,-0.07417808,0.01
 412896,-0.01679238,0.05115097,-0.14025677,0.01755986,-0.20618712,0.167
 16694,-0.02226949,0.28649159,-0.09286562,0.00468594,0.05441835,0.01856
 466,-0.00142813,0.00023562,0.09568935,0.00440343,-0.04161024,-0.005099
 40,-0.00144641,0.00560481,0.00100478,-0.00634427,0.02288780,0.07096999
 ,-0.00689817,-0.08924544,0.00115022,0.00090371,-0.05472100,-0.09537257
 ,0.00788350,0.16788896,-0.16183817,-0.13657611,-0.00389698,-0.01722127
 ,-0.01576114,-0.01419618,-0.01148312,-0.00959090,0.01120310,0.17732253
 ,-0.14301028,-0.24215840,-0.00047264,0.00391079,0.01118679,-0.00098107
 ,0.00566540,0.00710419,-0.00307756,0.15094152,0.24029576,0.00420692,0.
 00561661,-0.04209434,-0.03257925,-0.02237083,-0.01328018,0.02218596,0.
 01420141,-0.01172426,0.00693745,0.00386992,0.06228837,-0.10681026,0.10
 685921,-0.00028183,-0.01328276,0.02153614,-0.01294961,-0.00990526,0.01
 297816,0.01204926,0.01322004,-0.01750743,-0.00075109,0.11677825,0.1130
 4097,-0.29674158,-0.00697572,0.00241742,0.00623552,0.00468593,-0.00257
 894,0.00601344,0.00118852,0.01098664,-0.01642833,-0.00131711,-0.123866
 09,0.30092095,0.00654348,-0.01469710,-0.04253097,-0.02696200,0.0296076
 5,-0.01230330,0.01853264,-0.01799029,-0.01219825,-0.00004740,0.0006613
 5,0.00481041,0.00193328,0.00241839,0.06222210\\0.00029809,-0.00002707,
 0.00046621,0.00004394,-0.00002314,-0.00029582,-0.00000105,0.00000976,-
 0.00013252,-0.00016426,0.00001442,0.00000068,-0.00017672,0.00002603,-0
 .00003855\\\@


 LORD, MAN... WERE YE BUT WHYLES WHERE I AM, 
 THE GENTILES YE WAD NE'ER ENVY 'EM.        
 IT'S TRUE, THEY NEEDNA STARVE OR SWEAT,     
 THRO' WINTER'S CAULD OR SIMMER'S HEAT...  
 THEY'VE NAE SAIR WARK TO CRAZE THEIR BANES, 
 AND FILL AULD AGE WITH GRIPS AN' GRANES...  
                                             
 BUT HUMAN BODIES ARE SIC FOOLS              
 FOR A' THEIR COLLEGES AND SCHOOLS,           
 THAT WHEN NAE REAL ILLS PERPLEX THEM,       
 THEY MAK ENOW THEMSELVES TO VEX THEM,       
 AN' AYE THE LESS THEY HAE TO STURT THEM,    
 IN LIKE PROPORTION LESS WILL HURT THEM....  
                                             
                (ROBERT BURNS 'THE TWA DOGS')
 Job cpu time:       0 days  0 hours  0 minutes 12.9 seconds.
 File lengths (MBytes):  RWF=    132 Int=      0 D2E=      0 Chk=      2 Scr=      2
 Normal termination of Gaussian 09 at Thu Mar 13 14:55:46 2025.
