 Entering Gaussian System, Link 0=g09
 Initial command:
 /apps/z_install_tree/linux-rocky8-ivybridge/gcc-12.2.0/gaussian-09-D.01-wczn3gur5lpur3omlkzwa2l5ecyxp5ef/g09/l1.exe "/srv/scratch/z5358697/gauss/Gau-1875452.inp" -scrdir="/srv/scratch/z5358697/gauss/"
 Entering Link 1 = /apps/z_install_tree/linux-rocky8-ivybridge/gcc-12.2.0/gaussian-09-D.01-wczn3gur5lpur3omlkzwa2l5ecyxp5ef/g09/l1.exe PID=   1875453.
  
 Copyright (c) 1988,1990,1992,1993,1995,1998,2003,2009,2013,
            Gaussian, Inc.  All Rights Reserved.
  
 This is part of the Gaussian(R) 09 program.  It is based on
 the Gaussian(R) 03 system (copyright 2003, Gaussian, Inc.),
 the Gaussian(R) 98 system (copyright 1998, Gaussian, Inc.),
 the Gaussian(R) 94 system (copyright 1995, Gaussian, Inc.),
 the Gaussian 92(TM) system (copyright 1992, Gaussian, Inc.),
 the Gaussian 90(TM) system (copyright 1990, Gaussian, Inc.),
 the Gaussian 88(TM) system (copyright 1988, Gaussian, Inc.),
 the Gaussian 86(TM) system (copyright 1986, Carnegie Mellon
 University), and the Gaussian 82(TM) system (copyright 1983,
 Carnegie Mellon University). Gaussian is a federally registered
 trademark of Gaussian, Inc.
  
 This software contains proprietary and confidential information,
 including trade secrets, belonging to Gaussian, Inc.
  
 This software is provided under written license and may be
 used, copied, transmitted, or stored only in accord with that
 written license.
  
 The following legend is applicable only to US Government
 contracts under FAR:
  
                    RESTRICTED RIGHTS LEGEND
  
 Use, reproduction and disclosure by the US Government is
 subject to restrictions as set forth in subparagraphs (a)
 and (c) of the Commercial Computer Software - Restricted
 Rights clause in FAR 52.227-19.
  
 Gaussian, Inc.
 340 Quinnipiac St., Bldg. 40, Wallingford CT 06492
  
  
 ---------------------------------------------------------------
 Warning -- This program may not be used in any manner that
 competes with the business of Gaussian, Inc. or will provide
 assistance to any competitor of Gaussian, Inc.  The licensee
 of this program is prohibited from giving any competitor of
 Gaussian, Inc. access to this program.  By using this program,
 the user acknowledges that Gaussian, Inc. is engaged in the
 business of creating and licensing software in the field of
 computational chemistry and represents and warrants to the
 licensee that it is not a competitor of Gaussian, Inc. and that
 it will not use this program in any manner prohibited above.
 ---------------------------------------------------------------
  

 Cite this work as:
 Gaussian 09, Revision D.01,
 M. J. Frisch, G. W. Trucks, H. B. Schlegel, G. E. Scuseria, 
 M. A. Robb, J. R. Cheeseman, G. Scalmani, V. Barone, B. Mennucci, 
 G. A. Petersson, H. Nakatsuji, M. Caricato, X. Li, H. P. Hratchian, 
 A. F. Izmaylov, J. Bloino, G. Zheng, J. L. Sonnenberg, M. Hada, 
 M. Ehara, K. Toyota, R. Fukuda, J. Hasegawa, M. Ishida, T. Nakajima, 
 Y. Honda, O. Kitao, H. Nakai, T. Vreven, J. A. Montgomery, Jr., 
 J. E. Peralta, F. Ogliaro, M. Bearpark, J. J. Heyd, E. Brothers, 
 K. N. Kudin, V. N. Staroverov, T. Keith, R. Kobayashi, J. Normand, 
 K. Raghavachari, A. Rendell, J. C. Burant, S. S. Iyengar, J. Tomasi, 
 M. Cossi, N. Rega, J. M. Millam, M. Klene, J. E. Knox, J. B. Cross, 
 V. Bakken, C. Adamo, J. Jaramillo, R. Gomperts, R. E. Stratmann, 
 O. Yazyev, A. J. Austin, R. Cammi, C. Pomelli, J. W. Ochterski, 
 R. L. Martin, K. Morokuma, V. G. Zakrzewski, G. A. Voth, 
 P. Salvador, J. J. Dannenberg, S. Dapprich, A. D. Daniels, 
 O. Farkas, J. B. Foresman, J. V. Ortiz, J. Cioslowski, 
 and D. J. Fox, Gaussian, Inc., Wallingford CT, 2013.
 
 ******************************************
 Gaussian 09:  ES64L-G09RevD.01 24-Apr-2013
                14-Mar-2025 
 ******************************************
 ---------------------------------
 #m062X/6-31+G(d) OPT Freq=noraman
 ---------------------------------
 1/14=-1,18=20,19=15,26=3,38=1/1,3;
 2/9=110,12=2,17=6,18=5,40=1/2;
 3/5=1,6=6,7=11,11=2,16=1,25=1,30=1,71=1,74=-55/1,2,3;
 4//1;
 5/5=2,38=5/2;
 6/7=2,8=2,9=2,10=2,28=1/1;
 7//1,2,3,16;
 1/14=-1,18=20,19=15,26=3/3(2);
 2/9=110/2;
 99//99;
 2/9=110/2;
 3/5=1,6=6,7=11,11=2,16=1,25=1,30=1,71=1,74=-55/1,2,3;
 4/5=5,16=3,69=1/1;
 5/5=2,38=5/2;
 7//1,2,3,16;
 1/14=-1,18=20,19=15,26=3/3(-5);
 2/9=110/2;
 6/7=2,8=2,9=2,10=2,19=2,28=1/1;
 99/9=1/99;
 ---------------------
 1,1,1-trichloroethane
 ---------------------
 Symbolic Z-matrix:
 Charge =  0 Multiplicity = 1
 C                     1.0245    0.2811   -0.2703 
 C                     1.2871    1.7565    0.0012 
 Cl                    0.1596    2.7554   -0.9573 
 Cl                    1.0484    2.1022    1.7366 
 Cl                    2.9647    2.1642   -0.4534 
 H                     1.7029   -0.3597    0.3053 
 H                    -0.0001    0.       -0.0002 
 H                     1.1631    0.0375   -1.3305 
 

 GradGradGradGradGradGradGradGradGradGradGradGradGradGradGradGradGradGrad
 Berny optimization.
 Initialization pass.
                           ----------------------------
                           !    Initial Parameters    !
                           ! (Angstroms and Degrees)  !
 --------------------------                            --------------------------
 ! Name  Definition              Value          Derivative Info.                !
 --------------------------------------------------------------------------------
 ! R1    R(1,2)                  1.523          estimate D2E/DX2                !
 ! R2    R(1,6)                  1.0964         estimate D2E/DX2                !
 ! R3    R(1,7)                  1.0963         estimate D2E/DX2                !
 ! R4    R(1,8)                  1.0966         estimate D2E/DX2                !
 ! R5    R(2,3)                  1.7854         estimate D2E/DX2                !
 ! R6    R(2,4)                  1.7855         estimate D2E/DX2                !
 ! R7    R(2,5)                  1.7853         estimate D2E/DX2                !
 ! A1    A(2,1,6)              111.4635         estimate D2E/DX2                !
 ! A2    A(2,1,7)              111.4469         estimate D2E/DX2                !
 ! A3    A(2,1,8)              111.4539         estimate D2E/DX2                !
 ! A4    A(6,1,7)              107.4026         estimate D2E/DX2                !
 ! A5    A(6,1,8)              107.4284         estimate D2E/DX2                !
 ! A6    A(7,1,8)              107.4197         estimate D2E/DX2                !
 ! A7    A(1,2,3)              109.7187         estimate D2E/DX2                !
 ! A8    A(1,2,4)              109.7415         estimate D2E/DX2                !
 ! A9    A(1,2,5)              109.7468         estimate D2E/DX2                !
 ! A10   A(3,2,4)              109.2099         estimate D2E/DX2                !
 ! A11   A(3,2,5)              109.2047         estimate D2E/DX2                !
 ! A12   A(4,2,5)              109.2019         estimate D2E/DX2                !
 ! D1    D(6,1,2,3)           -179.9996         estimate D2E/DX2                !
 ! D2    D(6,1,2,4)            -60.0011         estimate D2E/DX2                !
 ! D3    D(6,1,2,5)             60.005          estimate D2E/DX2                !
 ! D4    D(7,1,2,3)            -60.0172         estimate D2E/DX2                !
 ! D5    D(7,1,2,4)             59.9813         estimate D2E/DX2                !
 ! D6    D(7,1,2,5)            179.9874         estimate D2E/DX2                !
 ! D7    D(8,1,2,3)             59.9804         estimate D2E/DX2                !
 ! D8    D(8,1,2,4)            179.9789         estimate D2E/DX2                !
 ! D9    D(8,1,2,5)            -60.015          estimate D2E/DX2                !
 --------------------------------------------------------------------------------
 Trust Radius=3.00D-01 FncErr=1.00D-07 GrdErr=1.00D-06
 Number of steps in this run=     38 maximum allowed number of steps=    100.
 GradGradGradGradGradGradGradGradGradGradGradGradGradGradGradGradGradGrad

                          Input orientation:                          
 ---------------------------------------------------------------------
 Center     Atomic      Atomic             Coordinates (Angstroms)
 Number     Number       Type             X           Y           Z
 ---------------------------------------------------------------------
      1          6           0        1.024500    0.281100   -0.270300
      2          6           0        1.287100    1.756500    0.001200
      3         17           0        0.159600    2.755400   -0.957300
      4         17           0        1.048400    2.102200    1.736600
      5         17           0        2.964700    2.164200   -0.453400
      6          1           0        1.702900   -0.359700    0.305300
      7          1           0       -0.000100    0.000000   -0.000200
      8          1           0        1.163100    0.037500   -1.330500
 ---------------------------------------------------------------------
                    Distance matrix (angstroms):
                    1          2          3          4          5
     1  C    0.000000
     2  C    1.522983   0.000000
     3  Cl   2.709646   1.785435   0.000000
     4  Cl   2.710097   1.785525   2.910968   0.000000
     5  Cl   2.709976   1.785279   2.910673   2.910696   0.000000
     6  H    1.096434   2.177997   3.698619   2.921976   2.921958
     7  H    1.096256   2.177654   2.921262   2.921484   3.698539
     8  H    1.096620   2.178018   2.921176   3.699087   2.921972
                    6          7          8
     6  H    0.000000
     7  H    1.767179   0.000000
     8  H    1.767765   1.767523   0.000000
 Stoichiometry    C2H3Cl3
 Framework group  C1[X(C2H3Cl3)]
 Deg. of freedom    18
 Full point group                 C1      NOp   1
 Largest Abelian subgroup         C1      NOp   1
 Largest concise Abelian subgroup C1      NOp   1
                         Standard orientation:                         
 ---------------------------------------------------------------------
 Center     Atomic      Atomic             Coordinates (Angstroms)
 Number     Number       Type             X           Y           Z
 ---------------------------------------------------------------------
      1          6           0        0.000712   -0.000428    1.762952
      2          6           0        0.000036    0.000036    0.239969
      3         17           0        1.411270   -0.912219   -0.363347
      4         17           0       -1.496020   -0.765925   -0.362709
      5         17           0        0.084325    1.678387   -0.362738
      6          1           0       -0.856053    0.553397    2.164696
      7          1           0       -0.050681   -1.019593    2.163498
      8          1           0        0.909470    0.464404    2.163781
 ---------------------------------------------------------------------
 Rotational constants (GHZ):      2.3480727      2.3476412      1.6878218
 Standard basis: 6-31+G(d) (6D, 7F)
 There are   113 symmetry adapted cartesian basis functions of A   symmetry.
 There are   113 symmetry adapted basis functions of A   symmetry.
   113 basis functions,   244 primitive gaussians,   113 cartesian basis functions
    33 alpha electrons       33 beta electrons
       nuclear repulsion energy       360.3080745020 Hartrees.
 NAtoms=    8 NActive=    8 NUniq=    8 SFac= 1.00D+00 NAtFMM=   60 NAOKFM=F Big=F
 Integral buffers will be    131072 words long.
 Raffenetti 2 integral format.
 Two-electron integral symmetry is turned on.
 One-electron integrals computed using PRISM.
 NBasis=   113 RedAO= T EigKep=  4.87D-05  NBF=   113
 NBsUse=   113 1.00D-06 EigRej= -1.00D+00 NBFU=   113
 ExpMin= 4.38D-02 ExpMax= 2.52D+04 ExpMxC= 3.78D+03 IAcc=2 IRadAn=         4 AccDes= 0.00D+00
 Harris functional with IExCor= 1009 and IRadAn=       4 diagonalized for initial guess.
 HarFok:  IExCor= 1009 AccDes= 0.00D+00 IRadAn=         4 IDoV= 1 UseB2=F ITyADJ=14
 ICtDFT=  3500011 ScaDFX=  1.000000  1.000000  1.000000  1.000000
 FoFCou: FMM=F IPFlag=           0 FMFlag=      100000 FMFlg1=           0
         NFxFlg=           0 DoJE=T BraDBF=F KetDBF=T FulRan=T
         wScrn=  0.000000 ICntrl=     500 IOpCl=  0 I1Cent=   200000004 NGrid=           0
         NMat0=    1 NMatS0=      1 NMatT0=    0 NMatD0=    1 NMtDS0=    0 NMtDT0=    0
 Petite list used in FoFCou.
 Keep R1 ints in memory in canonical form, NReq=21740987.
 Requested convergence on RMS density matrix=1.00D-08 within 128 cycles.
 Requested convergence on MAX density matrix=1.00D-06.
 Requested convergence on             energy=1.00D-06.
 No special actions if energy rises.
 SCF Done:  E(RM062X) =  -1458.46840677     A.U. after   12 cycles
            NFock= 12  Conv=0.26D-08     -V/T= 2.0030

 **********************************************************************

            Population analysis using the SCF density.

 **********************************************************************

 Orbital symmetries:
       Occupied  (A) (A) (A) (A) (A) (A) (A) (A) (A) (A) (A) (A)
                 (A) (A) (A) (A) (A) (A) (A) (A) (A) (A) (A) (A)
                 (A) (A) (A) (A) (A) (A) (A) (A) (A)
       Virtual   (A) (A) (A) (A) (A) (A) (A) (A) (A) (A) (A) (A)
                 (A) (A) (A) (A) (A) (A) (A) (A) (A) (A) (A) (A)
                 (A) (A) (A) (A) (A) (A) (A) (A) (A) (A) (A) (A)
                 (A) (A) (A) (A) (A) (A) (A) (A) (A) (A) (A) (A)
                 (A) (A) (A) (A) (A) (A) (A) (A) (A) (A) (A) (A)
                 (A) (A) (A) (A) (A) (A) (A) (A) (A) (A) (A) (A)
                 (A) (A) (A) (A) (A) (A) (A) (A)
 The electronic state is 1-A.
 Alpha  occ. eigenvalues -- -102.69088-102.69079-102.69070 -10.74622 -10.58535
 Alpha  occ. eigenvalues --   -9.83826  -9.83818  -9.83810  -7.56260  -7.56252
 Alpha  occ. eigenvalues --   -7.56244  -7.55517  -7.55510  -7.55509  -7.55501
 Alpha  occ. eigenvalues --   -7.55501  -7.55494  -1.05926  -0.94016  -0.94010
 Alpha  occ. eigenvalues --   -0.85505  -0.68916  -0.56685  -0.56684  -0.54683
 Alpha  occ. eigenvalues --   -0.48008  -0.48007  -0.42030  -0.42028  -0.39467
 Alpha  occ. eigenvalues --   -0.38647  -0.38645  -0.37383
 Alpha virt. eigenvalues --   -0.00447   0.02387   0.03077   0.03080   0.04259
 Alpha virt. eigenvalues --    0.04777   0.04779   0.07993   0.09311   0.09314
 Alpha virt. eigenvalues --    0.11730   0.11732   0.11931   0.13365   0.13366
 Alpha virt. eigenvalues --    0.13597   0.13603   0.13880   0.14051   0.16983
 Alpha virt. eigenvalues --    0.17993   0.17997   0.21785   0.25973   0.25977
 Alpha virt. eigenvalues --    0.28578   0.40379   0.56912   0.56914   0.57026
 Alpha virt. eigenvalues --    0.59927   0.60524   0.60526   0.62589   0.62603
 Alpha virt. eigenvalues --    0.62970   0.67581   0.67588   0.68260   0.69809
 Alpha virt. eigenvalues --    0.71135   0.71436   0.71446   0.76633   0.76639
 Alpha virt. eigenvalues --    0.90118   0.90121   0.91327   0.93458   0.93527
 Alpha virt. eigenvalues --    0.93531   0.96691   0.96703   0.96721   0.99380
 Alpha virt. eigenvalues --    0.99385   1.06896   1.15064   1.15080   1.18074
 Alpha virt. eigenvalues --    1.19080   1.19089   1.29196   1.34364   1.61765
 Alpha virt. eigenvalues --    1.63951   1.63956   1.91970   2.00145   2.00157
 Alpha virt. eigenvalues --    2.16288   2.16306   2.34360   2.34390   2.58805
 Alpha virt. eigenvalues --    4.07062   4.33039   4.40659   4.40692   4.45975
          Condensed to atoms (all electrons):
               1          2          3          4          5          6
     1  C    5.471674   0.397280  -0.129937  -0.130063  -0.129336   0.365619
     2  C    0.397280   5.549158   0.228481   0.228527   0.229934  -0.015581
     3  Cl  -0.129937   0.228481  17.006926  -0.107605  -0.108465   0.012253
     4  Cl  -0.130063   0.228527  -0.107605  17.007108  -0.108357  -0.012979
     5  Cl  -0.129336   0.229934  -0.108465  -0.108357  17.005530  -0.012976
     6  H    0.365619  -0.015581   0.012253  -0.012979  -0.012976   0.447251
     7  H    0.365747  -0.015763  -0.012985  -0.012945   0.012287  -0.023527
     8  H    0.365589  -0.015495  -0.012984   0.012242  -0.012994  -0.023483
               7          8
     1  C    0.365747   0.365589
     2  C   -0.015763  -0.015495
     3  Cl  -0.012985  -0.012984
     4  Cl  -0.012945   0.012242
     5  Cl   0.012287  -0.012994
     6  H   -0.023527  -0.023483
     7  H    0.447182  -0.023490
     8  H   -0.023490   0.447183
 Mulliken charges:
               1
     1  C   -0.576572
     2  C   -0.586541
     3  Cl   0.124316
     4  Cl   0.124072
     5  Cl   0.124377
     6  H    0.263423
     7  H    0.263493
     8  H    0.263431
 Sum of Mulliken charges =   0.00000
 Mulliken charges with hydrogens summed into heavy atoms:
               1
     1  C    0.213775
     2  C   -0.586541
     3  Cl   0.124316
     4  Cl   0.124072
     5  Cl   0.124377
 Electronic spatial extent (au):  <R**2>=            779.7533
 Charge=              0.0000 electrons
 Dipole moment (field-independent basis, Debye):
    X=             -0.0004    Y=             -0.0009    Z=              2.0039  Tot=              2.0039
 Quadrupole moment (field-independent basis, Debye-Ang):
   XX=            -51.5369   YY=            -51.5345   ZZ=            -47.9153
   XY=             -0.0008   XZ=              0.0013   YZ=             -0.0016
 Traceless Quadrupole moment (field-independent basis, Debye-Ang):
   XX=             -1.2080   YY=             -1.2056   ZZ=              2.4136
   XY=             -0.0008   XZ=              0.0013   YZ=             -0.0016
 Octapole moment (field-independent basis, Debye-Ang**2):
  XXX=             -0.3893  YYY=              2.5119  ZZZ=              3.6538  XYY=              0.3782
  XXY=             -2.5168  XXZ=             -2.5161  XZZ=              0.0019  YZZ=             -0.0040
  YYZ=             -2.5227  XYZ=              0.0020
 Hexadecapole moment (field-independent basis, Debye-Ang**3):
 XXXX=           -371.5948 YYYY=           -371.5071 ZZZZ=           -235.4591 XXXY=              0.0029
 XXXZ=              1.0154 YYYX=             -0.0044 YYYZ=             -6.6932 ZZZX=             -0.0027
 ZZZY=              0.0004 XXYY=           -123.8576 XXZZ=           -101.8698 YYZZ=           -101.8625
 XXYZ=              6.6863 YYXZ=             -1.0179 ZZXY=             -0.0026
 N-N= 3.603080745020D+02 E-N=-4.181701332662D+03  KE= 1.454134377492D+03
 Calling FoFJK, ICntrl=      2127 FMM=F ISym2X=0 I1Cent= 0 IOpClX= 0 NMat=1 NMatS=1 NMatT=0.
 ***** Axes restored to original set *****
 -------------------------------------------------------------------
 Center     Atomic                   Forces (Hartrees/Bohr)
 Number     Number              X              Y              Z
 -------------------------------------------------------------------
      1        6          -0.001671009   -0.009990746   -0.001987101
      2        6          -0.001076712   -0.006494882   -0.001382596
      3       17           0.000339838   -0.000121358    0.000195483
      4       17          -0.000126215   -0.000128395   -0.000354420
      5       17          -0.000356227   -0.000005390    0.000208868
      6        1           0.000961642    0.005585679    0.000992579
      7        1           0.001010914    0.005536661    0.001023221
      8        1           0.000917769    0.005618432    0.001303966
 -------------------------------------------------------------------
 Cartesian Forces:  Max     0.009990746 RMS     0.003241977

 GradGradGradGradGradGradGradGradGradGradGradGradGradGradGradGradGradGrad
 Berny optimization.
 FormGI is forming the generalized inverse of G from B-inverse, IUseBI=4.
 Internal  Forces:  Max     0.006986946 RMS     0.002894705
 Search for a local minimum.
 Step number   1 out of a maximum of   38
 All quantities printed in internal units (Hartrees-Bohrs-Radians)
 Mixed Optimization -- RFO/linear search
 Second derivative matrix not updated -- first step.
 ITU=  0
     Eigenvalues ---    0.00462   0.05504   0.05506   0.08919   0.08923
     Eigenvalues ---    0.16000   0.16000   0.16000   0.25000   0.25000
     Eigenvalues ---    0.25000   0.27291   0.27298   0.27311   0.30081
     Eigenvalues ---    0.34059   0.34080   0.34100
 RFO step:  Lambda=-1.26591317D-03 EMin= 4.61930961D-03
 Linear search not attempted -- first point.
 Iteration  1 RMS(Cart)=  0.02269370 RMS(Int)=  0.00046640
 Iteration  2 RMS(Cart)=  0.00038632 RMS(Int)=  0.00023466
 Iteration  3 RMS(Cart)=  0.00000021 RMS(Int)=  0.00023466
 Variable       Old X    -DE/DX   Delta X   Delta X   Delta X     New X
                                 (Linear)    (Quad)   (Total)
    R1        2.87802  -0.00699   0.00000  -0.02313  -0.02313   2.85489
    R2        2.07196  -0.00215   0.00000  -0.00628  -0.00628   2.06568
    R3        2.07162  -0.00210   0.00000  -0.00614  -0.00614   2.06548
    R4        2.07231  -0.00240   0.00000  -0.00703  -0.00703   2.06528
    R5        3.37398  -0.00039   0.00000  -0.00141  -0.00141   3.37258
    R6        3.37415  -0.00036   0.00000  -0.00132  -0.00132   3.37283
    R7        3.37369  -0.00038   0.00000  -0.00139  -0.00139   3.37230
    A1        1.94541  -0.00517   0.00000  -0.03203  -0.03254   1.91286
    A2        1.94512  -0.00516   0.00000  -0.03212  -0.03263   1.91248
    A3        1.94524  -0.00510   0.00000  -0.03155  -0.03205   1.91319
    A4        1.87453   0.00551   0.00000   0.03397   0.03345   1.90798
    A5        1.87498   0.00552   0.00000   0.03441   0.03391   1.90889
    A6        1.87483   0.00549   0.00000   0.03406   0.03356   1.90838
    A7        1.91495   0.00025   0.00000   0.00098   0.00098   1.91593
    A8        1.91535  -0.00024   0.00000  -0.00110  -0.00110   1.91425
    A9        1.91544   0.00020   0.00000   0.00096   0.00096   1.91640
   A10        1.90607  -0.00006   0.00000  -0.00054  -0.00054   1.90553
   A11        1.90598  -0.00018   0.00000  -0.00041  -0.00041   1.90557
   A12        1.90593   0.00002   0.00000   0.00011   0.00011   1.90604
    D1       -3.14159   0.00002   0.00000  -0.00565  -0.00565   3.13595
    D2       -1.04722  -0.00004   0.00000  -0.00639  -0.00640  -1.05362
    D3        1.04728  -0.00004   0.00000  -0.00634  -0.00635   1.04093
    D4       -1.04750   0.00000   0.00000  -0.00610  -0.00610  -1.05359
    D5        1.04687  -0.00007   0.00000  -0.00685  -0.00684   1.04003
    D6        3.14137  -0.00007   0.00000  -0.00680  -0.00679   3.13458
    D7        1.04686   0.00000   0.00000  -0.00611  -0.00611   1.04075
    D8        3.14122  -0.00007   0.00000  -0.00686  -0.00685   3.13437
    D9       -1.04746  -0.00007   0.00000  -0.00681  -0.00681  -1.05426
         Item               Value     Threshold  Converged?
 Maximum Force            0.006987     0.000450     NO 
 RMS     Force            0.002895     0.000300     NO 
 Maximum Displacement     0.053348     0.001800     NO 
 RMS     Displacement     0.022921     0.001200     NO 
 Predicted change in Energy=-6.376352D-04
 GradGradGradGradGradGradGradGradGradGradGradGradGradGradGradGradGradGrad

                          Input orientation:                          
 ---------------------------------------------------------------------
 Center     Atomic      Atomic             Coordinates (Angstroms)
 Number     Number       Type             X           Y           Z
 ---------------------------------------------------------------------
      1          6           0        1.023422    0.274427   -0.271551
      2          6           0        1.284079    1.738056   -0.002866
      3         17           0        0.159173    2.737741   -0.962208
      4         17           0        1.041955    2.083162    1.731459
      5         17           0        2.961724    2.146122   -0.454071
      6          1           0        1.717613   -0.334971    0.312939
      7          1           0       -0.002549    0.026932    0.012683
      8          1           0        1.164783    0.065731   -1.334984
 ---------------------------------------------------------------------
                    Distance matrix (angstroms):
                    1          2          3          4          5
     1  C    0.000000
     2  C    1.510743   0.000000
     3  Cl   2.700343   1.784691   0.000000
     4  Cl   2.698873   1.784826   2.909230   0.000000
     5  Cl   2.700662   1.784545   2.909039   2.909643   0.000000
     6  H    1.093113   2.141290   3.673730   2.883762   2.879573
     7  H    1.093005   2.140934   2.885317   2.876328   3.673656
     8  H    1.092898   2.141365   2.879211   3.672627   2.886700
                    6          7          8
     6  H    0.000000
     7  H    1.783279   0.000000
     8  H    1.783769   1.783361   0.000000
 Stoichiometry    C2H3Cl3
 Framework group  C1[X(C2H3Cl3)]
 Deg. of freedom    18
 Full point group                 C1      NOp   1
 Largest Abelian subgroup         C1      NOp   1
 Largest concise Abelian subgroup C1      NOp   1
                         Standard orientation:                         
 ---------------------------------------------------------------------
 Center     Atomic      Atomic             Coordinates (Angstroms)
 Number     Number       Type             X           Y           Z
 ---------------------------------------------------------------------
      1          6           0       -0.003257    0.000867    1.754115
      2          6           0        0.000119    0.000188    0.243376
      3         17           0        0.289649   -1.654620   -0.359039
      4         17           0       -1.577014    0.576788   -0.361428
      5         17           0        1.289258    1.077283   -0.358776
      6          1           0       -0.175048    1.016520    2.119945
      7          1           0       -0.798548   -0.654208    2.118875
      8          1           0        0.960256   -0.359309    2.123360
 ---------------------------------------------------------------------
 Rotational constants (GHZ):      2.3620905      2.3612907      1.6891922
 Standard basis: 6-31+G(d) (6D, 7F)
 There are   113 symmetry adapted cartesian basis functions of A   symmetry.
 There are   113 symmetry adapted basis functions of A   symmetry.
   113 basis functions,   244 primitive gaussians,   113 cartesian basis functions
    33 alpha electrons       33 beta electrons
       nuclear repulsion energy       361.1463470638 Hartrees.
 NAtoms=    8 NActive=    8 NUniq=    8 SFac= 1.00D+00 NAtFMM=   60 NAOKFM=F Big=F
 Integral buffers will be    131072 words long.
 Raffenetti 2 integral format.
 Two-electron integral symmetry is turned on.
 One-electron integrals computed using PRISM.
 NBasis=   113 RedAO= T EigKep=  4.67D-05  NBF=   113
 NBsUse=   113 1.00D-06 EigRej= -1.00D+00 NBFU=   113
 Initial guess from the checkpoint file:  "/srv/scratch/z5358697/gauss/Gau-1875453.chk"
 B after Tr=     0.000000    0.000000    0.000000
         Rot=    0.916293    0.000028    0.000767    0.400509 Ang=  47.22 deg.
 ExpMin= 4.38D-02 ExpMax= 2.52D+04 ExpMxC= 3.78D+03 IAcc=2 IRadAn=         4 AccDes= 0.00D+00
 Harris functional with IExCor= 1009 and IRadAn=       4 diagonalized for initial guess.
 HarFok:  IExCor= 1009 AccDes= 0.00D+00 IRadAn=         4 IDoV= 1 UseB2=F ITyADJ=14
 ICtDFT=  3500011 ScaDFX=  1.000000  1.000000  1.000000  1.000000
 FoFCou: FMM=F IPFlag=           0 FMFlag=      100000 FMFlg1=           0
         NFxFlg=           0 DoJE=T BraDBF=F KetDBF=T FulRan=T
         wScrn=  0.000000 ICntrl=     500 IOpCl=  0 I1Cent=   200000004 NGrid=           0
         NMat0=    1 NMatS0=      1 NMatT0=    0 NMatD0=    1 NMtDS0=    0 NMtDT0=    0
 Petite list used in FoFCou.
 Keep R1 ints in memory in canonical form, NReq=21740987.
 Requested convergence on RMS density matrix=1.00D-08 within 128 cycles.
 Requested convergence on MAX density matrix=1.00D-06.
 Requested convergence on             energy=1.00D-06.
 No special actions if energy rises.
 SCF Done:  E(RM062X) =  -1458.46903085     A.U. after   10 cycles
            NFock= 10  Conv=0.47D-08     -V/T= 2.0029
 Calling FoFJK, ICntrl=      2127 FMM=F ISym2X=0 I1Cent= 0 IOpClX= 0 NMat=1 NMatS=1 NMatT=0.
 ***** Axes restored to original set *****
 -------------------------------------------------------------------
 Center     Atomic                   Forces (Hartrees/Bohr)
 Number     Number              X              Y              Z
 -------------------------------------------------------------------
      1        6          -0.000777859   -0.004817417   -0.000934279
      2        6           0.000290133    0.001117127    0.000678338
      3       17          -0.000190172    0.000718555   -0.000408297
      4       17           0.000038039    0.000839589    0.000421481
      5       17           0.000418361    0.000564777   -0.000006170
      6        1          -0.000145911    0.000612053   -0.000097754
      7        1           0.000286419    0.000513386   -0.000010982
      8        1           0.000080990    0.000451929    0.000357664
 -------------------------------------------------------------------
 Cartesian Forces:  Max     0.004817417 RMS     0.001111772

 GradGradGradGradGradGradGradGradGradGradGradGradGradGradGradGradGradGrad
 Berny optimization.
 Using GEDIIS/GDIIS optimizer.
 FormGI is forming the generalized inverse of G from B-inverse, IUseBI=4.
 Internal  Forces:  Max     0.003356867 RMS     0.000827740
 Search for a local minimum.
 Step number   2 out of a maximum of   38
 All quantities printed in internal units (Hartrees-Bohrs-Radians)
 Mixed Optimization -- En-DIIS/RFO-DIIS
 Update second derivatives using D2CorX and points    1    2
 DE= -6.24D-04 DEPred=-6.38D-04 R= 9.79D-01
 TightC=F SS=  1.41D+00  RLast= 8.71D-02 DXNew= 5.0454D-01 2.6137D-01
 Trust test= 9.79D-01 RLast= 8.71D-02 DXMaxT set to 3.00D-01
 ITU=  1  0
 Use linear search instead of GDIIS.
     Eigenvalues ---    0.00462   0.05840   0.05846   0.08902   0.08926
     Eigenvalues ---    0.13394   0.16000   0.16003   0.24990   0.25000
     Eigenvalues ---    0.25228   0.27294   0.27307   0.27377   0.33664
     Eigenvalues ---    0.34064   0.34091   0.35853
 RFO step:  Lambda=-7.31558782D-05 EMin= 4.61824022D-03
 Quartic linear search produced a step of  0.01198.
 Iteration  1 RMS(Cart)=  0.00460976 RMS(Int)=  0.00001688
 Iteration  2 RMS(Cart)=  0.00001495 RMS(Int)=  0.00000920
 Iteration  3 RMS(Cart)=  0.00000000 RMS(Int)=  0.00000920
 Variable       Old X    -DE/DX   Delta X   Delta X   Delta X     New X
                                 (Linear)    (Quad)   (Total)
    R1        2.85489   0.00336  -0.00028   0.01023   0.00995   2.86484
    R2        2.06568  -0.00051  -0.00008  -0.00179  -0.00186   2.06382
    R3        2.06548  -0.00040  -0.00007  -0.00146  -0.00153   2.06395
    R4        2.06528  -0.00040  -0.00008  -0.00150  -0.00158   2.06370
    R5        3.37258   0.00073  -0.00002   0.00263   0.00261   3.37519
    R6        3.37283   0.00059  -0.00002   0.00212   0.00211   3.37494
    R7        3.37230   0.00052  -0.00002   0.00185   0.00184   3.37414
    A1        1.91286  -0.00035  -0.00039  -0.00363  -0.00403   1.90883
    A2        1.91248  -0.00044  -0.00039  -0.00420  -0.00461   1.90787
    A3        1.91319  -0.00050  -0.00038  -0.00484  -0.00525   1.90794
    A4        1.90798   0.00044   0.00040   0.00472   0.00511   1.91309
    A5        1.90889   0.00041   0.00041   0.00396   0.00435   1.91324
    A6        1.90838   0.00044   0.00040   0.00405   0.00443   1.91281
    A7        1.91593   0.00054   0.00001   0.00202   0.00203   1.91796
    A8        1.91425   0.00134  -0.00001   0.00584   0.00582   1.92006
    A9        1.91640   0.00075   0.00001   0.00283   0.00283   1.91924
   A10        1.90553  -0.00087  -0.00001  -0.00305  -0.00306   1.90247
   A11        1.90557  -0.00081   0.00000  -0.00420  -0.00421   1.90136
   A12        1.90604  -0.00098   0.00000  -0.00355  -0.00356   1.90249
    D1        3.13595  -0.00013  -0.00007  -0.00413  -0.00420   3.13175
    D2       -1.05362  -0.00003  -0.00008  -0.00300  -0.00308  -1.05669
    D3        1.04093   0.00006  -0.00008  -0.00198  -0.00205   1.03889
    D4       -1.05359  -0.00008  -0.00007  -0.00316  -0.00323  -1.05683
    D5        1.04003   0.00003  -0.00008  -0.00203  -0.00211   1.03792
    D6        3.13458   0.00012  -0.00008  -0.00100  -0.00108   3.13350
    D7        1.04075  -0.00011  -0.00007  -0.00376  -0.00384   1.03691
    D8        3.13437  -0.00001  -0.00008  -0.00263  -0.00272   3.13165
    D9       -1.05426   0.00008  -0.00008  -0.00161  -0.00169  -1.05595
         Item               Value     Threshold  Converged?
 Maximum Force            0.003357     0.000450     NO 
 RMS     Force            0.000828     0.000300     NO 
 Maximum Displacement     0.013465     0.001800     NO 
 RMS     Displacement     0.004603     0.001200     NO 
 Predicted change in Energy=-3.655801D-05
 GradGradGradGradGradGradGradGradGradGradGradGradGradGradGradGradGradGrad

                          Input orientation:                          
 ---------------------------------------------------------------------
 Center     Atomic      Atomic             Coordinates (Angstroms)
 Number     Number       Type             X           Y           Z
 ---------------------------------------------------------------------
      1          6           0        1.022266    0.267697   -0.272682
      2          6           0        1.283711    1.736217   -0.001795
      3         17           0        0.161536    2.740473   -0.962131
      4         17           0        1.042427    2.090288    1.731988
      5         17           0        2.961358    2.149887   -0.451731
      6          1           0        1.719171   -0.337885    0.310699
      7          1           0       -0.003272    0.024542    0.013737
      8          1           0        1.163002    0.065982   -1.336686
 ---------------------------------------------------------------------
                    Distance matrix (angstroms):
                    1          2          3          4          5
     1  C    0.000000
     2  C    1.516010   0.000000
     3  Cl   2.707548   1.786071   0.000000
     4  Cl   2.709418   1.785942   2.908090   0.000000
     5  Cl   2.708280   1.785516   2.906597   2.907658   0.000000
     6  H    1.092126   2.142236   3.677310   2.893798   2.883287
     7  H    1.092194   2.141587   2.890632   2.883259   3.677334
     8  H    1.092062   2.141539   2.880300   3.678194   2.891348
                    6          7          8
     6  H    0.000000
     7  H    1.785035   0.000000
     8  H    1.785023   1.784811   0.000000
 Stoichiometry    C2H3Cl3
 Framework group  C1[X(C2H3Cl3)]
 Deg. of freedom    18
 Full point group                 C1      NOp   1
 Largest Abelian subgroup         C1      NOp   1
 Largest concise Abelian subgroup C1      NOp   1
                         Standard orientation:                         
 ---------------------------------------------------------------------
 Center     Atomic      Atomic             Coordinates (Angstroms)
 Number     Number       Type             X           Y           Z
 ---------------------------------------------------------------------
      1          6           0        0.002177   -0.001192    1.763817
      2          6           0       -0.000411    0.000148    0.247811
      3         17           0        1.040939   -1.316206   -0.362807
      4         17           0       -1.661804   -0.242816   -0.360738
      5         17           0        0.619727    1.559709   -0.361506
      6          1           0       -0.628686    0.812606    2.127800
      7          1           0       -0.386464   -0.955915    2.124856
      8          1           0        1.023903    0.137892    2.123443
 ---------------------------------------------------------------------
 Rotational constants (GHZ):      2.3576870      2.3557055      1.6912958
 Standard basis: 6-31+G(d) (6D, 7F)
 There are   113 symmetry adapted cartesian basis functions of A   symmetry.
 There are   113 symmetry adapted basis functions of A   symmetry.
   113 basis functions,   244 primitive gaussians,   113 cartesian basis functions
    33 alpha electrons       33 beta electrons
       nuclear repulsion energy       360.9194244821 Hartrees.
 NAtoms=    8 NActive=    8 NUniq=    8 SFac= 1.00D+00 NAtFMM=   60 NAOKFM=F Big=F
 Integral buffers will be    131072 words long.
 Raffenetti 2 integral format.
 Two-electron integral symmetry is turned on.
 One-electron integrals computed using PRISM.
 NBasis=   113 RedAO= T EigKep=  4.75D-05  NBF=   113
 NBsUse=   113 1.00D-06 EigRej= -1.00D+00 NBFU=   113
 Initial guess from the checkpoint file:  "/srv/scratch/z5358697/gauss/Gau-1875453.chk"
 B after Tr=     0.000000    0.000000    0.000000
         Rot=    0.969408   -0.000350   -0.001031   -0.245453 Ang= -28.42 deg.
 Keep R1 ints in memory in canonical form, NReq=21740987.
 Requested convergence on RMS density matrix=1.00D-08 within 128 cycles.
 Requested convergence on MAX density matrix=1.00D-06.
 Requested convergence on             energy=1.00D-06.
 No special actions if energy rises.
 SCF Done:  E(RM062X) =  -1458.46904292     A.U. after    9 cycles
            NFock=  9  Conv=0.85D-08     -V/T= 2.0030
 Calling FoFJK, ICntrl=      2127 FMM=F ISym2X=0 I1Cent= 0 IOpClX= 0 NMat=1 NMatS=1 NMatT=0.
 ***** Axes restored to original set *****
 -------------------------------------------------------------------
 Center     Atomic                   Forces (Hartrees/Bohr)
 Number     Number              X              Y              Z
 -------------------------------------------------------------------
      1        6          -0.000208710   -0.000171725    0.000139210
      2        6          -0.000065816    0.000782613   -0.000227938
      3       17          -0.000169036   -0.000088729    0.000097968
      4       17          -0.000200064   -0.000327195    0.000079887
      5       17           0.000393006   -0.000085498   -0.000048862
      6        1           0.000101983   -0.000017807    0.000094803
      7        1           0.000042026   -0.000028301   -0.000056130
      8        1           0.000106610   -0.000063358   -0.000078938
 -------------------------------------------------------------------
 Cartesian Forces:  Max     0.000782613 RMS     0.000220973

 GradGradGradGradGradGradGradGradGradGradGradGradGradGradGradGradGradGrad
 Berny optimization.
 Using GEDIIS/GDIIS optimizer.
 FormGI is forming the generalized inverse of G from B-inverse, IUseBI=4.
 Internal  Forces:  Max     0.000743586 RMS     0.000223894
 Search for a local minimum.
 Step number   3 out of a maximum of   38
 All quantities printed in internal units (Hartrees-Bohrs-Radians)
 Mixed Optimization -- En-DIIS/RFO-DIIS
 Swapping is turned off.
 Update second derivatives using D2CorX and points    1    2    3
 DE= -1.21D-05 DEPred=-3.66D-05 R= 3.30D-01
 Trust test= 3.30D-01 RLast= 2.02D-02 DXMaxT set to 3.00D-01
 ITU=  0  1  0
     Eigenvalues ---    0.00467   0.05887   0.05904   0.08840   0.08977
     Eigenvalues ---    0.12697   0.16000   0.16050   0.24916   0.25001
     Eigenvalues ---    0.27050   0.27111   0.27294   0.28575   0.33935
     Eigenvalues ---    0.34063   0.34120   0.36277
 En-DIIS/RFO-DIIS IScMMF=        0 using points:     3    2
 RFO step:  Lambda=-2.77218021D-06.
 DidBck=F Rises=F RFO-DIIS coefs:    0.90393    0.09607
 Iteration  1 RMS(Cart)=  0.00257425 RMS(Int)=  0.00000364
 Iteration  2 RMS(Cart)=  0.00000391 RMS(Int)=  0.00000053
 Iteration  3 RMS(Cart)=  0.00000000 RMS(Int)=  0.00000053
 Variable       Old X    -DE/DX   Delta X   Delta X   Delta X     New X
                                 (Linear)    (Quad)   (Total)
    R1        2.86484   0.00025  -0.00096   0.00237   0.00141   2.86626
    R2        2.06382   0.00012   0.00018   0.00002   0.00020   2.06402
    R3        2.06395  -0.00002   0.00015  -0.00031  -0.00016   2.06378
    R4        2.06370   0.00008   0.00015  -0.00003   0.00012   2.06382
    R5        3.37519   0.00000  -0.00025   0.00042   0.00017   3.37536
    R6        3.37494   0.00003  -0.00020   0.00043   0.00023   3.37517
    R7        3.37414   0.00038  -0.00018   0.00155   0.00137   3.37551
    A1        1.90883  -0.00011   0.00039  -0.00139  -0.00100   1.90783
    A2        1.90787   0.00002   0.00044  -0.00057  -0.00012   1.90775
    A3        1.90794   0.00010   0.00050  -0.00018   0.00032   1.90826
    A4        1.91309   0.00002  -0.00049   0.00072   0.00023   1.91331
    A5        1.91324  -0.00001  -0.00042   0.00051   0.00009   1.91333
    A6        1.91281  -0.00002  -0.00043   0.00090   0.00048   1.91329
    A7        1.91796   0.00000  -0.00019   0.00049   0.00029   1.91825
    A8        1.92006  -0.00074  -0.00056  -0.00225  -0.00281   1.91725
    A9        1.91924  -0.00030  -0.00027  -0.00029  -0.00056   1.91868
   A10        1.90247   0.00025   0.00029  -0.00028   0.00001   1.90248
   A11        1.90136   0.00036   0.00040   0.00163   0.00203   1.90339
   A12        1.90249   0.00047   0.00034   0.00075   0.00109   1.90358
    D1        3.13175   0.00016   0.00040   0.00472   0.00513   3.13687
    D2       -1.05669   0.00000   0.00030   0.00326   0.00356  -1.05313
    D3        1.03889  -0.00009   0.00020   0.00259   0.00278   1.04167
    D4       -1.05683   0.00013   0.00031   0.00441   0.00472  -1.05211
    D5        1.03792  -0.00003   0.00020   0.00295   0.00315   1.04107
    D6        3.13350  -0.00012   0.00010   0.00227   0.00238   3.13587
    D7        1.03691   0.00018   0.00037   0.00506   0.00543   1.04234
    D8        3.13165   0.00002   0.00026   0.00360   0.00386   3.13551
    D9       -1.05595  -0.00007   0.00016   0.00292   0.00308  -1.05287
         Item               Value     Threshold  Converged?
 Maximum Force            0.000744     0.000450     NO 
 RMS     Force            0.000224     0.000300     YES
 Maximum Displacement     0.005533     0.001800     NO 
 RMS     Displacement     0.002575     0.001200     NO 
 Predicted change in Energy=-3.090241D-06
 GradGradGradGradGradGradGradGradGradGradGradGradGradGradGradGradGradGrad

                          Input orientation:                          
 ---------------------------------------------------------------------
 Center     Atomic      Atomic             Coordinates (Angstroms)
 Number     Number       Type             X           Y           Z
 ---------------------------------------------------------------------
      1          6           0        1.022159    0.267860   -0.272724
      2          6           0        1.283942    1.737269   -0.002798
      3         17           0        0.159306    2.741370   -0.960584
      4         17           0        1.043023    2.087554    1.731928
      5         17           0        2.962412    2.149639   -0.453742
      6          1           0        1.717713   -0.336592    0.313627
      7          1           0       -0.004064    0.025729    0.011772
      8          1           0        1.165709    0.064370   -1.336080
 ---------------------------------------------------------------------
                    Distance matrix (angstroms):
                    1          2          3          4          5
     1  C    0.000000
     2  C    1.516757   0.000000
     3  Cl   2.708490   1.786163   0.000000
     4  Cl   2.707462   1.786061   2.908272   0.000000
     5  Cl   2.708956   1.786242   2.909371   2.909478   0.000000
     6  H    1.092230   2.142238   3.677784   2.888472   2.884350
     7  H    1.092107   2.142088   2.889095   2.882092   3.677999
     8  H    1.092127   2.142478   2.884471   3.677091   2.890503
                    6          7          8
     6  H    0.000000
     7  H    1.785192   0.000000
     8  H    1.785220   1.785095   0.000000
 Stoichiometry    C2H3Cl3
 Framework group  C1[X(C2H3Cl3)]
 Deg. of freedom    18
 Full point group                 C1      NOp   1
 Largest Abelian subgroup         C1      NOp   1
 Largest concise Abelian subgroup C1      NOp   1
                         Standard orientation:                         
 ---------------------------------------------------------------------
 Center     Atomic      Atomic             Coordinates (Angstroms)
 Number     Number       Type             X           Y           Z
 ---------------------------------------------------------------------
      1          6           0       -0.001142    0.001704    1.763225
      2          6           0        0.000339    0.000080    0.246470
      3         17           0       -0.782442   -1.486099   -0.360904
      4         17           0       -0.895888    1.419959   -0.362411
      5         17           0        1.678888    0.065122   -0.360902
      6          1           0        0.483615    0.911585    2.123911
      7          1           0       -1.031613   -0.032340    2.123320
      8          1           0        0.543335   -0.872635    2.126293
 ---------------------------------------------------------------------
 Rotational constants (GHZ):      2.3564845      2.3547657      1.6894610
 Standard basis: 6-31+G(d) (6D, 7F)
 There are   113 symmetry adapted cartesian basis functions of A   symmetry.
 There are   113 symmetry adapted basis functions of A   symmetry.
   113 basis functions,   244 primitive gaussians,   113 cartesian basis functions
    33 alpha electrons       33 beta electrons
       nuclear repulsion energy       360.8160564029 Hartrees.
 NAtoms=    8 NActive=    8 NUniq=    8 SFac= 1.00D+00 NAtFMM=   60 NAOKFM=F Big=F
 Integral buffers will be    131072 words long.
 Raffenetti 2 integral format.
 Two-electron integral symmetry is turned on.
 One-electron integrals computed using PRISM.
 NBasis=   113 RedAO= T EigKep=  4.76D-05  NBF=   113
 NBsUse=   113 1.00D-06 EigRej= -1.00D+00 NBFU=   113
 Initial guess from the checkpoint file:  "/srv/scratch/z5358697/gauss/Gau-1875453.chk"
 B after Tr=     0.000000    0.000000    0.000000
         Rot=    0.838250    0.000607    0.000592    0.545286 Ang=  66.09 deg.
 Keep R1 ints in memory in canonical form, NReq=21740987.
 Requested convergence on RMS density matrix=1.00D-08 within 128 cycles.
 Requested convergence on MAX density matrix=1.00D-06.
 Requested convergence on             energy=1.00D-06.
 No special actions if energy rises.
 SCF Done:  E(RM062X) =  -1458.46909884     A.U. after    9 cycles
            NFock=  9  Conv=0.37D-08     -V/T= 2.0030
 Calling FoFJK, ICntrl=      2127 FMM=F ISym2X=0 I1Cent= 0 IOpClX= 0 NMat=1 NMatS=1 NMatT=0.
 ***** Axes restored to original set *****
 -------------------------------------------------------------------
 Center     Atomic                   Forces (Hartrees/Bohr)
 Number     Number              X              Y              Z
 -------------------------------------------------------------------
      1        6           0.000107430    0.000093713   -0.000003620
      2        6           0.000199843    0.000304133    0.000139344
      3       17          -0.000118033   -0.000242366   -0.000004575
      4       17           0.000176320   -0.000068318    0.000021260
      5       17          -0.000308995   -0.000086052   -0.000038459
      6        1          -0.000049273    0.000009219    0.000035087
      7        1          -0.000065702   -0.000011461   -0.000035062
      8        1           0.000058409    0.000001132   -0.000113976
 -------------------------------------------------------------------
 Cartesian Forces:  Max     0.000308995 RMS     0.000130907

 GradGradGradGradGradGradGradGradGradGradGradGradGradGradGradGradGradGrad
 Berny optimization.
 Using GEDIIS/GDIIS optimizer.
 FormGI is forming the generalized inverse of G from B-inverse, IUseBI=4.
 Internal  Forces:  Max     0.000486378 RMS     0.000140672
 Search for a local minimum.
 Step number   4 out of a maximum of   38
 All quantities printed in internal units (Hartrees-Bohrs-Radians)
 Mixed Optimization -- En-DIIS/RFO-DIIS
 Swapping is turned off.
 Update second derivatives using D2CorX and points    1    2    3    4
 DE= -5.59D-05 DEPred=-3.09D-06 R= 1.81D+01
 TightC=F SS=  1.41D+00  RLast= 1.25D-02 DXNew= 5.0454D-01 3.7647D-02
 Trust test= 1.81D+01 RLast= 1.25D-02 DXMaxT set to 3.00D-01
 ITU=  1  0  1  0
     Eigenvalues ---    0.00229   0.05895   0.05958   0.08863   0.10264
     Eigenvalues ---    0.12531   0.16000   0.16210   0.20594   0.25000
     Eigenvalues ---    0.26627   0.27290   0.27357   0.33456   0.33826
     Eigenvalues ---    0.34032   0.34855   0.54055
 En-DIIS/RFO-DIIS IScMMF=        0 using points:     4    3    2
 RFO step:  Lambda=-1.44564327D-06.
 DidBck=F Rises=F RFO-DIIS coefs:    1.06411   -0.19759    0.13348
 Iteration  1 RMS(Cart)=  0.01180783 RMS(Int)=  0.00007859
 Iteration  2 RMS(Cart)=  0.00008074 RMS(Int)=  0.00000198
 Iteration  3 RMS(Cart)=  0.00000000 RMS(Int)=  0.00000198
 Variable       Old X    -DE/DX   Delta X   Delta X   Delta X     New X
                                 (Linear)    (Quad)   (Total)
    R1        2.86626  -0.00008  -0.00124   0.00491   0.00367   2.86993
    R2        2.06402  -0.00003   0.00026  -0.00028  -0.00001   2.06400
    R3        2.06378   0.00007   0.00019  -0.00052  -0.00032   2.06346
    R4        2.06382   0.00012   0.00022   0.00015   0.00037   2.06419
    R5        3.37536  -0.00007  -0.00034   0.00074   0.00040   3.37576
    R6        3.37517  -0.00002  -0.00027   0.00091   0.00064   3.37581
    R7        3.37551  -0.00029  -0.00016   0.00178   0.00163   3.37713
    A1        1.90783   0.00005   0.00047  -0.00262  -0.00214   1.90568
    A2        1.90775  -0.00002   0.00061  -0.00187  -0.00126   1.90649
    A3        1.90826  -0.00005   0.00072  -0.00135  -0.00063   1.90763
    A4        1.91331  -0.00001  -0.00067   0.00193   0.00126   1.91458
    A5        1.91333   0.00002  -0.00057   0.00184   0.00126   1.91459
    A6        1.91329   0.00001  -0.00056   0.00204   0.00148   1.91477
    A7        1.91825  -0.00049  -0.00025  -0.00114  -0.00139   1.91686
    A8        1.91725   0.00007  -0.00096  -0.00300  -0.00396   1.91329
    A9        1.91868  -0.00012  -0.00041  -0.00098  -0.00139   1.91728
   A10        1.90248   0.00027   0.00041   0.00082   0.00123   1.90370
   A11        1.90339   0.00024   0.00069   0.00319   0.00388   1.90727
   A12        1.90358   0.00003   0.00054   0.00118   0.00172   1.90529
    D1        3.13687   0.00001   0.00089   0.02217   0.02306  -3.12325
    D2       -1.05313   0.00009   0.00064   0.02060   0.02124  -1.03190
    D3        1.04167   0.00010   0.00045   0.01956   0.02001   1.06168
    D4       -1.05211   0.00002   0.00073   0.02181   0.02254  -1.02957
    D5        1.04107   0.00009   0.00048   0.02023   0.02072   1.06179
    D6        3.13587   0.00010   0.00030   0.01920   0.01949  -3.12782
    D7        1.04234  -0.00001   0.00086   0.02234   0.02320   1.06554
    D8        3.13551   0.00006   0.00061   0.02077   0.02138  -3.12629
    D9       -1.05287   0.00007   0.00042   0.01973   0.02016  -1.03271
         Item               Value     Threshold  Converged?
 Maximum Force            0.000486     0.000450     NO 
 RMS     Force            0.000141     0.000300     YES
 Maximum Displacement     0.029051     0.001800     NO 
 RMS     Displacement     0.011812     0.001200     NO 
 Predicted change in Energy=-6.462740D-06
 GradGradGradGradGradGradGradGradGradGradGradGradGradGradGradGradGradGrad

                          Input orientation:                          
 ---------------------------------------------------------------------
 Center     Atomic      Atomic             Coordinates (Angstroms)
 Number     Number       Type             X           Y           Z
 ---------------------------------------------------------------------
      1          6           0        1.021954    0.267791   -0.272910
      2          6           0        1.284499    1.739214   -0.003763
      3         17           0        0.150581    2.740702   -0.953705
      4         17           0        1.051420    2.082189    1.733843
      5         17           0        2.961926    2.150320   -0.463074
      6          1           0        1.707760   -0.334764    0.326712
      7          1           0       -0.009022    0.030953   -0.002132
      8          1           0        1.181082    0.060795   -1.333571
 ---------------------------------------------------------------------
                    Distance matrix (angstroms):
                    1          2          3          4          5
     1  C    0.000000
     2  C    1.518702   0.000000
     3  Cl   2.708886   1.786376   0.000000
     4  Cl   2.705543   1.786402   2.909994   0.000000
     5  Cl   2.709901   1.787102   2.914263   2.912236   0.000000
     6  H    1.092222   2.142370   3.677332   2.872710   2.893499
     7  H    1.091936   2.142745   2.876406   2.888895   3.678412
     8  H    1.092324   2.143869   2.896227   3.675850   2.880153
                    6          7          8
     6  H    0.000000
     7  H    1.785840   0.000000
     8  H    1.786168   1.786048   0.000000
 Stoichiometry    C2H3Cl3
 Framework group  C1[X(C2H3Cl3)]
 Deg. of freedom    18
 Full point group                 C1      NOp   1
 Largest Abelian subgroup         C1      NOp   1
 Largest concise Abelian subgroup C1      NOp   1
                         Standard orientation:                         
 ---------------------------------------------------------------------
 Center     Atomic      Atomic             Coordinates (Angstroms)
 Number     Number       Type             X           Y           Z
 ---------------------------------------------------------------------
      1          6           0       -0.001689    0.004849    1.762167
      2          6           0        0.000539   -0.000872    0.243478
      3         17           0       -1.171729   -1.206350   -0.359641
      4         17           0       -0.459509    1.615138   -0.363235
      5         17           0        1.632003   -0.411356   -0.359480
      6          1           0        0.704254    0.757857    2.119341
      7          1           0       -1.005692    0.242775    2.119508
      8          1           0        0.295324   -0.980852    2.127333
 ---------------------------------------------------------------------
 Rotational constants (GHZ):      2.3563995      2.3509042      1.6858582
 Standard basis: 6-31+G(d) (6D, 7F)
 There are   113 symmetry adapted cartesian basis functions of A   symmetry.
 There are   113 symmetry adapted basis functions of A   symmetry.
   113 basis functions,   244 primitive gaussians,   113 cartesian basis functions
    33 alpha electrons       33 beta electrons
       nuclear repulsion energy       360.6222137393 Hartrees.
 NAtoms=    8 NActive=    8 NUniq=    8 SFac= 1.00D+00 NAtFMM=   60 NAOKFM=F Big=F
 Integral buffers will be    131072 words long.
 Raffenetti 2 integral format.
 Two-electron integral symmetry is turned on.
 One-electron integrals computed using PRISM.
 NBasis=   113 RedAO= T EigKep=  4.78D-05  NBF=   113
 NBsUse=   113 1.00D-06 EigRej= -1.00D+00 NBFU=   113
 Initial guess from the checkpoint file:  "/srv/scratch/z5358697/gauss/Gau-1875453.chk"
 B after Tr=     0.000000    0.000000    0.000000
         Rot=    0.989836    0.000534    0.000270    0.142213 Ang=  16.35 deg.
 ExpMin= 4.38D-02 ExpMax= 2.52D+04 ExpMxC= 3.78D+03 IAcc=2 IRadAn=         4 AccDes= 0.00D+00
 Harris functional with IExCor= 1009 and IRadAn=       4 diagonalized for initial guess.
 HarFok:  IExCor= 1009 AccDes= 0.00D+00 IRadAn=         4 IDoV= 1 UseB2=F ITyADJ=14
 ICtDFT=  3500011 ScaDFX=  1.000000  1.000000  1.000000  1.000000
 FoFCou: FMM=F IPFlag=           0 FMFlag=      100000 FMFlg1=           0
         NFxFlg=           0 DoJE=T BraDBF=F KetDBF=T FulRan=T
         wScrn=  0.000000 ICntrl=     500 IOpCl=  0 I1Cent=   200000004 NGrid=           0
         NMat0=    1 NMatS0=      1 NMatT0=    0 NMatD0=    1 NMtDS0=    0 NMtDT0=    0
 Petite list used in FoFCou.
 Keep R1 ints in memory in canonical form, NReq=21740987.
 Requested convergence on RMS density matrix=1.00D-08 within 128 cycles.
 Requested convergence on MAX density matrix=1.00D-06.
 Requested convergence on             energy=1.00D-06.
 No special actions if energy rises.
 SCF Done:  E(RM062X) =  -1458.46912576     A.U. after    9 cycles
            NFock=  9  Conv=0.81D-08     -V/T= 2.0030
 Calling FoFJK, ICntrl=      2127 FMM=F ISym2X=0 I1Cent= 0 IOpClX= 0 NMat=1 NMatS=1 NMatT=0.
 ***** Axes restored to original set *****
 -------------------------------------------------------------------
 Center     Atomic                   Forces (Hartrees/Bohr)
 Number     Number              X              Y              Z
 -------------------------------------------------------------------
      1        6           0.000562153    0.001195863   -0.000114696
      2        6          -0.000509413   -0.001375719    0.000225369
      3       17           0.000599408   -0.000015802   -0.000022865
      4       17           0.000477267    0.000480389   -0.000366542
      5       17          -0.000884952    0.000165208    0.000321464
      6        1          -0.000024753   -0.000161019   -0.000232338
      7        1          -0.000084343   -0.000199568    0.000098849
      8        1          -0.000135367   -0.000089352    0.000090759
 -------------------------------------------------------------------
 Cartesian Forces:  Max     0.001375719 RMS     0.000500028

 GradGradGradGradGradGradGradGradGradGradGradGradGradGradGradGradGradGrad
 Berny optimization.
 Using GEDIIS/GDIIS optimizer.
 FormGI is forming the generalized inverse of G from B-inverse, IUseBI=4.
 Internal  Forces:  Max     0.001327325 RMS     0.000462473
 Search for a local minimum.
 Step number   5 out of a maximum of   38
 All quantities printed in internal units (Hartrees-Bohrs-Radians)
 Mixed Optimization -- En-DIIS/RFO-DIIS
 Swapping is turned off.
 Update second derivatives using D2CorX and points    1    2    3    4    5
 DE= -2.69D-05 DEPred=-6.46D-06 R= 4.17D+00
 TightC=F SS=  1.41D+00  RLast= 6.46D-02 DXNew= 5.0454D-01 1.9373D-01
 Trust test= 4.17D+00 RLast= 6.46D-02 DXMaxT set to 3.00D-01
 ITU=  1  1  0  1  0
     Eigenvalues ---    0.00635   0.05911   0.05975   0.08451   0.09912
     Eigenvalues ---    0.10774   0.16001   0.16225   0.24985   0.26442
     Eigenvalues ---    0.26742   0.27288   0.28667   0.32509   0.33944
     Eigenvalues ---    0.34065   0.34419   0.63096
 En-DIIS/RFO-DIIS IScMMF=        0 using points:     5    4    3    2
 RFO step:  Lambda=-9.71284677D-06.
 DidBck=T Rises=F RFO-DIIS coefs:    0.26759    0.13622    0.54443    0.05175
 Iteration  1 RMS(Cart)=  0.00972610 RMS(Int)=  0.00005291
 Iteration  2 RMS(Cart)=  0.00005455 RMS(Int)=  0.00000117
 Iteration  3 RMS(Cart)=  0.00000000 RMS(Int)=  0.00000117
 Variable       Old X    -DE/DX   Delta X   Delta X   Delta X     New X
                                 (Linear)    (Quad)   (Total)
    R1        2.86993  -0.00075  -0.00405   0.00035  -0.00370   2.86623
    R2        2.06400  -0.00006  -0.00001   0.00007   0.00006   2.06406
    R3        2.06346   0.00015   0.00041   0.00003   0.00045   2.06391
    R4        2.06419  -0.00008  -0.00026   0.00007  -0.00020   2.06399
    R5        3.37576  -0.00038  -0.00053  -0.00027  -0.00080   3.37496
    R6        3.37581  -0.00032  -0.00072  -0.00015  -0.00086   3.37495
    R7        3.37713  -0.00088  -0.00210  -0.00008  -0.00218   3.37495
    A1        1.90568   0.00032   0.00238   0.00000   0.00237   1.90806
    A2        1.90649   0.00016   0.00124   0.00020   0.00143   1.90792
    A3        1.90763   0.00006   0.00054   0.00024   0.00078   1.90841
    A4        1.91458  -0.00019  -0.00132  -0.00009  -0.00141   1.91317
    A5        1.91459  -0.00020  -0.00120  -0.00030  -0.00151   1.91309
    A6        1.91477  -0.00014  -0.00160  -0.00004  -0.00164   1.91314
    A7        1.91686   0.00028   0.00074   0.00029   0.00103   1.91789
    A8        1.91329   0.00133   0.00428  -0.00006   0.00421   1.91751
    A9        1.91728   0.00046   0.00121  -0.00026   0.00095   1.91824
   A10        1.90370  -0.00040  -0.00075   0.00037  -0.00037   1.90333
   A11        1.90727  -0.00071  -0.00384   0.00012  -0.00372   1.90355
   A12        1.90529  -0.00098  -0.00172  -0.00046  -0.00218   1.90312
    D1       -3.12325  -0.00039  -0.01973   0.00019  -0.01954   3.14039
    D2       -1.03190   0.00011  -0.01752   0.00078  -0.01674  -1.04863
    D3        1.06168   0.00001  -0.01621   0.00002  -0.01619   1.04549
    D4       -1.02957  -0.00034  -0.01915   0.00020  -0.01896  -1.04853
    D5        1.06179   0.00017  -0.01694   0.00079  -0.01615   1.04564
    D6       -3.12782   0.00007  -0.01564   0.00003  -0.01561   3.13976
    D7        1.06554  -0.00037  -0.02003   0.00042  -0.01961   1.04592
    D8       -3.12629   0.00013  -0.01782   0.00101  -0.01681   3.14009
    D9       -1.03271   0.00003  -0.01651   0.00025  -0.01626  -1.04898
         Item               Value     Threshold  Converged?
 Maximum Force            0.001327     0.000450     NO 
 RMS     Force            0.000462     0.000300     NO 
 Maximum Displacement     0.023477     0.001800     NO 
 RMS     Displacement     0.009727     0.001200     NO 
 Predicted change in Energy=-1.164062D-05
 GradGradGradGradGradGradGradGradGradGradGradGradGradGradGradGradGradGrad

                          Input orientation:                          
 ---------------------------------------------------------------------
 Center     Atomic      Atomic             Coordinates (Angstroms)
 Number     Number       Type             X           Y           Z
 ---------------------------------------------------------------------
      1          6           0        1.022142    0.268097   -0.272728
      2          6           0        1.283694    1.737497   -0.002597
      3         17           0        0.158092    2.740881   -0.959607
      4         17           0        1.045421    2.087371    1.732458
      5         17           0        2.961477    2.149729   -0.455050
      6          1           0        1.715735   -0.336615    0.315714
      7          1           0       -0.005019    0.026259    0.008864
      8          1           0        1.168658    0.063981   -1.335654
 ---------------------------------------------------------------------
                    Distance matrix (angstroms):
                    1          2          3          4          5
     1  C    0.000000
     2  C    1.516745   0.000000
     3  Cl   2.707960   1.785953   0.000000
     4  Cl   2.707594   1.785945   2.908891   0.000000
     5  Cl   2.708283   1.785946   2.909125   2.908668   0.000000
     6  H    1.092251   2.142411   3.677456   2.886553   2.885802
     7  H    1.092172   2.142253   2.886818   2.884854   3.677559
     8  H    1.092219   2.142645   2.885905   3.677309   2.887906
                    6          7          8
     6  H    0.000000
     7  H    1.785170   0.000000
     8  H    1.785158   1.785125   0.000000
 Stoichiometry    C2H3Cl3
 Framework group  C1[X(C2H3Cl3)]
 Deg. of freedom    18
 Full point group                 C1      NOp   1
 Largest Abelian subgroup         C1      NOp   1
 Largest concise Abelian subgroup C1      NOp   1
                         Standard orientation:                         
 ---------------------------------------------------------------------
 Center     Atomic      Atomic             Coordinates (Angstroms)
 Number     Number       Type             X           Y           Z
 ---------------------------------------------------------------------
      1          6           0       -0.000431    0.000901    1.762916
      2          6           0       -0.000088   -0.000115    0.246171
      3         17           0       -1.619526   -0.444957   -0.361417
      4         17           0        0.424626    1.624606   -0.361697
      5         17           0        1.195169   -1.180142   -0.360871
      6          1           0        0.993787    0.272710    2.124389
      7          1           0       -0.732737    0.726523    2.123528
      8          1           0       -0.262513   -0.995556    2.125309
 ---------------------------------------------------------------------
 Rotational constants (GHZ):      2.3563251      2.3557347      1.6896291
 Standard basis: 6-31+G(d) (6D, 7F)
 There are   113 symmetry adapted cartesian basis functions of A   symmetry.
 There are   113 symmetry adapted basis functions of A   symmetry.
   113 basis functions,   244 primitive gaussians,   113 cartesian basis functions
    33 alpha electrons       33 beta electrons
       nuclear repulsion energy       360.8432199679 Hartrees.
 NAtoms=    8 NActive=    8 NUniq=    8 SFac= 1.00D+00 NAtFMM=   60 NAOKFM=F Big=F
 Integral buffers will be    131072 words long.
 Raffenetti 2 integral format.
 Two-electron integral symmetry is turned on.
 One-electron integrals computed using PRISM.
 NBasis=   113 RedAO= T EigKep=  4.75D-05  NBF=   113
 NBsUse=   113 1.00D-06 EigRej= -1.00D+00 NBFU=   113
 Initial guess from the checkpoint file:  "/srv/scratch/z5358697/gauss/Gau-1875453.chk"
 B after Tr=     0.000000    0.000000    0.000000
         Rot=    0.964745   -0.000852    0.000083    0.263186 Ang= -30.52 deg.
 ExpMin= 4.38D-02 ExpMax= 2.52D+04 ExpMxC= 3.78D+03 IAcc=2 IRadAn=         4 AccDes= 0.00D+00
 Harris functional with IExCor= 1009 and IRadAn=       4 diagonalized for initial guess.
 HarFok:  IExCor= 1009 AccDes= 0.00D+00 IRadAn=         4 IDoV= 1 UseB2=F ITyADJ=14
 ICtDFT=  3500011 ScaDFX=  1.000000  1.000000  1.000000  1.000000
 FoFCou: FMM=F IPFlag=           0 FMFlag=      100000 FMFlg1=           0
         NFxFlg=           0 DoJE=T BraDBF=F KetDBF=T FulRan=T
         wScrn=  0.000000 ICntrl=     500 IOpCl=  0 I1Cent=   200000004 NGrid=           0
         NMat0=    1 NMatS0=      1 NMatT0=    0 NMatD0=    1 NMtDS0=    0 NMtDT0=    0
 Petite list used in FoFCou.
 Keep R1 ints in memory in canonical form, NReq=21740987.
 Requested convergence on RMS density matrix=1.00D-08 within 128 cycles.
 Requested convergence on MAX density matrix=1.00D-06.
 Requested convergence on             energy=1.00D-06.
 No special actions if energy rises.
 SCF Done:  E(RM062X) =  -1458.46914434     A.U. after    9 cycles
            NFock=  9  Conv=0.68D-08     -V/T= 2.0030
 Calling FoFJK, ICntrl=      2127 FMM=F ISym2X=0 I1Cent= 0 IOpClX= 0 NMat=1 NMatS=1 NMatT=0.
 ***** Axes restored to original set *****
 -------------------------------------------------------------------
 Center     Atomic                   Forces (Hartrees/Bohr)
 Number     Number              X              Y              Z
 -------------------------------------------------------------------
      1        6           0.000055099    0.000002738   -0.000012980
      2        6          -0.000015205   -0.000083329   -0.000093264
      3       17           0.000000739    0.000019602    0.000255047
      4       17          -0.000121839    0.000120648   -0.000034582
      5       17           0.000113058   -0.000066751   -0.000096500
      6        1          -0.000033846    0.000008200    0.000014100
      7        1          -0.000000284   -0.000022235   -0.000016479
      8        1           0.000002277    0.000021126   -0.000015341
 -------------------------------------------------------------------
 Cartesian Forces:  Max     0.000255047 RMS     0.000077602

 GradGradGradGradGradGradGradGradGradGradGradGradGradGradGradGradGradGrad
 Berny optimization.
 Using GEDIIS/GDIIS optimizer.
 FormGI is forming the generalized inverse of G from B-inverse, IUseBI=4.
 Internal  Forces:  Max     0.000327723 RMS     0.000107832
 Search for a local minimum.
 Step number   6 out of a maximum of   38
 All quantities printed in internal units (Hartrees-Bohrs-Radians)
 Mixed Optimization -- En-DIIS/RFO-DIIS
 Swapping is turned off.
 Update second derivatives using D2CorX and points    1    2    3    4    5
                                                      6
 DE= -1.86D-05 DEPred=-1.16D-05 R= 1.60D+00
 TightC=F SS=  1.41D+00  RLast= 5.29D-02 DXNew= 5.0454D-01 1.5855D-01
 Trust test= 1.60D+00 RLast= 5.29D-02 DXMaxT set to 3.00D-01
 ITU=  1  1  1  0  1  0
     Eigenvalues ---    0.00506   0.05888   0.05960   0.09748   0.11262
     Eigenvalues ---    0.12823   0.16116   0.16255   0.23476   0.25458
     Eigenvalues ---    0.26778   0.27209   0.28696   0.33860   0.33917
     Eigenvalues ---    0.34095   0.35323   0.46095
 En-DIIS/RFO-DIIS IScMMF=        0 using points:     6    5    4    3    2
 RFO step:  Lambda=-6.65747888D-07.
 DidBck=T Rises=F RFO-DIIS coefs:    0.12369    0.23936    0.07039    0.52212    0.04444
 Iteration  1 RMS(Cart)=  0.00025261 RMS(Int)=  0.00000096
 Iteration  2 RMS(Cart)=  0.00000003 RMS(Int)=  0.00000096
 Variable       Old X    -DE/DX   Delta X   Delta X   Delta X     New X
                                 (Linear)    (Quad)   (Total)
    R1        2.86623  -0.00001  -0.00034   0.00028  -0.00006   2.86617
    R2        2.06406  -0.00001  -0.00007   0.00006   0.00000   2.06405
    R3        2.06391  -0.00001  -0.00002   0.00004   0.00001   2.06392
    R4        2.06399   0.00001  -0.00006   0.00007   0.00001   2.06400
    R5        3.37496  -0.00012   0.00023  -0.00038  -0.00015   3.37481
    R6        3.37495   0.00001   0.00012  -0.00017  -0.00004   3.37491
    R7        3.37495   0.00011   0.00002  -0.00004  -0.00002   3.37493
    A1        1.90806  -0.00002   0.00003   0.00000   0.00004   1.90809
    A2        1.90792   0.00006  -0.00018   0.00031   0.00013   1.90805
    A3        1.90841  -0.00004  -0.00023   0.00022  -0.00001   1.90840
    A4        1.91317  -0.00002   0.00008  -0.00014  -0.00006   1.91311
    A5        1.91309   0.00002   0.00027  -0.00032  -0.00005   1.91303
    A6        1.91314  -0.00001   0.00002  -0.00007  -0.00004   1.91309
    A7        1.91789   0.00020  -0.00027   0.00044   0.00017   1.91805
    A8        1.91751   0.00020   0.00016   0.00011   0.00028   1.91778
    A9        1.91824  -0.00023   0.00024  -0.00036  -0.00012   1.91812
   A10        1.90333  -0.00033  -0.00032  -0.00001  -0.00033   1.90299
   A11        1.90355   0.00007  -0.00018   0.00017   0.00000   1.90355
   A12        1.90312   0.00009   0.00035  -0.00035   0.00001   1.90313
    D1        3.14039   0.00008  -0.00028   0.00056   0.00028   3.14067
    D2       -1.04863  -0.00007  -0.00074   0.00089   0.00014  -1.04849
    D3        1.04549   0.00002  -0.00005   0.00030   0.00025   1.04575
    D4       -1.04853   0.00008  -0.00027   0.00058   0.00031  -1.04822
    D5        1.04564  -0.00007  -0.00074   0.00091   0.00017   1.04581
    D6        3.13976   0.00002  -0.00004   0.00032   0.00028   3.14004
    D7        1.04592   0.00009  -0.00049   0.00082   0.00033   1.04625
    D8        3.14009  -0.00007  -0.00095   0.00115   0.00019   3.14028
    D9       -1.04898   0.00003  -0.00026   0.00056   0.00030  -1.04867
         Item               Value     Threshold  Converged?
 Maximum Force            0.000328     0.000450     YES
 RMS     Force            0.000108     0.000300     YES
 Maximum Displacement     0.000679     0.001800     YES
 RMS     Displacement     0.000253     0.001200     YES
 Predicted change in Energy=-2.775806D-07
 Optimization completed.
    -- Stationary point found.
                           ----------------------------
                           !   Optimized Parameters   !
                           ! (Angstroms and Degrees)  !
 --------------------------                            --------------------------
 ! Name  Definition              Value          Derivative Info.                !
 --------------------------------------------------------------------------------
 ! R1    R(1,2)                  1.5167         -DE/DX =    0.0                 !
 ! R2    R(1,6)                  1.0923         -DE/DX =    0.0                 !
 ! R3    R(1,7)                  1.0922         -DE/DX =    0.0                 !
 ! R4    R(1,8)                  1.0922         -DE/DX =    0.0                 !
 ! R5    R(2,3)                  1.786          -DE/DX =   -0.0001              !
 ! R6    R(2,4)                  1.7859         -DE/DX =    0.0                 !
 ! R7    R(2,5)                  1.7859         -DE/DX =    0.0001              !
 ! A1    A(2,1,6)              109.3237         -DE/DX =    0.0                 !
 ! A2    A(2,1,7)              109.3159         -DE/DX =    0.0001              !
 ! A3    A(2,1,8)              109.344          -DE/DX =    0.0                 !
 ! A4    A(6,1,7)              109.6163         -DE/DX =    0.0                 !
 ! A5    A(6,1,8)              109.6117         -DE/DX =    0.0                 !
 ! A6    A(7,1,8)              109.6146         -DE/DX =    0.0                 !
 ! A7    A(1,2,3)              109.8869         -DE/DX =    0.0002              !
 ! A8    A(1,2,4)              109.8651         -DE/DX =    0.0002              !
 ! A9    A(1,2,5)              109.907          -DE/DX =   -0.0002              !
 ! A10   A(3,2,4)              109.0527         -DE/DX =   -0.0003              !
 ! A11   A(3,2,5)              109.0656         -DE/DX =    0.0001              !
 ! A12   A(4,2,5)              109.0406         -DE/DX =    0.0001              !
 ! D1    D(6,1,2,3)            179.9312         -DE/DX =    0.0001              !
 ! D2    D(6,1,2,4)            -60.0821         -DE/DX =   -0.0001              !
 ! D3    D(6,1,2,5)             59.9023         -DE/DX =    0.0                 !
 ! D4    D(7,1,2,3)            -60.0761         -DE/DX =    0.0001              !
 ! D5    D(7,1,2,4)             59.9106         -DE/DX =   -0.0001              !
 ! D6    D(7,1,2,5)            179.8951         -DE/DX =    0.0                 !
 ! D7    D(8,1,2,3)             59.927          -DE/DX =    0.0001              !
 ! D8    D(8,1,2,4)            179.9137         -DE/DX =   -0.0001              !
 ! D9    D(8,1,2,5)            -60.1019         -DE/DX =    0.0                 !
 --------------------------------------------------------------------------------
 GradGradGradGradGradGradGradGradGradGradGradGradGradGradGradGradGradGrad

                          Input orientation:                          
 ---------------------------------------------------------------------
 Center     Atomic      Atomic             Coordinates (Angstroms)
 Number     Number       Type             X           Y           Z
 ---------------------------------------------------------------------
      1          6           0        1.022142    0.268097   -0.272728
      2          6           0        1.283694    1.737497   -0.002597
      3         17           0        0.158092    2.740881   -0.959607
      4         17           0        1.045421    2.087371    1.732458
      5         17           0        2.961477    2.149729   -0.455050
      6          1           0        1.715735   -0.336615    0.315714
      7          1           0       -0.005019    0.026259    0.008864
      8          1           0        1.168658    0.063981   -1.335654
 ---------------------------------------------------------------------
                    Distance matrix (angstroms):
                    1          2          3          4          5
     1  C    0.000000
     2  C    1.516745   0.000000
     3  Cl   2.707960   1.785953   0.000000
     4  Cl   2.707594   1.785945   2.908891   0.000000
     5  Cl   2.708283   1.785946   2.909125   2.908668   0.000000
     6  H    1.092251   2.142411   3.677456   2.886553   2.885802
     7  H    1.092172   2.142253   2.886818   2.884854   3.677559
     8  H    1.092219   2.142645   2.885905   3.677309   2.887906
                    6          7          8
     6  H    0.000000
     7  H    1.785170   0.000000
     8  H    1.785158   1.785125   0.000000
 Stoichiometry    C2H3Cl3
 Framework group  C1[X(C2H3Cl3)]
 Deg. of freedom    18
 Full point group                 C1      NOp   1
 Largest Abelian subgroup         C1      NOp   1
 Largest concise Abelian subgroup C1      NOp   1
                         Standard orientation:                         
 ---------------------------------------------------------------------
 Center     Atomic      Atomic             Coordinates (Angstroms)
 Number     Number       Type             X           Y           Z
 ---------------------------------------------------------------------
      1          6           0       -0.000431    0.000901    1.762916
      2          6           0       -0.000088   -0.000115    0.246171
      3         17           0       -1.619526   -0.444957   -0.361417
      4         17           0        0.424626    1.624606   -0.361697
      5         17           0        1.195169   -1.180142   -0.360871
      6          1           0        0.993787    0.272710    2.124389
      7          1           0       -0.732737    0.726523    2.123528
      8          1           0       -0.262513   -0.995556    2.125309
 ---------------------------------------------------------------------
 Rotational constants (GHZ):      2.3563251      2.3557347      1.6896291

 **********************************************************************

            Population analysis using the SCF density.

 **********************************************************************

 Orbital symmetries:
       Occupied  (A) (A) (A) (A) (A) (A) (A) (A) (A) (A) (A) (A)
                 (A) (A) (A) (A) (A) (A) (A) (A) (A) (A) (A) (A)
                 (A) (A) (A) (A) (A) (A) (A) (A) (A)
       Virtual   (A) (A) (A) (A) (A) (A) (A) (A) (A) (A) (A) (A)
                 (A) (A) (A) (A) (A) (A) (A) (A) (A) (A) (A) (A)
                 (A) (A) (A) (A) (A) (A) (A) (A) (A) (A) (A) (A)
                 (A) (A) (A) (A) (A) (A) (A) (A) (A) (A) (A) (A)
                 (A) (A) (A) (A) (A) (A) (A) (A) (A) (A) (A) (A)
                 (A) (A) (A) (A) (A) (A) (A) (A) (A) (A) (A) (A)
                 (A) (A) (A) (A) (A) (A) (A) (A)
 The electronic state is 1-A.
 Alpha  occ. eigenvalues -- -102.69067-102.69059-102.69052 -10.74500 -10.58464
 Alpha  occ. eigenvalues --   -9.83807  -9.83801  -9.83794  -7.56239  -7.56233
 Alpha  occ. eigenvalues --   -7.56227  -7.55499  -7.55492  -7.55492  -7.55486
 Alpha  occ. eigenvalues --   -7.55485  -7.55479  -1.05997  -0.94008  -0.94003
 Alpha  occ. eigenvalues --   -0.85818  -0.68727  -0.56962  -0.56960  -0.54357
 Alpha  occ. eigenvalues --   -0.48266  -0.48265  -0.42058  -0.42054  -0.39472
 Alpha  occ. eigenvalues --   -0.38640  -0.38637  -0.37376
 Alpha virt. eigenvalues --   -0.00426   0.02452   0.03103   0.03105   0.04291
 Alpha virt. eigenvalues --    0.04763   0.04764   0.07995   0.09299   0.09304
 Alpha virt. eigenvalues --    0.11724   0.11725   0.11958   0.13363   0.13367
 Alpha virt. eigenvalues --    0.13509   0.13515   0.13874   0.14037   0.17024
 Alpha virt. eigenvalues --    0.18038   0.18050   0.21689   0.26223   0.26227
 Alpha virt. eigenvalues --    0.28783   0.40640   0.56835   0.56876   0.56881
 Alpha virt. eigenvalues --    0.59791   0.60369   0.60374   0.62569   0.62576
 Alpha virt. eigenvalues --    0.62774   0.67669   0.67679   0.68218   0.69576
 Alpha virt. eigenvalues --    0.71322   0.71331   0.71443   0.76643   0.76650
 Alpha virt. eigenvalues --    0.90057   0.90062   0.91323   0.93360   0.93524
 Alpha virt. eigenvalues --    0.93525   0.96296   0.96311   0.96762   1.00231
 Alpha virt. eigenvalues --    1.00236   1.06920   1.15126   1.15139   1.18300
 Alpha virt. eigenvalues --    1.18503   1.18528   1.29388   1.34735   1.61745
 Alpha virt. eigenvalues --    1.63577   1.63591   1.93376   2.01391   2.01398
 Alpha virt. eigenvalues --    2.17535   2.17543   2.33418   2.33432   2.59576
 Alpha virt. eigenvalues --    4.07250   4.33386   4.40677   4.40700   4.45950
[...]
     4  17    -0.09  -0.27  -0.08     0.08   0.02  -0.06     0.00  -0.13   0.11
     5  17    -0.16   0.15  -0.13    -0.12   0.13   0.11     0.06   0.05  -0.01
     6   1    -0.08   0.09   0.44     0.33  -0.29  -0.19     0.29   0.28  -0.34
     7   1    -0.09   0.08   0.27     0.32  -0.28   0.44     0.34   0.39  -0.03
     8   1    -0.09   0.08   0.44     0.35  -0.29  -0.14     0.23   0.34   0.36
                      7                      8                      9
                      A                      A                      A
 Frequencies --    540.0222               744.4796               761.2001
 Red. masses --      8.0496                 4.5507                 4.4050
 Frc consts  --      1.3831                 1.4861                 1.5038
 IR Inten    --     10.8151               122.3793               116.9674
  Atom  AN      X      Y      Z        X      Y      Z        X      Y      Z
     1   6     0.00   0.00   0.45     0.06  -0.06   0.01     0.06   0.06   0.00
     2   6    -0.01   0.01   0.28     0.36  -0.36   0.00     0.35   0.35   0.00
     3  17    -0.17  -0.05  -0.10    -0.06   0.00  -0.02    -0.08  -0.03  -0.03
     4  17     0.04   0.17  -0.10     0.00   0.06  -0.02    -0.03  -0.08   0.03
     5  17     0.12  -0.12  -0.10    -0.07   0.07   0.04    -0.01  -0.01   0.00
     6   1     0.01   0.00   0.44    -0.12   0.15   0.33    -0.09  -0.13   0.56
     7   1     0.00   0.00   0.46    -0.10   0.10  -0.64    -0.15  -0.15   0.00
     8   1     0.01  -0.01   0.44    -0.16   0.12   0.33    -0.13  -0.09  -0.56
                     10                     11                     12
                      A                      A                      A
 Frequencies --   1108.3270              1120.7401              1125.9817
 Red. masses --      5.8255                 1.5764                 1.5832
 Frc consts  --      4.2162                 1.1666                 1.1826
 IR Inten    --     15.7714                61.3183                60.8600
  Atom  AN      X      Y      Z        X      Y      Z        X      Y      Z
     1   6     0.02  -0.02  -0.33    -0.12   0.11  -0.01    -0.11  -0.12   0.00
     2   6    -0.01   0.01   0.57     0.11  -0.11   0.02     0.11   0.12   0.00
     3  17    -0.01   0.00  -0.02    -0.01   0.00   0.00    -0.01   0.00   0.00
     4  17     0.00   0.01  -0.02     0.00   0.00   0.00     0.00  -0.01   0.00
     5  17     0.01  -0.01  -0.01     0.00   0.00   0.00     0.00   0.00   0.00
     6   1     0.00   0.04  -0.38     0.13  -0.27  -0.38     0.04   0.19  -0.61
     7   1    -0.02   0.03  -0.53     0.07  -0.06   0.69     0.24   0.24  -0.01
     8   1    -0.04   0.00  -0.37     0.27  -0.12  -0.36     0.18   0.04   0.63
                     13                     14                     15
                      A                      A                      A
 Frequencies --   1440.0278              1501.9859              1504.8043
 Red. masses --      1.2399                 1.0411                 1.0417
 Frc consts  --      1.5149                 1.3838                 1.3899
 IR Inten    --     11.1405                 4.3319                 4.3623
  Atom  AN      X      Y      Z        X      Y      Z        X      Y      Z
     1   6     0.00   0.00  -0.14     0.03  -0.04   0.00     0.04   0.03   0.00
     2   6     0.00   0.00   0.02     0.01  -0.02   0.00     0.02   0.01   0.00
     3  17     0.00   0.00   0.00     0.00   0.00   0.00     0.00   0.00   0.00
     4  17     0.00   0.00   0.00     0.00   0.00   0.00     0.00   0.00   0.00
     5  17     0.00   0.00   0.00     0.00   0.00   0.00     0.00   0.00   0.00
     6   1    -0.22  -0.06   0.53    -0.09   0.63  -0.17     0.22  -0.27  -0.32
     7   1     0.16  -0.16   0.53     0.14  -0.09   0.37    -0.49  -0.51   0.02
     8   1     0.06   0.22   0.52    -0.60   0.06  -0.20    -0.34   0.23   0.31
                     16                     17                     18
                      A                      A                      A
 Frequencies --   3100.8274              3192.6802              3196.1843
 Red. masses --      1.0334                 1.1054                 1.1049
 Frc consts  --      5.8543                 6.6389                 6.6503
 IR Inten    --      1.8822                 1.6608                 1.4740
  Atom  AN      X      Y      Z        X      Y      Z        X      Y      Z
     1   6     0.00   0.00  -0.05    -0.07  -0.06   0.00    -0.06   0.07   0.00
     2   6     0.00   0.00   0.00     0.00   0.00   0.00     0.00   0.00   0.00
     3  17     0.00   0.00   0.00     0.00   0.00   0.00     0.00   0.00   0.00
     4  17     0.00   0.00   0.00     0.00   0.00   0.00     0.00   0.00   0.00
     5  17     0.00   0.00   0.00     0.00   0.00   0.00     0.00   0.00   0.00
     6   1     0.54   0.15   0.19     0.65   0.17   0.24     0.33   0.10   0.12
     7   1    -0.37   0.37   0.18     0.01  -0.03  -0.01     0.56  -0.55  -0.28
     8   1    -0.14  -0.54   0.19     0.16   0.63  -0.23    -0.11  -0.37   0.13

 -------------------
 - Thermochemistry -
 -------------------
 Temperature   298.150 Kelvin.  Pressure   1.00000 Atm.
 Atom     1 has atomic number  6 and mass  12.00000
 Atom     2 has atomic number  6 and mass  12.00000
 Atom     3 has atomic number 17 and mass  34.96885
 Atom     4 has atomic number 17 and mass  34.96885
 Atom     5 has atomic number 17 and mass  34.96885
 Atom     6 has atomic number  1 and mass   1.00783
 Atom     7 has atomic number  1 and mass   1.00783
 Atom     8 has atomic number  1 and mass   1.00783
 Molecular mass:   131.93003 amu.
 Principal axes and moments of inertia in atomic units:
                           1         2         3
     Eigenvalues --   765.91350 766.105451068.12861
           X            1.00000   0.00022  -0.00004
           Y           -0.00022   1.00000   0.00009
           Z            0.00004  -0.00009   1.00000
 This molecule is an asymmetric top.
 Rotational symmetry number  1.
 Warning -- assumption of classical behavior for rotation
           may cause significant error
 Rotational temperatures (Kelvin)      0.11309     0.11306     0.08109
 Rotational constants (GHZ):           2.35633     2.35573     1.68963
 Zero-point vibrational energy     126831.5 (Joules/Mol)
                                   30.31346 (Kcal/Mol)
 Warning -- explicit consideration of   7 degrees of freedom as
           vibrations may cause significant error
 Vibrational temperatures:    351.73   352.38   459.10   505.54   508.34
          (Kelvin)            509.55   776.97  1071.14  1095.20  1594.63
                             1612.49  1620.03  2071.88  2161.02  2165.08
                             4461.39  4593.55  4598.59
 
 Zero-point correction=                           0.048308 (Hartree/Particle)
 Thermal correction to Energy=                    0.054067
 Thermal correction to Enthalpy=                  0.055011
 Thermal correction to Gibbs Free Energy=         0.017922
 Sum of electronic and zero-point Energies=          -1458.420837
 Sum of electronic and thermal Energies=             -1458.415077
 Sum of electronic and thermal Enthalpies=           -1458.414133
 Sum of electronic and thermal Free Energies=        -1458.451222
 
                     E (Thermal)             CV                S
                      KCal/Mol        Cal/Mol-Kelvin    Cal/Mol-Kelvin
 Total                   33.928             19.509             78.060
 Electronic               0.000              0.000              0.000
 Translational            0.889              2.981             40.544
 Rotational               0.889              2.981             27.929
 Vibrational             32.150             13.547              9.587
 Vibration     1          0.660              1.772              1.770
 Vibration     2          0.660              1.771              1.767
 Vibration     3          0.705              1.637              1.315
 Vibration     4          0.728              1.572              1.160
 Vibration     5          0.730              1.568              1.151
 Vibration     6          0.730              1.567              1.148
 Vibration     7          0.895              1.162              0.565
                       Q            Log10(Q)             Ln(Q)
 Total Bot       0.570576D-08         -8.243687        -18.981790
 Total V=0       0.946685D+14         13.976206         32.181403
 Vib (Bot)       0.338026D-21        -21.471050        -49.438919
 Vib (Bot)    1  0.800439D+00         -0.096672         -0.222595
 Vib (Bot)    2  0.798799D+00         -0.097562         -0.224646
 Vib (Bot)    3  0.589433D+00         -0.229565         -0.528594
 Vib (Bot)    4  0.524626D+00         -0.280150         -0.645070
 Vib (Bot)    5  0.521064D+00         -0.283109         -0.651882
 Vib (Bot)    6  0.519546D+00         -0.284376         -0.654800
 Vib (Bot)    7  0.293380D+00         -0.532570         -1.226287
 Vib (V=0)       0.560845D+01          0.748843          1.724274
 Vib (V=0)    1  0.144377D+01          0.159498          0.367258
 Vib (V=0)    2  0.144238D+01          0.159080          0.366295
 Vib (V=0)    3  0.127294D+01          0.104807          0.241327
 Vib (V=0)    4  0.122473D+01          0.088040          0.202720
 Vib (V=0)    5  0.122216D+01          0.087126          0.200616
 Vib (V=0)    6  0.122106D+01          0.086737          0.199720
 Vib (V=0)    7  0.107972D+01          0.033310          0.076699
 Electronic      0.100000D+01          0.000000          0.000000
 Translational   0.595622D+08          7.774971         17.902532
 Rotational      0.283395D+06          5.452392         12.554597
 ***** Axes restored to original set *****
 -------------------------------------------------------------------
 Center     Atomic                   Forces (Hartrees/Bohr)
 Number     Number              X              Y              Z
 -------------------------------------------------------------------
      1        6           0.000055099    0.000002738   -0.000012981
      2        6          -0.000015197   -0.000083299   -0.000093269
      3       17           0.000000743    0.000019592    0.000255051
      4       17          -0.000121840    0.000120643   -0.000034583
      5       17           0.000113048   -0.000066761   -0.000096498
      6        1          -0.000033846    0.000008198    0.000014101
      7        1          -0.000000285   -0.000022236   -0.000016479
      8        1           0.000002277    0.000021125   -0.000015342
 -------------------------------------------------------------------
 Cartesian Forces:  Max     0.000255051 RMS     0.000077601
 FormGI is forming the generalized inverse of G from B-inverse, IUseBI=4.

 GradGradGradGradGradGradGradGradGradGradGradGradGradGradGradGradGradGrad
 Berny optimization.
 Internal  Forces:  Max     0.000327714 RMS     0.000107831
 Search for a local minimum.
 Step number   1 out of a maximum of    2
 All quantities printed in internal units (Hartrees-Bohrs-Radians)
 Second derivative matrix not updated -- analytic derivatives used.
 ITU=  0
     Eigenvalues ---    0.00502   0.04613   0.04680   0.08051   0.08385
     Eigenvalues ---    0.13312   0.15260   0.15522   0.18548   0.18835
     Eigenvalues ---    0.20835   0.25967   0.26622   0.31415   0.35416
     Eigenvalues ---    0.35460   0.35686   0.35902
 Angle between quadratic step and forces=  65.88 degrees.
 Linear search not attempted -- first point.
 Iteration  1 RMS(Cart)=  0.00187350 RMS(Int)=  0.00000166
 Iteration  2 RMS(Cart)=  0.00000170 RMS(Int)=  0.00000008
 Iteration  3 RMS(Cart)=  0.00000000 RMS(Int)=  0.00000008
 Variable       Old X    -DE/DX   Delta X   Delta X   Delta X     New X
                                 (Linear)    (Quad)   (Total)
    R1        2.86623  -0.00001   0.00000  -0.00011  -0.00011   2.86612
    R2        2.06406  -0.00001   0.00000  -0.00004  -0.00004   2.06402
    R3        2.06391  -0.00001   0.00000  -0.00001  -0.00001   2.06390
    R4        2.06399   0.00001   0.00000   0.00003   0.00003   2.06403
    R5        3.37496  -0.00012   0.00000  -0.00048  -0.00048   3.37448
    R6        3.37495   0.00001   0.00000   0.00014   0.00014   3.37508
    R7        3.37495   0.00011   0.00000   0.00049   0.00049   3.37544
    A1        1.90806  -0.00002   0.00000  -0.00019  -0.00019   1.90787
    A2        1.90792   0.00006   0.00000   0.00056   0.00056   1.90848
    A3        1.90841  -0.00004   0.00000  -0.00035  -0.00035   1.90806
    A4        1.91317  -0.00002   0.00000  -0.00015  -0.00015   1.91301
    A5        1.91309   0.00002   0.00000   0.00011   0.00011   1.91319
    A6        1.91314  -0.00001   0.00000   0.00002   0.00002   1.91316
    A7        1.91789   0.00020   0.00000   0.00078   0.00079   1.91867
    A8        1.91751   0.00020   0.00000   0.00074   0.00074   1.91825
    A9        1.91824  -0.00023   0.00000  -0.00096  -0.00096   1.91727
   A10        1.90333  -0.00033   0.00000  -0.00187  -0.00187   1.90146
   A11        1.90355   0.00007   0.00000   0.00057   0.00057   1.90412
   A12        1.90312   0.00009   0.00000   0.00074   0.00074   1.90385
    D1        3.14039   0.00008   0.00000   0.00336   0.00336  -3.13943
    D2       -1.04863  -0.00007   0.00000   0.00201   0.00201  -1.04663
    D3        1.04549   0.00002   0.00000   0.00277   0.00277   1.04826
    D4       -1.04853   0.00008   0.00000   0.00340   0.00340  -1.04512
    D5        1.04564  -0.00007   0.00000   0.00205   0.00205   1.04768
    D6        3.13976   0.00002   0.00000   0.00281   0.00281  -3.14061
    D7        1.04592   0.00009   0.00000   0.00356   0.00356   1.04948
    D8        3.14009  -0.00007   0.00000   0.00220   0.00220  -3.14090
    D9       -1.04898   0.00003   0.00000   0.00297   0.00297  -1.04601
         Item               Value     Threshold  Converged?
 Maximum Force            0.000328     0.000450     YES
 RMS     Force            0.000108     0.000300     YES
 Maximum Displacement     0.004590     0.001800     NO 
 RMS     Displacement     0.001874     0.001200     NO 
 Predicted change in Energy=-1.046214D-06
 GradGradGradGradGradGradGradGradGradGradGradGradGradGradGradGradGradGrad

 1\1\GINC-KATANA3\Freq\RM062X\6-31+G(d)\C2H3Cl3\Z5358697\14-Mar-2025\0\
 \#N Geom=AllCheck Guess=TCheck SCRF=Check GenChk RM062X/6-31+G(d) Freq
 \\1,1,1-trichloroethane\\0,1\C,1.0221420912,0.2680973613,-0.2727277618
 \C,1.283693812,1.7374972305,-0.0025970426\Cl,0.158091843,2.7408810964,
 -0.9596074125\Cl,1.045421381,2.0873705794,1.7324579948\Cl,2.9614766095
 ,2.1497286923,-0.4550500778\H,1.715735458,-0.3366152724,0.3157143167\H
 ,-0.0050194976,0.0262589489,0.0088640096\H,1.168658303,0.0639813636,-1
 .3356540265\\Version=ES64L-G09RevD.01\State=1-A\HF=-1458.4691443\RMSD=
 1.725e-09\RMSF=7.760e-05\ZeroPoint=0.0483076\Thermal=0.0540672\Dipole=
 -0.1346252,-0.756753,-0.139464\DipoleDeriv=-0.1181989,0.0021306,0.0027
 062,0.0019476,-0.0933161,0.003709,0.0029002,0.0037515,-0.1114307,1.335
 8697,-0.1345892,-0.0317717,-0.1292083,0.6022288,-0.1362132,-0.030191,-
 0.1347128,1.316343,-0.4245405,0.1824748,-0.2124581,0.2149674,-0.302350
 7,0.1830092,-0.2133924,0.1551029,-0.351837,-0.1849172,0.0119329,0.0825
 13,0.0188659,-0.1622052,-0.0943806,0.0926233,-0.0532224,-0.7315425,-0.
 7062146,-0.0689024,0.1593991,-0.1130681,-0.1675808,0.038422,0.1485577,
 0.0238096,-0.2149362,0.0355192,0.0445732,-0.0508656,0.0342478,0.018710
 2,0.0268938,-0.0513968,0.037019,0.0492282,-0.0280884,-0.0349151,0.0320
 416,-0.0234041,0.0523712,-0.0024846,0.0348587,0.0013789,0.0831932,0.09
 05706,-0.0027049,0.0184355,-0.0043483,0.0521426,-0.0189556,0.0160403,-
 0.0331268,-0.0390179\Polar=63.0979254,-1.7937217,53.1432199,-0.3545281
 ,-1.8805488,62.9917376\PG=C01 [X(C2H3Cl3)]\NImag=0\\0.61116390,-0.0207
 7618,0.49092280,-0.00362030,-0.02320625,0.61127158,-0.07132381,-0.0240
 5353,-0.00445640,0.28593709,-0.02388134,-0.20173291,-0.02478229,0.0178
 5475,0.39155839,-0.00441048,-0.02474485,-0.07167737,0.00692591,0.01813
 611,0.29547144,-0.00345883,0.00647573,-0.00575468,-0.06644515,0.040469
 63,-0.02971636,0.10596551,0.02518608,-0.02375226,0.02127839,0.02913927
 ,-0.07118869,0.02499029,-0.06287364,0.09264013,-0.00516440,0.00484304,
 -0.00114621,-0.03102036,0.03578496,-0.05938433,0.05869932,-0.05417526,
 0.08902573,0.00341536,-0.00062530,-0.00148982,-0.03358946,0.00356448,0
 .01036421,0.00177675,0.00142642,-0.01597609,0.04114611,0.00364722,-0.0
 0644636,-0.03174407,0.00101167,-0.04130909,-0.01598389,0.00221970,0.00
 304190,0.01301533,-0.00514255,0.04310956,0.00347448,-0.00770153,-0.025
 35963,0.00831563,-0.03138791,-0.12321577,-0.01239077,0.00796604,-0.035
 38655,-0.02121839,0.03420872,0.20474412,-0.02349683,-0.00858567,0.0067
 6226,-0.10929959,-0.03198219,0.01793193,-0.04007087,0.00699096,-0.0065
 8902,-0.01479937,-0.00112581,0.02224851,0.18674638,-0.03148396,-0.0078
 1194,0.00770098,-0.01821897,-0.04036997,0.00366360,0.01311371,0.003707
 41,0.00016210,0.00131100,0.00461381,-0.00005946,0.03759473,0.04290344,
 0.00118979,0.00013924,0.00295696,0.02123311,0.00819885,-0.03593593,-0.
 01092651,-0.00000569,0.00476085,0.02868970,0.00292248,-0.02158273,-0.0
 4006157,-0.01094113,0.04764240,-0.16360051,0.09938189,-0.09794870,0.00
 207870,-0.00442080,0.00308768,0.00171398,-0.00133199,0.00029327,0.0000
 0526,-0.00021877,0.00056168,0.00035635,-0.00091577,0.00062371,0.172073
 89,0.09466829,-0.13138839,0.08052501,0.02032747,-0.01946942,0.01721716
 ,0.00101937,-0.00581412,0.00069944,-0.00048588,0.00089982,0.00045392,0
 .00029832,0.00109034,-0.00051080,-0.10526470,0.14499380,-0.09801360,0.
 08452075,-0.13202940,0.00378371,-0.00427129,0.00159835,0.00037213,-0.0
 0135874,0.00162027,0.00067643,-0.00087339,0.00016405,0.00054964,-0.000
 10540,-0.00017779,0.10653616,-0.08924499,0.13770876,-0.29886053,-0.058
 80214,0.06846048,-0.00647907,-0.00013044,0.00156337,0.00105567,0.00095
 472,-0.00037449,0.00078675,0.00065597,-0.00020651,0.00091582,-0.001148
 26,-0.00014250,-0.01580033,-0.00495322,0.00595709,0.32001587,-0.053224
 45,-0.06217910,0.01445928,-0.03029786,-0.00926849,0.00818262,-0.000040
 78,0.00076512,-0.00020845,0.00046353,0.00073038,0.00070006,-0.00399702
 ,-0.00474234,-0.00015285,0.01696574,0.00525306,-0.00640980,0.06316930,
 0.06827498,0.06982662,0.01630985,-0.06838071,-0.00574461,-0.00181070,-
 0.00018900,-0.00001998,0.00047575,-0.00054192,-0.00087005,-0.00038178,
 -0.00026728,-0.00084286,-0.00110014,0.00132665,-0.01657477,-0.00556181
 ,0.00471336,-0.07490440,-0.01589918,0.06870760,-0.05383875,0.00698520,
 0.03804716,-0.00087872,-0.00147407,-0.00574626,-0.00053706,0.00050817,
 0.00013176,0.00125858,-0.00104743,-0.00078463,-0.00035190,-0.00025248,
 -0.00060575,0.00317267,-0.00560964,-0.01986157,-0.00163419,0.00696153,
 0.02913006,0.05280936,0.00586434,-0.05761184,-0.04423104,0.00423721,-0
 .00821983,-0.03146103,-0.00038372,0.00060051,-0.00012116,-0.00051170,-
 0.00464002,-0.00417985,0.00080668,0.00060925,0.00034990,-0.00419559,0.
 00443492,0.01774287,0.00025408,0.00116638,0.00796800,-0.00607129,0.063
 66063,0.03671789,-0.05016025,-0.31563521,0.00096302,0.00013228,-0.0066
 6738,-0.00026315,0.00082922,0.00105217,-0.00017600,-0.00116341,0.00090
 378,0.00000109,0.00067945,0.00100959,0.00342097,-0.00357795,-0.0135976
 1,-0.00035303,-0.00067168,-0.00536870,-0.04031078,0.05393233,0.3383033
 4\\-0.00005510,-0.00000274,0.00001298,0.00001520,0.00008330,0.00009327
 ,-0.00000074,-0.00001959,-0.00025505,0.00012184,-0.00012064,0.00003458
 ,-0.00011305,0.00006676,0.00009650,0.00003385,-0.00000820,-0.00001410,
 0.00000029,0.00002224,0.00001648,-0.00000228,-0.00002112,0.00001534\\\
 @


 ARTHROPOD AXIOM: A COMPUTER SYSTEM IS LIKE A SPIDER'S WEB.
 YOU CANNOT PULL ON ONE END WITHOUT MAKING THE OTHER END MOVE.
     -- GREG WETTSTEIN
 Job cpu time:       0 days  0 hours  1 minutes  1.9 seconds.
 File lengths (MBytes):  RWF=    132 Int=      0 D2E=      0 Chk=      3 Scr=      2
 Normal termination of Gaussian 09 at Fri Mar 14 15:46:40 2025.
