 Entering Gaussian System, Link 0=g09
 Initial command:
 /apps/z_install_tree/linux-rocky8-ivybridge/gcc-12.2.0/gaussian-09-D.01-wczn3gur5lpur3omlkzwa2l5ecyxp5ef/g09/l1.exe "/srv/scratch/z5358697/gauss/Gau-4098044.inp" -scrdir="/srv/scratch/z5358697/gauss/"
 Entering Link 1 = /apps/z_install_tree/linux-rocky8-ivybridge/gcc-12.2.0/gaussian-09-D.01-wczn3gur5lpur3omlkzwa2l5ecyxp5ef/g09/l1.exe PID=   4098047.
  
 Copyright (c) 1988,1990,1992,1993,1995,1998,2003,2009,2013,
            Gaussian, Inc.  All Rights Reserved.
  
 This is part of the Gaussian(R) 09 program.  It is based on
 the Gaussian(R) 03 system (copyright 2003, Gaussian, Inc.),
 the Gaussian(R) 98 system (copyright 1998, Gaussian, Inc.),
 the Gaussian(R) 94 system (copyright 1995, Gaussian, Inc.),
 the Gaussian 92(TM) system (copyright 1992, Gaussian, Inc.),
 the Gaussian 90(TM) system (copyright 1990, Gaussian, Inc.),
 the Gaussian 88(TM) system (copyright 1988, Gaussian, Inc.),
 the Gaussian 86(TM) system (copyright 1986, Carnegie Mellon
 University), and the Gaussian 82(TM) system (copyright 1983,
 Carnegie Mellon University). Gaussian is a federally registered
 trademark of Gaussian, Inc.
  
 This software contains proprietary and confidential information,
 including trade secrets, belonging to Gaussian, Inc.
  
 This software is provided under written license and may be
 used, copied, transmitted, or stored only in accord with that
 written license.
  
 The following legend is applicable only to US Government
 contracts under FAR:
  
                    RESTRICTED RIGHTS LEGEND
  
 Use, reproduction and disclosure by the US Government is
 subject to restrictions as set forth in subparagraphs (a)
 and (c) of the Commercial Computer Software - Restricted
 Rights clause in FAR 52.227-19.
  
 Gaussian, Inc.
 340 Quinnipiac St., Bldg. 40, Wallingford CT 06492
  
  
 ---------------------------------------------------------------
 Warning -- This program may not be used in any manner that
 competes with the business of Gaussian, Inc. or will provide
 assistance to any competitor of Gaussian, Inc.  The licensee
 of this program is prohibited from giving any competitor of
 Gaussian, Inc. access to this program.  By using this program,
 the user acknowledges that Gaussian, Inc. is engaged in the
 business of creating and licensing software in the field of
 computational chemistry and represents and warrants to the
 licensee that it is not a competitor of Gaussian, Inc. and that
 it will not use this program in any manner prohibited above.
 ---------------------------------------------------------------
  

 Cite this work as:
 Gaussian 09, Revision D.01,
 M. J. Frisch, G. W. Trucks, H. B. Schlegel, G. E. Scuseria, 
 M. A. Robb, J. R. Cheeseman, G. Scalmani, V. Barone, B. Mennucci, 
 G. A. Petersson, H. Nakatsuji, M. Caricato, X. Li, H. P. Hratchian, 
 A. F. Izmaylov, J. Bloino, G. Zheng, J. L. Sonnenberg, M. Hada, 
 M. Ehara, K. Toyota, R. Fukuda, J. Hasegawa, M. Ishida, T. Nakajima, 
 Y. Honda, O. Kitao, H. Nakai, T. Vreven, J. A. Montgomery, Jr., 
 J. E. Peralta, F. Ogliaro, M. Bearpark, J. J. Heyd, E. Brothers, 
 K. N. Kudin, V. N. Staroverov, T. Keith, R. Kobayashi, J. Normand, 
 K. Raghavachari, A. Rendell, J. C. Burant, S. S. Iyengar, J. Tomasi, 
 M. Cossi, N. Rega, J. M. Millam, M. Klene, J. E. Knox, J. B. Cross, 
 V. Bakken, C. Adamo, J. Jaramillo, R. Gomperts, R. E. Stratmann, 
 O. Yazyev, A. J. Austin, R. Cammi, C. Pomelli, J. W. Ochterski, 
 R. L. Martin, K. Morokuma, V. G. Zakrzewski, G. A. Voth, 
 P. Salvador, J. J. Dannenberg, S. Dapprich, A. D. Daniels, 
 O. Farkas, J. B. Foresman, J. V. Ortiz, J. Cioslowski, 
 and D. J. Fox, Gaussian, Inc., Wallingford CT, 2013.
 
 ******************************************
 Gaussian 09:  ES64L-G09RevD.01 24-Apr-2013
                21-Mar-2025 
 ******************************************
 ---------------------------------
 #m062X/6-31+G(d) OPT Freq=noraman
 ---------------------------------
 1/14=-1,18=20,19=15,26=3,38=1/1,3;
 2/9=110,12=2,17=6,18=5,40=1/2;
 3/5=1,6=6,7=11,11=2,16=1,25=1,30=1,71=1,74=-55/1,2,3;
 4//1;
 5/5=2,38=5/2;
 6/7=2,8=2,9=2,10=2,28=1/1;
 7//1,2,3,16;
 1/14=-1,18=20,19=15,26=3/3(2);
 2/9=110/2;
 99//99;
 2/9=110/2;
 3/5=1,6=6,7=11,11=2,16=1,25=1,30=1,71=1,74=-55/1,2,3;
 4/5=5,16=3,69=1/1;
 5/5=2,38=5/2;
 7//1,2,3,16;
 1/14=-1,18=20,19=15,26=3/3(-5);
 2/9=110/2;
 6/7=2,8=2,9=2,10=2,19=2,28=1/1;
 99/9=1/99;
 ----------------
 2-methylpyridine
 ----------------
 Symbolic Z-matrix:
 Charge =  0 Multiplicity = 1
 C                     0.981    -2.1301    4.7574 
 C                     0.7299   -1.5161    3.4206 
 C                     1.652    -0.6227    2.8997 
 C                     1.3879   -0.0684    1.6522 
 C                     0.2265   -0.4197    0.9733 
 C                    -0.6317   -1.3224    1.5803 
 N                    -0.4092   -1.8816    2.7908 
 H                     1.543    -3.0619    4.6418 
 H                     1.5511   -1.4501    5.3991 
 H                     0.0385   -2.3464    5.2715 
 H                     2.5545   -0.3569    3.4396 
 H                     2.0859    0.6359    1.2097 
 H                     0.0002   -0.0003   -0.0003 
 H                    -1.5509   -1.6291    1.0922 
 

 GradGradGradGradGradGradGradGradGradGradGradGradGradGradGradGradGradGrad
 Berny optimization.
 Initialization pass.
                           ----------------------------
                           !    Initial Parameters    !
                           ! (Angstroms and Degrees)  !
 --------------------------                            --------------------------
 ! Name  Definition              Value          Derivative Info.                !
 --------------------------------------------------------------------------------
 ! R1    R(1,2)                  1.4923         estimate D2E/DX2                !
 ! R2    R(1,8)                  1.0943         estimate D2E/DX2                !
 ! R3    R(1,9)                  1.0951         estimate D2E/DX2                !
 ! R4    R(1,10)                 1.0952         estimate D2E/DX2                !
 ! R5    R(2,3)                  1.3856         estimate D2E/DX2                !
 ! R6    R(2,7)                  1.352          estimate D2E/DX2                !
 ! R7    R(3,4)                  1.3904         estimate D2E/DX2                !
 ! R8    R(3,11)                 1.0847         estimate D2E/DX2                !
 ! R9    R(4,5)                  1.3904         estimate D2E/DX2                !
 ! R10   R(4,12)                 1.0858         estimate D2E/DX2                !
 ! R11   R(5,6)                  1.3856         estimate D2E/DX2                !
 ! R12   R(5,13)                 1.084          estimate D2E/DX2                !
 ! R13   R(6,7)                  1.3519         estimate D2E/DX2                !
 ! R14   R(6,14)                 1.085          estimate D2E/DX2                !
 ! A1    A(2,1,8)              110.0065         estimate D2E/DX2                !
 ! A2    A(2,1,9)              110.9175         estimate D2E/DX2                !
 ! A3    A(2,1,10)             110.9134         estimate D2E/DX2                !
 ! A4    A(8,1,9)              108.8621         estimate D2E/DX2                !
 ! A5    A(8,1,10)             108.8685         estimate D2E/DX2                !
 ! A6    A(9,1,10)             107.1933         estimate D2E/DX2                !
 ! A7    A(1,2,3)              119.3458         estimate D2E/DX2                !
 ! A8    A(1,2,7)              116.6044         estimate D2E/DX2                !
 ! A9    A(3,2,7)              124.0499         estimate D2E/DX2                !
 ! A10   A(2,3,4)              117.9014         estimate D2E/DX2                !
 ! A11   A(2,3,11)             121.6401         estimate D2E/DX2                !
 ! A12   A(4,3,11)             120.4585         estimate D2E/DX2                !
 ! A13   A(3,4,5)              119.7376         estimate D2E/DX2                !
 ! A14   A(3,4,12)             120.1397         estimate D2E/DX2                !
 ! A15   A(5,4,12)             120.1227         estimate D2E/DX2                !
 ! A16   A(4,5,6)              117.9094         estimate D2E/DX2                !
 ! A17   A(4,5,13)             121.0102         estimate D2E/DX2                !
 ! A18   A(6,5,13)             121.0803         estimate D2E/DX2                !
 ! A19   A(5,6,7)              124.0438         estimate D2E/DX2                !
 ! A20   A(5,6,14)             120.7847         estimate D2E/DX2                !
 ! A21   A(7,6,14)             115.1715         estimate D2E/DX2                !
 ! A22   A(2,7,6)              116.3579         estimate D2E/DX2                !
 ! D1    D(8,1,2,3)            -89.9915         estimate D2E/DX2                !
 ! D2    D(8,1,2,7)             90.0059         estimate D2E/DX2                !
 ! D3    D(9,1,2,3)             30.5054         estimate D2E/DX2                !
 ! D4    D(9,1,2,7)           -149.4972         estimate D2E/DX2                !
 ! D5    D(10,1,2,3)           149.5063         estimate D2E/DX2                !
 ! D6    D(10,1,2,7)           -30.4963         estimate D2E/DX2                !
 ! D7    D(1,2,3,4)           -179.9855         estimate D2E/DX2                !
 ! D8    D(1,2,3,11)             0.0001         estimate D2E/DX2                !
 ! D9    D(7,2,3,4)              0.0174         estimate D2E/DX2                !
 ! D10   D(7,2,3,11)          -179.997          estimate D2E/DX2                !
 ! D11   D(1,2,7,6)            179.997          estimate D2E/DX2                !
 ! D12   D(3,2,7,6)             -0.0057         estimate D2E/DX2                !
 ! D13   D(2,3,4,5)             -0.0155         estimate D2E/DX2                !
 ! D14   D(2,3,4,12)           179.9969         estimate D2E/DX2                !
 ! D15   D(11,3,4,5)           179.9987         estimate D2E/DX2                !
 ! D16   D(11,3,4,12)            0.0111         estimate D2E/DX2                !
 ! D17   D(3,4,5,6)              0.0032         estimate D2E/DX2                !
 ! D18   D(3,4,5,13)          -179.9885         estimate D2E/DX2                !
 ! D19   D(12,4,5,6)           179.9909         estimate D2E/DX2                !
 ! D20   D(12,4,5,13)           -0.0008         estimate D2E/DX2                !
 ! D21   D(4,5,6,7)              0.0091         estimate D2E/DX2                !
 ! D22   D(4,5,6,14)          -179.995          estimate D2E/DX2                !
 ! D23   D(13,5,6,7)          -179.9992         estimate D2E/DX2                !
 ! D24   D(13,5,6,14)           -0.0033         estimate D2E/DX2                !
 ! D25   D(5,6,7,2)             -0.008          estimate D2E/DX2                !
 ! D26   D(14,6,7,2)           179.9959         estimate D2E/DX2                !
 --------------------------------------------------------------------------------
 Trust Radius=3.00D-01 FncErr=1.00D-07 GrdErr=1.00D-06
 Number of steps in this run=     72 maximum allowed number of steps=    100.
 GradGradGradGradGradGradGradGradGradGradGradGradGradGradGradGradGradGrad

                          Input orientation:                          
 ---------------------------------------------------------------------
 Center     Atomic      Atomic             Coordinates (Angstroms)
 Number     Number       Type             X           Y           Z
 ---------------------------------------------------------------------
      1          6           0        0.981000   -2.130100    4.757400
      2          6           0        0.729900   -1.516100    3.420600
      3          6           0        1.652000   -0.622700    2.899700
      4          6           0        1.387900   -0.068400    1.652200
      5          6           0        0.226500   -0.419700    0.973300
      6          6           0       -0.631700   -1.322400    1.580300
      7          7           0       -0.409200   -1.881600    2.790800
      8          1           0        1.543000   -3.061900    4.641800
      9          1           0        1.551100   -1.450100    5.399100
     10          1           0        0.038500   -2.346400    5.271500
     11          1           0        2.554500   -0.356900    3.439600
     12          1           0        2.085900    0.635900    1.209700
     13          1           0        0.000200   -0.000300   -0.000300
     14          1           0       -1.550900   -1.629100    1.092200
 ---------------------------------------------------------------------
                    Distance matrix (angstroms):
                    1          2          3          4          5
     1  C    0.000000
     2  C    1.492341   0.000000
     3  C    2.484662   1.385557   0.000000
     4  C    3.749459   2.378243   1.390415   0.000000
     5  C    4.220681   2.728513   2.405052   1.390384   0.000000
     6  C    3.653374   2.297429   2.728678   2.378333   1.385577
     7  N    2.421141   1.351957   2.417692   2.795295   2.417555
     8  H    1.094285   2.131187   2.999415   4.233534   4.708746
     9  H    1.095077   2.143172   2.634724   3.996872   4.733286
    10  H    1.095167   2.143190   3.346634   4.484361   4.714026
    11  H    2.712331   2.161775   1.084734   2.153831   3.392074
    12  H    4.632249   3.370151   2.151382   1.085840   2.151173
    13  H    5.304123   3.812174   3.394971   2.158959   1.083976
    14  H    4.482768   3.261329   3.812934   3.374304   2.153122
                    6          7          8          9         10
     6  C    0.000000
     7  N    1.351858   0.000000
     8  H    4.138594   2.937753   0.000000
     9  H    4.400472   3.291230   1.780862   0.000000
    10  H    3.888792   2.563269   1.781006   1.762837   0.000000
    11  H    3.813274   3.395463   3.128169   2.457954   3.693809
    12  H    3.370109   3.881135   5.074227   4.710465   5.439134
    13  H    2.155352   3.390743   5.770851   5.801787   5.770401
    14  H    1.085005   2.062154   4.921869   5.310728   4.528494
                   11         12         13         14
    11  H    0.000000
    12  H    2.485496   0.000000
    13  H    4.299363   2.493791   0.000000
    14  H    4.897253   4.286064   2.500491   0.000000
 Stoichiometry    C6H7N
 Framework group  C1[X(C6H7N)]
 Deg. of freedom    36
 Full point group                 C1      NOp   1
 Largest Abelian subgroup         C1      NOp   1
 Largest concise Abelian subgroup C1      NOp   1
                         Standard orientation:                         
 ---------------------------------------------------------------------
 Center     Atomic      Atomic             Coordinates (Angstroms)
 Number     Number       Type             X           Y           Z
 ---------------------------------------------------------------------
      1          6           0       -2.357652   -0.030712    0.001082
      2          6           0       -0.865398   -0.014589    0.000573
      3          6           0       -0.199455    1.200437    0.000416
      4          6           0        1.190816    1.180410   -0.000371
      5          6           0        1.863025   -0.036677   -0.000642
      6          6           0        1.104774   -1.196367   -0.000175
      7          7           0       -0.246930   -1.216788    0.000348
      8          1           0       -2.731665   -0.034663    1.029458
      9          1           0       -2.758296    0.846359   -0.517979
     10          1           0       -2.739208   -0.916375   -0.517963
     11          1           0       -0.735796    2.143298    0.000656
     12          1           0        1.749497    2.111498   -0.000570
     13          1           0        2.946275   -0.076359   -0.001066
     14          1           0        1.581039   -2.171255   -0.000277
 ---------------------------------------------------------------------
 Rotational constants (GHZ):      5.6813582      2.6664654      1.8359555
 Standard basis: 6-31+G(d) (6D, 7F)
 There are   147 symmetry adapted cartesian basis functions of A   symmetry.
 There are   147 symmetry adapted basis functions of A   symmetry.
   147 basis functions,   252 primitive gaussians,   147 cartesian basis functions
    25 alpha electrons       25 beta electrons
       nuclear repulsion energy       273.1201645038 Hartrees.
 NAtoms=   14 NActive=   14 NUniq=   14 SFac= 1.00D+00 NAtFMM=   60 NAOKFM=F Big=F
 Integral buffers will be    131072 words long.
 Raffenetti 2 integral format.
 Two-electron integral symmetry is turned on.
 One-electron integrals computed using PRISM.
 NBasis=   147 RedAO= T EigKep=  1.21D-05  NBF=   147
 NBsUse=   147 1.00D-06 EigRej= -1.00D+00 NBFU=   147
 ExpMin= 4.38D-02 ExpMax= 4.17D+03 ExpMxC= 6.27D+02 IAcc=2 IRadAn=         4 AccDes= 0.00D+00
 Harris functional with IExCor= 1009 and IRadAn=       4 diagonalized for initial guess.
 HarFok:  IExCor= 1009 AccDes= 0.00D+00 IRadAn=         4 IDoV= 1 UseB2=F ITyADJ=14
 ICtDFT=  3500011 ScaDFX=  1.000000  1.000000  1.000000  1.000000
 FoFCou: FMM=F IPFlag=           0 FMFlag=      100000 FMFlg1=           0
         NFxFlg=           0 DoJE=T BraDBF=F KetDBF=T FulRan=T
         wScrn=  0.000000 ICntrl=     500 IOpCl=  0 I1Cent=   200000004 NGrid=           0
         NMat0=    1 NMatS0=      1 NMatT0=    0 NMatD0=    1 NMtDS0=    0 NMtDT0=    0
 Petite list used in FoFCou.
 Requested convergence on RMS density matrix=1.00D-08 within 128 cycles.
 Requested convergence on MAX density matrix=1.00D-06.
 Requested convergence on             energy=1.00D-06.
 No special actions if energy rises.
 SCF Done:  E(RM062X) =  -287.478731558     A.U. after   13 cycles
            NFock= 13  Conv=0.98D-08     -V/T= 2.0087

 **********************************************************************

            Population analysis using the SCF density.

 **********************************************************************

 Orbital symmetries:
       Occupied  (A) (A) (A) (A) (A) (A) (A) (A) (A) (A) (A) (A)
                 (A) (A) (A) (A) (A) (A) (A) (A) (A) (A) (A) (A)
                 (A)
       Virtual   (A) (A) (A) (A) (A) (A) (A) (A) (A) (A) (A) (A)
                 (A) (A) (A) (A) (A) (A) (A) (A) (A) (A) (A) (A)
                 (A) (A) (A) (A) (A) (A) (A) (A) (A) (A) (A) (A)
                 (A) (A) (A) (A) (A) (A) (A) (A) (A) (A) (A) (A)
                 (A) (A) (A) (A) (A) (A) (A) (A) (A) (A) (A) (A)
                 (A) (A) (A) (A) (A) (A) (A) (A) (A) (A) (A) (A)
                 (A) (A) (A) (A) (A) (A) (A) (A) (A) (A) (A) (A)
                 (A) (A) (A) (A) (A) (A) (A) (A) (A) (A) (A) (A)
                 (A) (A) (A) (A) (A) (A) (A) (A) (A) (A) (A) (A)
                 (A) (A) (A) (A) (A) (A) (A) (A) (A) (A) (A) (A)
                 (A) (A)
 The electronic state is 1-A.
 Alpha  occ. eigenvalues --  -14.76426 -10.59463 -10.58833 -10.57413 -10.56138
 Alpha  occ. eigenvalues --  -10.56090 -10.54061  -1.05177  -0.90699  -0.88653
 Alpha  occ. eigenvalues --   -0.79496  -0.71901  -0.68668  -0.59406  -0.55871
 Alpha  occ. eigenvalues --   -0.53706  -0.50501  -0.49053  -0.47259  -0.44719
 Alpha  occ. eigenvalues --   -0.44062  -0.41846  -0.34333  -0.32783  -0.31092
 Alpha virt. eigenvalues --    0.00050   0.01487   0.01564   0.02951   0.03582
 Alpha virt. eigenvalues --    0.05076   0.05805   0.06100   0.06807   0.08527
 Alpha virt. eigenvalues --    0.08888   0.09327   0.09460   0.11590   0.12287
 Alpha virt. eigenvalues --    0.13836   0.13865   0.14715   0.15748   0.16310
 Alpha virt. eigenvalues --    0.18575   0.18988   0.19621   0.20459   0.21251
 Alpha virt. eigenvalues --    0.22368   0.23087   0.23792   0.25389   0.26432
 Alpha virt. eigenvalues --    0.27759   0.28307   0.28714   0.29211   0.31483
 Alpha virt. eigenvalues --    0.32543   0.33425   0.35239   0.36913   0.38923
 Alpha virt. eigenvalues --    0.40560   0.42230   0.43030   0.59819   0.60821
 Alpha virt. eigenvalues --    0.67091   0.71168   0.71561   0.72825   0.75412
 Alpha virt. eigenvalues --    0.76363   0.77537   0.78166   0.79518   0.80282
 Alpha virt. eigenvalues --    0.81680   0.82703   0.83641   0.96552   0.97140
 Alpha virt. eigenvalues --    0.98578   0.99957   1.01855   1.04637   1.06044
 Alpha virt. eigenvalues --    1.08594   1.09008   1.10834   1.13666   1.16130
 Alpha virt. eigenvalues --    1.17315   1.19214   1.20380   1.22602   1.27845
 Alpha virt. eigenvalues --    1.30133   1.31618   1.42419   1.43203   1.50185
 Alpha virt. eigenvalues --    1.51057   1.52546   1.54059   1.54567   1.57024
 Alpha virt. eigenvalues --    1.81750   1.85454   1.89341   1.92477   1.96922
 Alpha virt. eigenvalues --    1.98320   2.00016   2.01791   2.14572   2.18907
 Alpha virt. eigenvalues --    2.21033   2.21853   2.24599   2.25076   2.32065
 Alpha virt. eigenvalues --    2.35081   2.36762   2.42039   2.42807   2.49325
 Alpha virt. eigenvalues --    2.62331   2.64567   2.71292   2.71839   2.77128
 Alpha virt. eigenvalues --    2.84345   2.88453   2.93154   3.10920   3.41798
 Alpha virt. eigenvalues --    4.21531   4.28530   4.30515   4.31267   4.42031
 Alpha virt. eigenvalues --    4.50155   4.68163
          Condensed to atoms (all electrons):
               1          2          3          4          5          6
     1  C    6.189493   0.186876  -0.573629   0.067333  -0.161440   0.149854
     2  C    0.186876   6.960146  -1.487660   0.682059  -0.777516   0.534781
     3  C   -0.573629  -1.487660   7.740007  -0.443184   0.754510  -0.818469
     4  C    0.067333   0.682059  -0.443184   5.548584  -0.002462   0.389635
     5  C   -0.161440  -0.777516   0.754510  -0.002462   5.891208  -0.161894
     6  C    0.149854   0.534781  -0.818469   0.389635  -0.161894   5.667175
     7  N   -0.205289   0.088975   0.372305  -0.178918   0.186141   0.111877
     8  H    0.366624   0.007769  -0.028205  -0.004509   0.000160   0.001028
     9  H    0.453049  -0.165954   0.045047   0.001174   0.001921  -0.001423
    10  H    0.429573  -0.073534   0.003095  -0.002050   0.001393  -0.002981
    11  H   -0.003603   0.049614   0.215022   0.045069   0.000127  -0.004361
    12  H    0.003170  -0.011453   0.027840   0.240753   0.058016  -0.015914
    13  H    0.001598   0.004093   0.000625   0.009444   0.284304   0.007138
    14  H    0.009346   0.055550  -0.050106   0.041240  -0.108497   0.415719
               7          8          9         10         11         12
     1  C   -0.205289   0.366624   0.453049   0.429573  -0.003603   0.003170
     2  C    0.088975   0.007769  -0.165954  -0.073534   0.049614  -0.011453
     3  C    0.372305  -0.028205   0.045047   0.003095   0.215022   0.027840
     4  C   -0.178918  -0.004509   0.001174  -0.002050   0.045069   0.240753
     5  C    0.186141   0.000160   0.001921   0.001393   0.000127   0.058016
     6  C    0.111877   0.001028  -0.001423  -0.002981  -0.004361  -0.015914
     7  N    6.869443  -0.001551   0.009333  -0.003828   0.002341   0.001181
     8  H   -0.001551   0.466733  -0.026180  -0.021085   0.000234   0.000002
     9  H    0.009333  -0.026180   0.499715  -0.026330   0.000791  -0.000003
    10  H   -0.003828  -0.021085  -0.026330   0.457564   0.000124   0.000002
    11  H    0.002341   0.000234   0.000791   0.000124   0.485107  -0.003719
    12  H    0.001181   0.000002  -0.000003   0.000002  -0.003719   0.492357
    13  H    0.003186   0.000000   0.000000   0.000000  -0.000112  -0.003950
    14  H   -0.083129   0.000003   0.000001  -0.000008   0.000019  -0.000124
              13         14
     1  C    0.001598   0.009346
     2  C    0.004093   0.055550
     3  C    0.000625  -0.050106
     4  C    0.009444   0.041240
     5  C    0.284304  -0.108497
     6  C    0.007138   0.415719
     7  N    0.003186  -0.083129
     8  H    0.000000   0.000003
     9  H    0.000000   0.000001
    10  H    0.000000  -0.000008
    11  H   -0.000112   0.000019
    12  H   -0.003950  -0.000124
    13  H    0.480636  -0.001902
    14  H   -0.001902   0.519649
 Mulliken charges:
               1
     1  C   -0.912955
     2  C   -0.053746
     3  C    0.242802
     4  C   -0.394168
     5  C    0.034029
     6  C   -0.272165
     7  N   -0.172067
     8  H    0.238978
     9  H    0.208860
    10  H    0.238066
    11  H    0.213347
    12  H    0.211842
    13  H    0.214939
    14  H    0.202239
 Sum of Mulliken charges =   0.00000
 Mulliken charges with hydrogens summed into heavy atoms:
               1
     1  C   -0.227051
     2  C   -0.053746
     3  C    0.456149
     4  C   -0.182326
     5  C    0.248967
     6  C   -0.069927
     7  N   -0.172067
 Electronic spatial extent (au):  <R**2>=            681.9250
 Charge=              0.0000 electrons
 Dipole moment (field-independent basis, Debye):
    X=              0.7686    Y=              1.9421    Z=              0.0226  Tot=              2.0888
 Quadrupole moment (field-independent basis, Debye-Ang):
   XX=            -36.4781   YY=            -41.5123   ZZ=            -44.6675
   XY=             -2.0334   XZ=             -0.0148   YZ=              0.0315
 Traceless Quadrupole moment (field-independent basis, Debye-Ang):
   XX=              4.4079   YY=             -0.6263   ZZ=             -3.7815
   XY=             -2.0334   XZ=             -0.0148   YZ=              0.0315
 Octapole moment (field-independent basis, Debye-Ang**2):
  XXX=              5.3894  YYY=              8.8128  ZZZ=              0.6938  XYY=              6.6156
  XXY=             -0.0958  XXZ=             -0.0592  XZZ=             -3.9402  YZZ=             -1.1694
  YYZ=             -0.6533  XYZ=             -0.0831
 Hexadecapole moment (field-independent basis, Debye-Ang**3):
 XXXX=           -570.6927 YYYY=           -284.6923 ZZZZ=            -58.2802 XXXY=              1.8535
 XXXZ=              0.4174 YYYX=            -10.3314 YYYZ=              0.1624 ZZZX=             -1.8847
 ZZZY=              0.0157 XXYY=           -138.8915 XXZZ=           -113.4423 YYZZ=            -63.9842
 XXYZ=              0.2270 YYXZ=              1.9338 ZZXY=             -0.1418
 N-N= 2.731201645038D+02 E-N=-1.212165603998D+03  KE= 2.849899538401D+02
 Calling FoFJK, ICntrl=      2127 FMM=F ISym2X=0 I1Cent= 0 IOpClX= 0 NMat=1 NMatS=1 NMatT=0.
 ***** Axes restored to original set *****
 -------------------------------------------------------------------
 Center     Atomic                   Forces (Hartrees/Bohr)
 Number     Number              X              Y              Z
 -------------------------------------------------------------------
      1        6          -0.002346399   -0.001230201    0.010522595
      2        6          -0.015857843   -0.008943545    0.004034843
      3        6          -0.000293349    0.007661307   -0.014311715
      4        6           0.004671427    0.003085832   -0.001591848
      5        6           0.003235718    0.002248668   -0.000480579
      6        6          -0.001567444   -0.010721833    0.015160846
      7        7           0.011477565    0.013882766   -0.011247445
      8        1           0.000103599   -0.001196461    0.002035540
      9        1           0.002329828   -0.001827227   -0.001124996
     10        1           0.000951571   -0.002111225   -0.003078695
     11        1          -0.000340347   -0.001041580    0.002056223
     12        1           0.000456046    0.000698901   -0.000419139
     13        1          -0.001095574   -0.000112956   -0.000574986
     14        1          -0.001724798   -0.000392447   -0.000980645
 -------------------------------------------------------------------
 Cartesian Forces:  Max     0.015857843 RMS     0.006209355

 GradGradGradGradGradGradGradGradGradGradGradGradGradGradGradGradGradGrad
 Berny optimization.
 FormGI is forming the generalized inverse of G from B-inverse, IUseBI=4.
 Internal  Forces:  Max     0.013404722 RMS     0.003880186
 Search for a local minimum.
 Step number   1 out of a maximum of   72
 All quantities printed in internal units (Hartrees-Bohrs-Radians)
 Mixed Optimization -- RFO/linear search
 Second derivative matrix not updated -- first step.
 ITU=  0
     Eigenvalues ---    0.00867   0.01668   0.02216   0.02230   0.02245
     Eigenvalues ---    0.02252   0.02276   0.02294   0.02314   0.07360
     Eigenvalues ---    0.07381   0.16000   0.16000   0.16000   0.16000
     Eigenvalues ---    0.16000   0.16000   0.16000   0.22000   0.22419
     Eigenvalues ---    0.24423   0.25000   0.33194   0.34222   0.34232
     Eigenvalues ---    0.34322   0.35298   0.35396   0.35428   0.35518
     Eigenvalues ---    0.43598   0.44757   0.47444   0.48097   0.52837
     Eigenvalues ---    0.53954
 RFO step:  Lambda=-2.82016964D-03 EMin= 8.67262257D-03
 Linear search not attempted -- first point.
 Iteration  1 RMS(Cart)=  0.02690296 RMS(Int)=  0.00033601
 Iteration  2 RMS(Cart)=  0.00045988 RMS(Int)=  0.00012568
 Iteration  3 RMS(Cart)=  0.00000009 RMS(Int)=  0.00012568
 Variable       Old X    -DE/DX   Delta X   Delta X   Delta X     New X
                                 (Linear)    (Quad)   (Total)
    R1        2.82012   0.01028   0.00000   0.03069   0.03069   2.85081
    R2        2.06790   0.00086   0.00000   0.00247   0.00247   2.07037
    R3        2.06939  -0.00059   0.00000  -0.00170  -0.00170   2.06769
    R4        2.06957  -0.00184   0.00000  -0.00533  -0.00533   2.06423
    R5        2.61832   0.01276   0.00000   0.02665   0.02668   2.64500
    R6        2.55483  -0.01153   0.00000  -0.02190  -0.02184   2.53299
    R7        2.62750   0.00052   0.00000   0.00251   0.00248   2.62998
    R8        2.04985   0.00049   0.00000   0.00136   0.00136   2.05121
    R9        2.62744   0.00054   0.00000   0.00220   0.00214   2.62958
   R10        2.05194   0.00092   0.00000   0.00259   0.00259   2.05453
   R11        2.61836   0.00556   0.00000   0.01110   0.01107   2.62943
   R12        2.04842   0.00070   0.00000   0.00196   0.00196   2.05038
   R13        2.55464  -0.01340   0.00000  -0.02562  -0.02560   2.52905
   R14        2.05036   0.00201   0.00000   0.00564   0.00564   2.05600
    A1        1.91998   0.00241   0.00000   0.00917   0.00914   1.92912
    A2        1.93588   0.00094   0.00000   0.01012   0.01010   1.94597
    A3        1.93580  -0.00199   0.00000  -0.01096  -0.01099   1.92481
    A4        1.90000  -0.00220   0.00000  -0.01587  -0.01589   1.88411
    A5        1.90011  -0.00176   0.00000  -0.01914  -0.01916   1.88095
    A6        1.87088   0.00252   0.00000   0.02623   0.02620   1.89708
    A7        2.08298   0.00795   0.00000   0.03202   0.03180   2.11478
    A8        2.03513  -0.00010   0.00000   0.00016  -0.00005   2.03508
    A9        2.16508  -0.00785   0.00000  -0.03219  -0.03223   2.13285
   A10        2.05777   0.00430   0.00000   0.02337   0.02339   2.08115
   A11        2.12302  -0.00448   0.00000  -0.02598  -0.02598   2.09704
   A12        2.10240   0.00018   0.00000   0.00260   0.00260   2.10499
   A13        2.08982  -0.00524   0.00000  -0.01783  -0.01791   2.07191
   A14        2.09683   0.00273   0.00000   0.00963   0.00967   2.10650
   A15        2.09654   0.00250   0.00000   0.00820   0.00824   2.10477
   A16        2.05791  -0.00030   0.00000   0.00053   0.00046   2.05837
   A17        2.11203   0.00117   0.00000   0.00599   0.00602   2.11805
   A18        2.11325  -0.00087   0.00000  -0.00652  -0.00648   2.10677
   A19        2.16497   0.00073   0.00000  -0.00015  -0.00014   2.16484
   A20        2.10809  -0.00054   0.00000  -0.00100  -0.00101   2.10708
   A21        2.01012  -0.00019   0.00000   0.00115   0.00113   2.01125
   A22        2.03083   0.00835   0.00000   0.02626   0.02642   2.05725
    D1       -1.57065  -0.00023   0.00000   0.00199   0.00222  -1.56842
    D2        1.57090  -0.00086   0.00000  -0.02983  -0.03006   1.54084
    D3        0.53242  -0.00079   0.00000  -0.00528  -0.00506   0.52736
    D4       -2.60922  -0.00141   0.00000  -0.03710  -0.03734  -2.64656
    D5        2.60938   0.00168   0.00000   0.02700   0.02724   2.63662
    D6       -0.53226   0.00106   0.00000  -0.00481  -0.00504  -0.53730
    D7       -3.14134  -0.00071   0.00000  -0.03225  -0.03221   3.10963
    D8        0.00000  -0.00065   0.00000  -0.03020  -0.03013  -0.03013
    D9        0.00030  -0.00004   0.00000   0.00209   0.00190   0.00220
   D10       -3.14154   0.00002   0.00000   0.00413   0.00398  -3.13756
   D11        3.14154   0.00071   0.00000   0.03199   0.03141  -3.11024
   D12       -0.00010   0.00006   0.00000  -0.00148  -0.00123  -0.00133
   D13       -0.00027   0.00004   0.00000   0.00036   0.00037   0.00010
   D14        3.14154  -0.00007   0.00000  -0.00367  -0.00363   3.13791
   D15        3.14157  -0.00002   0.00000  -0.00166  -0.00172   3.13985
   D16        0.00019  -0.00013   0.00000  -0.00569  -0.00572  -0.00552
   D17        0.00006  -0.00006   0.00000  -0.00314  -0.00308  -0.00302
   D18       -3.14139  -0.00015   0.00000  -0.00563  -0.00560   3.13619
   D19        3.14143   0.00005   0.00000   0.00089   0.00092  -3.14083
   D20       -0.00001  -0.00003   0.00000  -0.00160  -0.00161  -0.00162
   D21        0.00016   0.00009   0.00000   0.00391   0.00393   0.00409
   D22       -3.14150  -0.00010   0.00000  -0.00275  -0.00279   3.13889
   D23       -3.14158   0.00017   0.00000   0.00640   0.00644  -3.13514
   D24       -0.00006  -0.00001   0.00000  -0.00026  -0.00028  -0.00034
   D25       -0.00014  -0.00008   0.00000  -0.00161  -0.00175  -0.00189
   D26        3.14152   0.00009   0.00000   0.00471   0.00464  -3.13702
         Item               Value     Threshold  Converged?
 Maximum Force            0.013405     0.000450     NO 
 RMS     Force            0.003880     0.000300     NO 
 Maximum Displacement     0.085632     0.001800     NO 
 RMS     Displacement     0.026861     0.001200     NO 
 Predicted change in Energy=-1.432719D-03
 GradGradGradGradGradGradGradGradGradGradGradGradGradGradGradGradGradGrad

                          Input orientation:                          
 ---------------------------------------------------------------------
 Center     Atomic      Atomic             Coordinates (Angstroms)
 Number     Number       Type             X           Y           Z
 ---------------------------------------------------------------------
      1          6           0        0.974979   -2.142840    4.776418
      2          6           0        0.726530   -1.494902    3.436913
      3          6           0        1.647397   -0.597144    2.884536
      4          6           0        1.396194   -0.052164    1.628832
      5          6           0        0.231952   -0.419866    0.961260
      6          6           0       -0.622010   -1.321728    1.588548
      7          7           0       -0.394590   -1.853250    2.795548
      8          1           0        1.520028   -3.085089    4.652272
      9          1           0        1.565567   -1.495414    5.431601
     10          1           0        0.026791   -2.368644    5.269541
     11          1           0        2.546792   -0.332943    3.431803
     12          1           0        2.093729    0.650044    1.178976
     13          1           0       -0.008914   -0.017452   -0.017158
     14          1           0       -1.545743   -1.638407    1.108811
 ---------------------------------------------------------------------
                    Distance matrix (angstroms):
                    1          2          3          4          5
     1  C    0.000000
     2  C    1.508583   0.000000
     3  C    2.533878   1.399674   0.000000
     4  C    3.802058   2.408133   1.391726   0.000000
     5  C    4.251607   2.743933   2.394557   1.391516   0.000000
     6  C    3.658840   2.294559   2.711976   2.384652   1.391437
     7  N    2.425577   1.340399   2.399048   2.795004   2.410759
     8  H    1.095593   2.153005   3.054666   4.284293   4.731398
     9  H    1.094175   2.163970   2.702060   4.070960   4.787409
    10  H    1.092346   2.147460   3.384202   4.527263   4.732982
    11  H    2.748511   2.159521   1.085456   2.157178   3.386683
    12  H    4.689711   3.401222   2.159543   1.087208   2.158315
    13  H    5.335137   3.828099   3.391053   2.164444   1.085014
    14  H    4.478820   3.256359   3.799154   3.382541   2.160281
                    6          7          8          9         10
     6  C    0.000000
     7  N    1.338314   0.000000
     8  H    4.133301   2.937791   0.000000
     9  H    4.425462   3.304397   1.771015   0.000000
    10  H    3.881583   2.561998   1.767505   1.776689   0.000000
    11  H    3.796918   3.371628   3.180896   2.512635   3.724482
    12  H    3.380958   3.882205   5.132655   4.792366   5.487936
    13  H    2.157618   3.380860   5.792378   5.861087   5.786067
    14  H    1.087987   2.053386   4.903872   5.327965   4.507525
                   11         12         13         14
    11  H    0.000000
    12  H    2.499352   0.000000
    13  H    4.304242   2.509462   0.000000
    14  H    4.883582   4.299732   2.501429   0.000000
 Stoichiometry    C6H7N
 Framework group  C1[X(C6H7N)]
 Deg. of freedom    36
 Full point group                 C1      NOp   1
 Largest Abelian subgroup         C1      NOp   1
 Largest concise Abelian subgroup C1      NOp   1
                         Standard orientation:                         
 ---------------------------------------------------------------------
 Center     Atomic      Atomic             Coordinates (Angstroms)
 Number     Number       Type             X           Y           Z
 ---------------------------------------------------------------------
      1          6           0       -2.382300   -0.014281    0.010458
      2          6           0       -0.874036    0.000090   -0.017020
      3          6           0       -0.160814    1.204389   -0.009038
      4          6           0        1.230441    1.170498    0.003607
      5          6           0        1.868993   -0.065848    0.007789
      6          6           0        1.075930   -1.209143    0.002748
      7          7           0       -0.262216   -1.192514   -0.010408
      8          1           0       -2.747614   -0.033473    1.043174
      9          1           0       -2.800676    0.870446   -0.478867
     10          1           0       -2.761758   -0.905752   -0.494032
     11          1           0       -0.690564    2.151794   -0.010986
     12          1           0        1.808001    2.091604    0.006563
     13          1           0        2.951301   -0.142278    0.012556
     14          1           0        1.527548   -2.198970    0.003187
 ---------------------------------------------------------------------
 Rotational constants (GHZ):      5.7137872      2.6301293      1.8216165
 Standard basis: 6-31+G(d) (6D, 7F)
 There are   147 symmetry adapted cartesian basis functions of A   symmetry.
 There are   147 symmetry adapted basis functions of A   symmetry.
   147 basis functions,   252 primitive gaussians,   147 cartesian basis functions
    25 alpha electrons       25 beta electrons
       nuclear repulsion energy       272.6178244629 Hartrees.
 NAtoms=   14 NActive=   14 NUniq=   14 SFac= 1.00D+00 NAtFMM=   60 NAOKFM=F Big=F
 Integral buffers will be    131072 words long.
 Raffenetti 2 integral format.
 Two-electron integral symmetry is turned on.
 One-electron integrals computed using PRISM.
 NBasis=   147 RedAO= T EigKep=  1.31D-05  NBF=   147
 NBsUse=   147 1.00D-06 EigRej= -1.00D+00 NBFU=   147
 Initial guess from the checkpoint file:  "/srv/scratch/z5358697/gauss/Gau-4098047.chk"
 B after Tr=     0.000000    0.000000    0.000000
         Rot=    0.999973   -0.000352   -0.000133    0.007406 Ang=  -0.85 deg.
 ExpMin= 4.38D-02 ExpMax= 4.17D+03 ExpMxC= 6.27D+02 IAcc=2 IRadAn=         4 AccDes= 0.00D+00
 Harris functional with IExCor= 1009 and IRadAn=       4 diagonalized for initial guess.
 HarFok:  IExCor= 1009 AccDes= 0.00D+00 IRadAn=         4 IDoV= 1 UseB2=F ITyADJ=14
 ICtDFT=  3500011 ScaDFX=  1.000000  1.000000  1.000000  1.000000
 FoFCou: FMM=F IPFlag=           0 FMFlag=      100000 FMFlg1=           0
         NFxFlg=           0 DoJE=T BraDBF=F KetDBF=T FulRan=T
         wScrn=  0.000000 ICntrl=     500 IOpCl=  0 I1Cent=   200000004 NGrid=           0
         NMat0=    1 NMatS0=      1 NMatT0=    0 NMatD0=    1 NMtDS0=    0 NMtDT0=    0
 Petite list used in FoFCou.
 Requested convergence on RMS density matrix=1.00D-08 within 128 cycles.
 Requested convergence on MAX density matrix=1.00D-06.
 Requested convergence on             energy=1.00D-06.
 No special actions if energy rises.
 SCF Done:  E(RM062X) =  -287.480210457     A.U. after   12 cycles
            NFock= 12  Conv=0.55D-08     -V/T= 2.0089
 Calling FoFJK, ICntrl=      2127 FMM=F ISym2X=0 I1Cent= 0 IOpClX= 0 NMat=1 NMatS=1 NMatT=0.
 ***** Axes restored to original set *****
 -------------------------------------------------------------------
 Center     Atomic                   Forces (Hartrees/Bohr)
 Number     Number              X              Y              Z
 -------------------------------------------------------------------
      1        6          -0.000405678    0.002038477    0.000796213
      2        6          -0.000841525   -0.003078185    0.000880476
      3        6          -0.000500221    0.001253641   -0.002302550
      4        6           0.000374772   -0.000274376    0.001423125
      5        6           0.000457677    0.000371946   -0.000429519
      6        6          -0.001499148   -0.002213773    0.003605165
      7        7           0.002291245    0.002791964   -0.002244578
      8        1          -0.000014257   -0.000094842   -0.000575584
      9        1           0.000624536   -0.000208634   -0.000632329
     10        1          -0.000334988   -0.000067727   -0.001112168
     11        1           0.000222686   -0.000101448    0.000931445
     12        1          -0.000079721   -0.000405463    0.000511842
     13        1          -0.000429339   -0.000350843   -0.000117866
     14        1           0.000133962    0.000339263   -0.000733672
 -------------------------------------------------------------------
 Cartesian Forces:  Max     0.003605165 RMS     0.001280981

 GradGradGradGradGradGradGradGradGradGradGradGradGradGradGradGradGradGrad
 Berny optimization.
 Using GEDIIS/GDIIS optimizer.
 FormGI is forming the generalized inverse of G from B-inverse, IUseBI=4.
 Internal  Forces:  Max     0.002980784 RMS     0.000719859
 Search for a local minimum.
 Step number   2 out of a maximum of   72
 All quantities printed in internal units (Hartrees-Bohrs-Radians)
 Mixed Optimization -- En-DIIS/RFO-DIIS
 Update second derivatives using D2CorX and points    1    2
 DE= -1.48D-03 DEPred=-1.43D-03 R= 1.03D+00
 TightC=F SS=  1.41D+00  RLast= 1.24D-01 DXNew= 5.0454D-01 3.7209D-01
 Trust test= 1.03D+00 RLast= 1.24D-01 DXMaxT set to 3.72D-01
 ITU=  1  0
 Use linear search instead of GDIIS.
     Eigenvalues ---    0.00864   0.01707   0.02216   0.02233   0.02245
     Eigenvalues ---    0.02251   0.02272   0.02297   0.02325   0.07090
     Eigenvalues ---    0.07361   0.15181   0.16000   0.16000   0.16000
     Eigenvalues ---    0.16000   0.16000   0.16296   0.21929   0.22791
     Eigenvalues ---    0.23873   0.25143   0.34184   0.34229   0.34316
     Eigenvalues ---    0.34831   0.35343   0.35367   0.35512   0.35726
     Eigenvalues ---    0.44048   0.44576   0.46597   0.48304   0.50477
     Eigenvalues ---    0.54109
 RFO step:  Lambda=-1.56655895D-04 EMin= 8.63991345D-03
 Quartic linear search produced a step of  0.04813.
 Iteration  1 RMS(Cart)=  0.00789312 RMS(Int)=  0.00005734
 Iteration  2 RMS(Cart)=  0.00007213 RMS(Int)=  0.00001867
 Iteration  3 RMS(Cart)=  0.00000001 RMS(Int)=  0.00001867
 Variable       Old X    -DE/DX   Delta X   Delta X   Delta X     New X
                                 (Linear)    (Quad)   (Total)
    R1        2.85081  -0.00209   0.00148  -0.00635  -0.00487   2.84594
    R2        2.07037   0.00014   0.00012   0.00044   0.00056   2.07093
    R3        2.06769  -0.00017  -0.00008  -0.00055  -0.00063   2.06706
    R4        2.06423  -0.00019  -0.00026  -0.00061  -0.00087   2.06336
    R5        2.64500  -0.00019   0.00128  -0.00030   0.00099   2.64599
    R6        2.53299  -0.00178  -0.00105  -0.00383  -0.00487   2.52812
    R7        2.62998  -0.00168   0.00012  -0.00358  -0.00346   2.62652
    R8        2.05121   0.00063   0.00007   0.00188   0.00195   2.05316
    R9        2.62958   0.00067   0.00010   0.00175   0.00185   2.63143
   R10        2.05453  -0.00052   0.00012  -0.00153  -0.00140   2.05313
   R11        2.62943   0.00053   0.00053   0.00137   0.00190   2.63133
   R12        2.05038   0.00007   0.00009   0.00023   0.00032   2.05070
   R13        2.52905  -0.00298  -0.00123  -0.00604  -0.00727   2.52178
   R14        2.05600   0.00011   0.00027   0.00037   0.00064   2.05664
    A1        1.92912  -0.00075   0.00044  -0.00663  -0.00621   1.92291
    A2        1.94597   0.00007   0.00049   0.00184   0.00233   1.94830
    A3        1.92481  -0.00119  -0.00053  -0.00741  -0.00796   1.91685
    A4        1.88411   0.00023  -0.00076   0.00050  -0.00027   1.88384
    A5        1.88095   0.00055  -0.00092   0.00086  -0.00012   1.88084
    A6        1.89708   0.00117   0.00126   0.01125   0.01252   1.90959
    A7        2.11478  -0.00008   0.00153   0.00042   0.00188   2.11666
    A8        2.03508   0.00022   0.00000   0.00137   0.00130   2.03639
    A9        2.13285  -0.00013  -0.00155  -0.00121  -0.00280   2.13005
   A10        2.08115  -0.00023   0.00113  -0.00077   0.00036   2.08152
   A11        2.09704  -0.00061  -0.00125  -0.00448  -0.00574   2.09130
   A12        2.10499   0.00084   0.00012   0.00525   0.00538   2.11037
   A13        2.07191  -0.00008  -0.00086   0.00040  -0.00047   2.07143
   A14        2.10650  -0.00038   0.00047  -0.00294  -0.00247   2.10403
   A15        2.10477   0.00046   0.00040   0.00255   0.00295   2.10772
   A16        2.05837  -0.00017   0.00002   0.00013   0.00014   2.05851
   A17        2.11805   0.00063   0.00029   0.00356   0.00385   2.12190
   A18        2.10677  -0.00046  -0.00031  -0.00370  -0.00400   2.10277
   A19        2.16484  -0.00078  -0.00001  -0.00364  -0.00366   2.16118
   A20        2.10708  -0.00045  -0.00005  -0.00368  -0.00373   2.10334
   A21        2.01125   0.00124   0.00005   0.00737   0.00741   2.01866
   A22        2.05725   0.00139   0.00127   0.00512   0.00642   2.06367
    D1       -1.56842  -0.00040   0.00011  -0.02618  -0.02605  -1.59448
    D2        1.54084  -0.00009  -0.00145  -0.00647  -0.00790   1.53295
    D3        0.52736  -0.00057  -0.00024  -0.02878  -0.02903   0.49834
    D4       -2.64656  -0.00026  -0.00180  -0.00908  -0.01087  -2.65743
    D5        2.63662   0.00014   0.00131  -0.01837  -0.01708   2.61954
    D6       -0.53730   0.00045  -0.00024   0.00134   0.00108  -0.53623
    D7        3.10963   0.00019  -0.00155   0.01161   0.01005   3.11968
    D8       -0.03013   0.00011  -0.00145   0.00820   0.00675  -0.02338
    D9        0.00220  -0.00015   0.00009  -0.00927  -0.00917  -0.00697
   D10       -3.13756  -0.00023   0.00019  -0.01268  -0.01247   3.13316
   D11       -3.11024  -0.00022   0.00151  -0.01309  -0.01159  -3.12183
   D12       -0.00133   0.00010  -0.00006   0.00687   0.00681   0.00548
   D13        0.00010   0.00004   0.00002   0.00266   0.00268   0.00279
   D14        3.13791   0.00007  -0.00017   0.00377   0.00360   3.14151
   D15        3.13985   0.00012  -0.00008   0.00608   0.00601  -3.13732
   D16       -0.00552   0.00015  -0.00028   0.00719   0.00692   0.00140
   D17       -0.00302   0.00011  -0.00015   0.00552   0.00538   0.00236
   D18        3.13619   0.00008  -0.00027   0.00343   0.00315   3.13934
   D19       -3.14083   0.00008   0.00004   0.00443   0.00448  -3.13635
   D20       -0.00162   0.00005  -0.00008   0.00233   0.00225   0.00063
   D21        0.00409  -0.00017   0.00019  -0.00829  -0.00810  -0.00401
   D22        3.13889   0.00003  -0.00013   0.00079   0.00063   3.13953
   D23       -3.13514  -0.00014   0.00031  -0.00622  -0.00591  -3.14105
   D24       -0.00034   0.00007  -0.00001   0.00286   0.00283   0.00249
   D25       -0.00189   0.00007  -0.00008   0.00206   0.00197   0.00009
   D26       -3.13702  -0.00012   0.00022  -0.00653  -0.00634   3.13982
         Item               Value     Threshold  Converged?
 Maximum Force            0.002981     0.000450     NO 
 RMS     Force            0.000720     0.000300     NO 
 Maximum Displacement     0.027497     0.001800     NO 
 RMS     Displacement     0.007908     0.001200     NO 
 Predicted change in Energy=-8.171095D-05
 GradGradGradGradGradGradGradGradGradGradGradGradGradGradGradGradGradGrad

                          Input orientation:                          
 ---------------------------------------------------------------------
 Center     Atomic      Atomic             Coordinates (Angstroms)
 Number     Number       Type             X           Y           Z
 ---------------------------------------------------------------------
      1          6           0        0.975202   -2.140553    4.775752
      2          6           0        0.732664   -1.500853    3.434108
      3          6           0        1.648736   -0.596041    2.883950
      4          6           0        1.395754   -0.050463    1.630893
      5          6           0        0.231715   -0.421719    0.962897
      6          6           0       -0.622542   -1.323309    1.592397
      7          7           0       -0.387878   -1.853875    2.794159
      8          1           0        1.506897   -3.090647    4.650876
      9          1           0        1.578752   -1.499560    5.424861
     10          1           0        0.021229   -2.354093    5.262117
     11          1           0        2.543764   -0.328666    3.438826
     12          1           0        2.092285    0.653648    1.184258
     13          1           0       -0.013286   -0.023110   -0.016241
     14          1           0       -1.544591   -1.640560    1.109046
 ---------------------------------------------------------------------
                    Distance matrix (angstroms):
                    1          2          3          4          5
     1  C    0.000000
     2  C    1.506004   0.000000
     3  C    2.533394   1.400196   0.000000
     4  C    3.799405   2.407261   1.389895   0.000000
     5  C    4.247944   2.742693   2.393487   1.392493   0.000000
     6  C    3.654371   2.293470   2.712146   2.386449   1.392440
     7  N    2.422165   1.337824   2.395413   2.790488   2.405928
     8  H    1.095889   2.146487   3.060263   4.286650   4.727627
     9  H    1.093841   2.163091   2.697679   4.065410   4.783866
    10  H    1.091885   2.139106   3.375679   4.514623   4.718227
    11  H    2.744211   2.157344   1.086486   2.159618   3.388873
    12  H    4.685538   3.398863   2.155786   1.086467   2.160356
    13  H    5.331404   3.826888   3.391412   2.167762   1.085185
    14  H    4.477062   3.257502   3.799822   3.383247   2.159212
                    6          7          8          9         10
     6  C    0.000000
     7  N    1.334466   0.000000
     8  H    4.124596   2.926974   0.000000
     9  H    4.423182   3.303599   1.770812   0.000000
    10  H    3.865722   2.551157   1.767297   1.783982   0.000000
    11  H    3.797909   3.366955   3.189467   2.499314   3.713479
    12  H    3.383079   3.876940   5.136133   4.783590   5.474004
    13  H    2.156253   3.374962   5.788154   5.858334   5.770246
    14  H    1.088325   2.055017   4.894782   5.329298   4.495434
                   11         12         13         14
    11  H    0.000000
    12  H    2.500371   0.000000
    13  H    4.309218   2.516471   0.000000
    14  H    4.885038   4.300688   2.495458   0.000000
 Stoichiometry    C6H7N
 Framework group  C1[X(C6H7N)]
 Deg. of freedom    36
 Full point group                 C1      NOp   1
 Largest Abelian subgroup         C1      NOp   1
 Largest concise Abelian subgroup C1      NOp   1
                         Standard orientation:                         
 ---------------------------------------------------------------------
 Center     Atomic      Atomic             Coordinates (Angstroms)
 Number     Number       Type             X           Y           Z
 ---------------------------------------------------------------------
      1          6           0       -2.380181   -0.016118    0.006908
      2          6           0       -0.874359    0.000358   -0.009751
      3          6           0       -0.160514    1.204921   -0.008087
      4          6           0        1.228930    1.171223    0.002721
      5          6           0        1.867467   -0.066225    0.008172
      6          6           0        1.073603   -1.210163   -0.000445
      7          7           0       -0.260658   -1.188398   -0.009149
      8          1           0       -2.746354   -0.052820    1.039160
      9          1           0       -2.798437    0.876424   -0.467348
     10          1           0       -2.746541   -0.906331   -0.508372
     11          1           0       -0.695904    2.150297   -0.016600
     12          1           0        1.803728    2.093186    0.004134
     13          1           0        2.949605   -0.147235    0.014532
     14          1           0        1.528829   -2.198706    0.001431
 ---------------------------------------------------------------------
 Rotational constants (GHZ):      5.7179749      2.6359722      1.8247332
 Standard basis: 6-31+G(d) (6D, 7F)
 There are   147 symmetry adapted cartesian basis functions of A   symmetry.
 There are   147 symmetry adapted basis functions of A   symmetry.
   147 basis functions,   252 primitive gaussians,   147 cartesian basis functions
    25 alpha electrons       25 beta electrons
       nuclear repulsion energy       272.8342156656 Hartrees.
 NAtoms=   14 NActive=   14 NUniq=   14 SFac= 1.00D+00 NAtFMM=   60 NAOKFM=F Big=F
 Integral buffers will be    131072 words long.
 Raffenetti 2 integral format.
 Two-electron integral symmetry is turned on.
 One-electron integrals computed using PRISM.
 NBasis=   147 RedAO= T EigKep=  1.30D-05  NBF=   147
 NBsUse=   147 1.00D-06 EigRej= -1.00D+00 NBFU=   147
 Initial guess from the checkpoint file:  "/srv/scratch/z5358697/gauss/Gau-4098047.chk"
 B after Tr=     0.000000    0.000000    0.000000
         Rot=    1.000000   -0.000440    0.000064   -0.000236 Ang=  -0.06 deg.
 ExpMin= 4.38D-02 ExpMax= 4.17D+03 ExpMxC= 6.27D+02 IAcc=2 IRadAn=         4 AccDes= 0.00D+00
 Harris functional with IExCor= 1009 and IRadAn=       4 diagonalized for initial guess.
 HarFok:  IExCor= 1009 AccDes= 0.00D+00 IRadAn=         4 IDoV= 1 UseB2=F ITyADJ=14
 ICtDFT=  3500011 ScaDFX=  1.000000  1.000000  1.000000  1.000000
 FoFCou: FMM=F IPFlag=           0 FMFlag=      100000 FMFlg1=           0
         NFxFlg=           0 DoJE=T BraDBF=F KetDBF=T FulRan=T
         wScrn=  0.000000 ICntrl=     500 IOpCl=  0 I1Cent=   200000004 NGrid=           0
         NMat0=    1 NMatS0=      1 NMatT0=    0 NMatD0=    1 NMtDS0=    0 NMtDT0=    0
 Petite list used in FoFCou.
 Requested convergence on RMS density matrix=1.00D-08 within 128 cycles.
 Requested convergence on MAX density matrix=1.00D-06.
 Requested convergence on             energy=1.00D-06.
 No special actions if energy rises.
 SCF Done:  E(RM062X) =  -287.480289607     A.U. after   11 cycles
            NFock= 11  Conv=0.47D-08     -V/T= 2.0088
 Calling FoFJK, ICntrl=      2127 FMM=F ISym2X=0 I1Cent= 0 IOpClX= 0 NMat=1 NMatS=1 NMatT=0.
 ***** Axes restored to original set *****
 -------------------------------------------------------------------
 Center     Atomic                   Forces (Hartrees/Bohr)
 Number     Number              X              Y              Z
 -------------------------------------------------------------------
      1        6           0.000211428    0.000185232   -0.000125331
      2        6           0.000019993    0.000662609    0.000593031
      3        6           0.000198436    0.000058962    0.000089454
      4        6          -0.000420165   -0.000292574   -0.000031432
      5        6           0.000176015    0.000417909   -0.000190097
      6        6           0.000110037   -0.000556878   -0.000142741
      7        7          -0.000187992   -0.000461840    0.000054820
      8        1          -0.000065911   -0.000197109   -0.000004612
      9        1           0.000038045   -0.000123169   -0.000251467
     10        1          -0.000036451    0.000079574    0.000048825
     11        1          -0.000028337   -0.000056957   -0.000021399
     12        1          -0.000007495    0.000006358   -0.000001085
     13        1          -0.000034630   -0.000020534    0.000039202
     14        1           0.000027027    0.000298418   -0.000057167
 -------------------------------------------------------------------
 Cartesian Forces:  Max     0.000662609 RMS     0.000232470

 GradGradGradGradGradGradGradGradGradGradGradGradGradGradGradGradGradGrad
 Berny optimization.
 Using GEDIIS/GDIIS optimizer.
 FormGI is forming the generalized inverse of G from B-inverse, IUseBI=4.
 Internal  Forces:  Max     0.000382730 RMS     0.000131227
 Search for a local minimum.
 Step number   3 out of a maximum of   72
 All quantities printed in internal units (Hartrees-Bohrs-Radians)
 Mixed Optimization -- En-DIIS/RFO-DIIS
 Swapping is turned off.
 Update second derivatives using D2CorX and points    1    2    3
 DE= -7.91D-05 DEPred=-8.17D-05 R= 9.69D-01
 TightC=F SS=  1.41D+00  RLast= 5.93D-02 DXNew= 6.2579D-01 1.7797D-01
 Trust test= 9.69D-01 RLast= 5.93D-02 DXMaxT set to 3.72D-01
 ITU=  1  1  0
     Eigenvalues ---    0.00748   0.01852   0.02216   0.02233   0.02244
     Eigenvalues ---    0.02251   0.02278   0.02314   0.02453   0.07074
     Eigenvalues ---    0.07427   0.14524   0.16000   0.16000   0.16000
     Eigenvalues ---    0.16000   0.16099   0.16336   0.22155   0.22793
     Eigenvalues ---    0.24145   0.25172   0.34057   0.34254   0.34298
     Eigenvalues ---    0.34642   0.35356   0.35423   0.35520   0.35569
     Eigenvalues ---    0.44054   0.44999   0.47345   0.48256   0.51916
     Eigenvalues ---    0.54051
 En-DIIS/RFO-DIIS IScMMF=        0 using points:     3    2
 RFO step:  Lambda=-3.66801132D-06.
 DidBck=F Rises=F RFO-DIIS coefs:    0.97885    0.02115
 Iteration  1 RMS(Cart)=  0.00709825 RMS(Int)=  0.00004867
 Iteration  2 RMS(Cart)=  0.00005113 RMS(Int)=  0.00000316
 Iteration  3 RMS(Cart)=  0.00000000 RMS(Int)=  0.00000316
 Variable       Old X    -DE/DX   Delta X   Delta X   Delta X     New X
                                 (Linear)    (Quad)   (Total)
    R1        2.84594  -0.00025   0.00010  -0.00134  -0.00124   2.84470
    R2        2.07093   0.00014  -0.00001   0.00049   0.00048   2.07141
    R3        2.06706  -0.00021   0.00001  -0.00071  -0.00069   2.06637
    R4        2.06336   0.00005   0.00002  -0.00002   0.00000   2.06336
    R5        2.64599  -0.00008  -0.00002   0.00013   0.00011   2.64610
    R6        2.52812   0.00038   0.00010  -0.00012  -0.00002   2.52810
    R7        2.62652   0.00002   0.00007  -0.00053  -0.00046   2.62606
    R8        2.05316  -0.00005  -0.00004   0.00018   0.00014   2.05330
    R9        2.63143  -0.00026  -0.00004  -0.00029  -0.00033   2.63110
   R10        2.05313   0.00000   0.00003  -0.00019  -0.00016   2.05296
   R11        2.63133   0.00015  -0.00004   0.00065   0.00061   2.63194
   R12        2.05070  -0.00003  -0.00001  -0.00004  -0.00004   2.05066
   R13        2.52178   0.00030   0.00015  -0.00065  -0.00050   2.52128
   R14        2.05664  -0.00009  -0.00001  -0.00012  -0.00013   2.05650
    A1        1.92291   0.00005   0.00013  -0.00063  -0.00050   1.92241
    A2        1.94830  -0.00012  -0.00005  -0.00033  -0.00038   1.94792
    A3        1.91685  -0.00001   0.00017  -0.00134  -0.00117   1.91568
    A4        1.88384   0.00004   0.00001   0.00008   0.00009   1.88393
    A5        1.88084  -0.00003   0.00000  -0.00034  -0.00033   1.88050
    A6        1.90959   0.00008  -0.00026   0.00260   0.00233   1.91193
    A7        2.11666  -0.00009  -0.00004   0.00000  -0.00005   2.11661
    A8        2.03639   0.00004  -0.00003   0.00026   0.00022   2.03660
    A9        2.13005   0.00005   0.00006  -0.00035  -0.00030   2.12975
   A10        2.08152  -0.00005  -0.00001  -0.00016  -0.00017   2.08135
   A11        2.09130  -0.00001   0.00012  -0.00108  -0.00096   2.09034
   A12        2.11037   0.00007  -0.00011   0.00124   0.00113   2.11150
   A13        2.07143   0.00023   0.00001   0.00065   0.00066   2.07209
   A14        2.10403  -0.00013   0.00005  -0.00080  -0.00075   2.10328
   A15        2.10772  -0.00010  -0.00006   0.00015   0.00009   2.10782
   A16        2.05851  -0.00009   0.00000  -0.00049  -0.00049   2.05801
   A17        2.12190   0.00007  -0.00008   0.00101   0.00093   2.12283
   A18        2.10277   0.00002   0.00008  -0.00052  -0.00043   2.10233
   A19        2.16118   0.00007   0.00008  -0.00019  -0.00011   2.16106
   A20        2.10334  -0.00028   0.00008  -0.00227  -0.00220   2.10115
   A21        2.01866   0.00021  -0.00016   0.00247   0.00230   2.02096
   A22        2.06367  -0.00020  -0.00014   0.00057   0.00044   2.06411
    D1       -1.59448  -0.00005   0.00055  -0.01384  -0.01329  -1.60777
    D2        1.53295  -0.00022   0.00017  -0.02155  -0.02139   1.51156
    D3        0.49834  -0.00005   0.00061  -0.01437  -0.01376   0.48458
    D4       -2.65743  -0.00023   0.00023  -0.02208  -0.02186  -2.67928
    D5        2.61954  -0.00004   0.00036  -0.01222  -0.01186   2.60767
    D6       -0.53623  -0.00021  -0.00002  -0.01993  -0.01996  -0.55619
    D7        3.11968  -0.00009  -0.00021  -0.00426  -0.00447   3.11521
    D8       -0.02338  -0.00010  -0.00014  -0.00517  -0.00531  -0.02869
    D9       -0.00697   0.00009   0.00019   0.00387   0.00406  -0.00292
   D10        3.13316   0.00008   0.00026   0.00295   0.00321   3.13637
   D11       -3.12183   0.00014   0.00025   0.00595   0.00620  -3.11562
   D12        0.00548  -0.00004  -0.00014  -0.00182  -0.00196   0.00352
   D13        0.00279  -0.00004  -0.00006  -0.00198  -0.00204   0.00075
   D14        3.14151  -0.00005  -0.00008  -0.00186  -0.00194   3.13957
   D15       -3.13732  -0.00004  -0.00013  -0.00105  -0.00118  -3.13851
   D16        0.00140  -0.00004  -0.00015  -0.00094  -0.00108   0.00031
   D17        0.00236  -0.00005  -0.00011  -0.00163  -0.00174   0.00062
   D18        3.13934  -0.00003  -0.00007  -0.00069  -0.00075   3.13859
   D19       -3.13635  -0.00005  -0.00009  -0.00175  -0.00184  -3.13820
   D20        0.00063  -0.00002  -0.00005  -0.00080  -0.00085  -0.00022
   D21       -0.00401   0.00011   0.00017   0.00386   0.00403   0.00002
   D22        3.13953  -0.00009  -0.00001  -0.00345  -0.00346   3.13607
   D23       -3.14105   0.00009   0.00012   0.00292   0.00305  -3.13800
   D24        0.00249  -0.00011  -0.00006  -0.00438  -0.00444  -0.00195
   D25        0.00009  -0.00007  -0.00004  -0.00213  -0.00217  -0.00208
   D26        3.13982   0.00013   0.00013   0.00486   0.00500  -3.13836
         Item               Value     Threshold  Converged?
 Maximum Force            0.000383     0.000450     YES
 RMS     Force            0.000131     0.000300     YES
 Maximum Displacement     0.027039     0.001800     NO 
 RMS     Displacement     0.007099     0.001200     NO 
 Predicted change in Energy=-1.165103D-05
 GradGradGradGradGradGradGradGradGradGradGradGradGradGradGradGradGradGrad

                          Input orientation:                          
 ---------------------------------------------------------------------
 Center     Atomic      Atomic             Coordinates (Angstroms)
 Number     Number       Type             X           Y           Z
 ---------------------------------------------------------------------
      1          6           0        0.975649   -2.140208    4.775570
      2          6           0        0.730878   -1.497818    3.436353
      3          6           0        1.646970   -0.593185    2.885786
      4          6           0        1.394290   -0.049085    1.632294
      5          6           0        0.232247   -0.422793    0.962556
      6          6           0       -0.620018   -1.327713    1.590694
      7          7           0       -0.386865   -1.855056    2.793876
      8          1           0        1.493817   -3.097424    4.646066
      9          1           0        1.593061   -1.507307    5.418939
     10          1           0        0.022228   -2.341867    5.268049
     11          1           0        2.541002   -0.325001    3.442020
     12          1           0        2.090239    0.656107    1.186669
     13          1           0       -0.013075   -0.025017   -0.016814
     14          1           0       -1.541723   -1.643434    1.105843
 ---------------------------------------------------------------------
                    Distance matrix (angstroms):
                    1          2          3          4          5
     1  C    0.000000
     2  C    1.505350   0.000000
     3  C    2.532831   1.400253   0.000000
     4  C    3.798452   2.406984   1.389652   0.000000
     5  C    4.247498   2.742988   2.393593   1.392318   0.000000
     6  C    3.653729   2.293538   2.712200   2.386222   1.392765
     7  N    2.421749   1.337813   2.395256   2.789859   2.405912
     8  H    1.096143   2.145744   3.064841   4.287784   4.723712
     9  H    1.093474   2.161966   2.693583   4.062585   4.784071
    10  H    1.091885   2.137688   3.372365   4.511996   4.718498
    11  H    2.742929   2.156869   1.086560   2.160135   3.389344
    12  H    4.684218   3.398284   2.155045   1.086381   2.160182
    13  H    5.330906   3.827137   3.391704   2.168137   1.085161
    14  H    4.477816   3.258404   3.799866   3.382199   2.158116
                    6          7          8          9         10
     6  C    0.000000
     7  N    1.334203   0.000000
     8  H    4.115273   2.917370   0.000000
     9  H    4.425543   3.306356   1.770778   0.000000
    10  H    3.868324   2.554579   1.767287   1.785154   0.000000
    11  H    3.798011   3.366536   3.198851   2.490913   3.707607
    12  H    3.382938   3.876222   5.139274   4.779085   5.470117
    13  H    2.156265   3.374721   5.783845   5.858692   5.770513
    14  H    1.088255   2.056194   4.884850   5.333685   4.500856
                   11         12         13         14
    11  H    0.000000
    12  H    2.500474   0.000000
    13  H    4.310086   2.517188   0.000000
    14  H    4.885144   4.299485   2.493270   0.000000
 Stoichiometry    C6H7N
 Framework group  C1[X(C6H7N)]
 Deg. of freedom    36
 Full point group                 C1      NOp   1
 Largest Abelian subgroup         C1      NOp   1
 Largest concise Abelian subgroup C1      NOp   1
                         Standard orientation:                         
 ---------------------------------------------------------------------
 Center     Atomic      Atomic             Coordinates (Angstroms)
 Number     Number       Type             X           Y           Z
 ---------------------------------------------------------------------
      1          6           0       -2.379714   -0.016413    0.008207
      2          6           0       -0.874610    0.000251   -0.013293
      3          6           0       -0.160872    1.204936   -0.008563
      4          6           0        1.228322    1.171143    0.002968
      5          6           0        1.867497   -0.065778    0.008552
      6          6           0        1.073533   -1.210053    0.001466
      7          7           0       -0.260440   -1.188248   -0.010354
      8          1           0       -2.741932   -0.071446    1.041309
      9          1           0       -2.798948    0.884498   -0.448180
     10          1           0       -2.746718   -0.898423   -0.520545
     11          1           0       -0.697300    2.149818   -0.016103
     12          1           0        1.802450    2.093421    0.004926
     13          1           0        2.949584   -0.147164    0.014776
     14          1           0        1.531003   -2.197484    0.000274
 ---------------------------------------------------------------------
 Rotational constants (GHZ):      5.7188587      2.6367335      1.8252033
 Standard basis: 6-31+G(d) (6D, 7F)
 There are   147 symmetry adapted cartesian basis functions of A   symmetry.
 There are   147 symmetry adapted basis functions of A   symmetry.
   147 basis functions,   252 primitive gaussians,   147 cartesian basis functions
    25 alpha electrons       25 beta electrons
       nuclear repulsion energy       272.8609663966 Hartrees.
 NAtoms=   14 NActive=   14 NUniq=   14 SFac= 1.00D+00 NAtFMM=   60 NAOKFM=F Big=F
 Integral buffers will be    131072 words long.
 Raffenetti 2 integral format.
 Two-electron integral symmetry is turned on.
 One-electron integrals computed using PRISM.
 NBasis=   147 RedAO= T EigKep=  1.31D-05  NBF=   147
 NBsUse=   147 1.00D-06 EigRej= -1.00D+00 NBFU=   147
 Initial guess from the checkpoint file:  "/srv/scratch/z5358697/gauss/Gau-4098047.chk"
 B after Tr=     0.000000    0.000000    0.000000
         Rot=    1.000000   -0.000515   -0.000043   -0.000117 Ang=  -0.06 deg.
 ExpMin= 4.38D-02 ExpMax= 4.17D+03 ExpMxC= 6.27D+02 IAcc=2 IRadAn=         4 AccDes= 0.00D+00
 Harris functional with IExCor= 1009 and IRadAn=       4 diagonalized for initial guess.
 HarFok:  IExCor= 1009 AccDes= 0.00D+00 IRadAn=         4 IDoV= 1 UseB2=F ITyADJ=14
 ICtDFT=  3500011 ScaDFX=  1.000000  1.000000  1.000000  1.000000
 FoFCou: FMM=F IPFlag=           0 FMFlag=      100000 FMFlg1=           0
         NFxFlg=           0 DoJE=T BraDBF=F KetDBF=T FulRan=T
         wScrn=  0.000000 ICntrl=     500 IOpCl=  0 I1Cent=   200000004 NGrid=           0
         NMat0=    1 NMatS0=      1 NMatT0=    0 NMatD0=    1 NMtDS0=    0 NMtDT0=    0
 Petite list used in FoFCou.
 Requested convergence on RMS density matrix=1.00D-08 within 128 cycles.
 Requested convergence on MAX density matrix=1.00D-06.
 Requested convergence on             energy=1.00D-06.
 No special actions if energy rises.
 SCF Done:  E(RM062X) =  -287.480305758     A.U. after   10 cycles
            NFock= 10  Conv=0.77D-08     -V/T= 2.0088
 Calling FoFJK, ICntrl=      2127 FMM=F ISym2X=0 I1Cent= 0 IOpClX= 0 NMat=1 NMatS=1 NMatT=0.
 ***** Axes restored to original set *****
 -------------------------------------------------------------------
 Center     Atomic                   Forces (Hartrees/Bohr)
 Number     Number              X              Y              Z
 -------------------------------------------------------------------
      1        6           0.000021472    0.000008455   -0.000097927
      2        6           0.000662739    0.000203138   -0.000285627
      3        6          -0.000029380    0.000001797    0.000553032
      4        6          -0.000239134   -0.000029553   -0.000258691
      5        6           0.000114643    0.000036035   -0.000048613
      6        6          -0.000007491    0.000424955   -0.000142333
      7        7          -0.000435572   -0.000633643    0.000162085
      8        1          -0.000186293   -0.000054157   -0.000027610
      9        1           0.000012069   -0.000028667    0.000010215
     10        1           0.000035027    0.000084723    0.000302255
     11        1          -0.000059613    0.000029987   -0.000140218
     12        1           0.000021556    0.000059993   -0.000076411
     13        1           0.000043692   -0.000005939    0.000021943
     14        1           0.000046286   -0.000097124    0.000027900
 -------------------------------------------------------------------
 Cartesian Forces:  Max     0.000662739 RMS     0.000219692

 GradGradGradGradGradGradGradGradGradGradGradGradGradGradGradGradGradGrad
 Berny optimization.
 Using GEDIIS/GDIIS optimizer.
 FormGI is forming the generalized inverse of G from B-inverse, IUseBI=4.
 Internal  Forces:  Max     0.000426745 RMS     0.000120920
 Search for a local minimum.
 Step number   4 out of a maximum of   72
 All quantities printed in internal units (Hartrees-Bohrs-Radians)
 Mixed Optimization -- En-DIIS/RFO-DIIS
 Swapping is turned off.
 Update second derivatives using D2CorX and points    1    2    3    4
 DE= -1.62D-05 DEPred=-1.17D-05 R= 1.39D+00
 TightC=F SS=  1.41D+00  RLast= 4.57D-02 DXNew= 6.2579D-01 1.3708D-01
 Trust test= 1.39D+00 RLast= 4.57D-02 DXMaxT set to 3.72D-01
 ITU=  1  1  1  0
     Eigenvalues ---    0.00224   0.01932   0.02216   0.02233   0.02249
     Eigenvalues ---    0.02253   0.02279   0.02315   0.03489   0.07255
     Eigenvalues ---    0.07450   0.15802   0.15987   0.16000   0.16000
     Eigenvalues ---    0.16000   0.16339   0.18061   0.22024   0.23000
     Eigenvalues ---    0.24407   0.25683   0.34189   0.34259   0.34422
     Eigenvalues ---    0.34939   0.35368   0.35391   0.35517   0.36795
     Eigenvalues ---    0.44378   0.44746   0.47663   0.48132   0.53654
     Eigenvalues ---    0.53982
 En-DIIS/RFO-DIIS IScMMF=        0 using points:     4    3    2
 RFO step:  Lambda=-3.06883651D-06.
 DidBck=F Rises=F RFO-DIIS coefs:    1.64061   -0.55001   -0.09060
 Iteration  1 RMS(Cart)=  0.01958333 RMS(Int)=  0.00037560
 Iteration  2 RMS(Cart)=  0.00038758 RMS(Int)=  0.00000329
 Iteration  3 RMS(Cart)=  0.00000011 RMS(Int)=  0.00000329
 Variable       Old X    -DE/DX   Delta X   Delta X   Delta X     New X
                                 (Linear)    (Quad)   (Total)
    R1        2.84470   0.00014  -0.00123  -0.00022  -0.00145   2.84325
    R2        2.07141  -0.00004   0.00036   0.00024   0.00060   2.07201
    R3        2.06637  -0.00001  -0.00050  -0.00062  -0.00112   2.06524
    R4        2.06336   0.00010  -0.00008   0.00033   0.00025   2.06361
    R5        2.64610  -0.00008   0.00016   0.00023   0.00039   2.64649
    R6        2.52810   0.00043  -0.00045   0.00063   0.00018   2.52828
    R7        2.62606   0.00026  -0.00061   0.00026  -0.00035   2.62571
    R8        2.05330  -0.00011   0.00027  -0.00022   0.00004   2.05334
    R9        2.63110  -0.00019  -0.00004  -0.00076  -0.00081   2.63029
   R10        2.05296   0.00009  -0.00023   0.00020  -0.00003   2.05293
   R11        2.63194   0.00005   0.00056   0.00084   0.00141   2.63335
   R12        2.05066  -0.00003   0.00000  -0.00012  -0.00012   2.05054
   R13        2.52128   0.00033  -0.00098  -0.00021  -0.00118   2.52010
   R14        2.05650  -0.00003  -0.00003  -0.00010  -0.00012   2.05638
    A1        1.92241  -0.00006  -0.00088  -0.00111  -0.00200   1.92041
    A2        1.94792   0.00000  -0.00003  -0.00002  -0.00005   1.94787
    A3        1.91568   0.00028  -0.00147   0.00107  -0.00041   1.91528
    A4        1.88393   0.00006   0.00003   0.00061   0.00064   1.88457
    A5        1.88050  -0.00010  -0.00022  -0.00129  -0.00152   1.87898
    A6        1.91193  -0.00019   0.00263   0.00068   0.00331   1.91524
    A7        2.11661   0.00004   0.00014   0.00067   0.00079   2.11740
    A8        2.03660  -0.00014   0.00026  -0.00064  -0.00039   2.03621
    A9        2.12975   0.00010  -0.00045  -0.00003  -0.00048   2.12927
   A10        2.08135  -0.00002  -0.00007  -0.00001  -0.00008   2.08127
   A11        2.09034   0.00010  -0.00113  -0.00038  -0.00152   2.08882
   A12        2.11150  -0.00009   0.00121   0.00039   0.00160   2.11309
   A13        2.07209   0.00006   0.00038   0.00036   0.00074   2.07282
   A14        2.10328   0.00001  -0.00070  -0.00030  -0.00100   2.10227
   A15        2.10782  -0.00007   0.00033  -0.00006   0.00027   2.10808
   A16        2.05801   0.00001  -0.00030  -0.00045  -0.00076   2.05725
   A17        2.12283  -0.00006   0.00095   0.00055   0.00149   2.12433
   A18        2.10233   0.00005  -0.00064  -0.00009  -0.00073   2.10160
   A19        2.16106   0.00014  -0.00040   0.00060   0.00019   2.16125
   A20        2.10115  -0.00001  -0.00175  -0.00179  -0.00355   2.09760
   A21        2.02096  -0.00012   0.00215   0.00120   0.00334   2.02431
   A22        2.06411  -0.00029   0.00086  -0.00047   0.00039   2.06450
    D1       -1.60777  -0.00016  -0.01087  -0.03735  -0.04822  -1.65598
    D2        1.51156  -0.00011  -0.01442  -0.03750  -0.05191   1.45965
    D3        0.48458  -0.00013  -0.01144  -0.03733  -0.04877   0.43580
    D4       -2.67928  -0.00008  -0.01499  -0.03748  -0.05247  -2.73175
    D5        2.60767  -0.00018  -0.00915  -0.03574  -0.04489   2.56278
    D6       -0.55619  -0.00013  -0.01269  -0.03590  -0.04859  -0.60477
    D7        3.11521   0.00002  -0.00195  -0.00067  -0.00262   3.11259
    D8       -0.02869   0.00003  -0.00279  -0.00050  -0.00329  -0.03198
    D9       -0.00292  -0.00003   0.00177  -0.00050   0.00127  -0.00164
   D10        3.13637  -0.00002   0.00093  -0.00033   0.00060   3.13697
   D11       -3.11562  -0.00005   0.00292  -0.00007   0.00285  -3.11277
   D12        0.00352   0.00000  -0.00064  -0.00022  -0.00085   0.00267
   D13        0.00075   0.00002  -0.00106   0.00036  -0.00070   0.00005
   D14        3.13957   0.00002  -0.00092   0.00033  -0.00059   3.13899
   D15       -3.13851   0.00001  -0.00021   0.00019  -0.00002  -3.13853
   D16        0.00031   0.00001  -0.00007   0.00016   0.00010   0.00041
   D17        0.00062   0.00002  -0.00063   0.00043  -0.00019   0.00043
   D18        3.13859   0.00002  -0.00019   0.00077   0.00058   3.13917
   D19       -3.13820   0.00002  -0.00077   0.00047  -0.00031  -3.13850
   D20       -0.00022   0.00002  -0.00034   0.00080   0.00046   0.00024
   D21        0.00002  -0.00005   0.00185  -0.00121   0.00064   0.00066
   D22        3.13607   0.00005  -0.00216   0.00093  -0.00122   3.13485
   D23       -3.13800  -0.00005   0.00142  -0.00154  -0.00013  -3.13812
   D24       -0.00195   0.00005  -0.00259   0.00060  -0.00199  -0.00394
   D25       -0.00208   0.00004  -0.00121   0.00109  -0.00012  -0.00220
   D26       -3.13836  -0.00006   0.00263  -0.00095   0.00169  -3.13667
         Item               Value     Threshold  Converged?
 Maximum Force            0.000427     0.000450     YES
 RMS     Force            0.000121     0.000300     YES
 Maximum Displacement     0.073400     0.001800     NO 
 RMS     Displacement     0.019584     0.001200     NO 
 Predicted change in Energy=-1.874894D-05
 GradGradGradGradGradGradGradGradGradGradGradGradGradGradGradGradGradGrad

                          Input orientation:                          
 ---------------------------------------------------------------------
 Center     Atomic      Atomic             Coordinates (Angstroms)
 Number     Number       Type             X           Y           Z
 ---------------------------------------------------------------------
      1          6           0        0.976485   -2.140303    4.775243
      2          6           0        0.730866   -1.496482    3.437733
      3          6           0        1.643231   -0.586440    2.889366
      4          6           0        1.390462   -0.043892    1.635424
      5          6           0        0.233254   -0.424245    0.961951
      6          6           0       -0.615183   -1.335362    1.587959
      7          7           0       -0.382419   -1.860853    2.791333
      8          1           0        1.454975   -3.117464    4.639499
      9          1           0        1.630196   -1.528793    5.402220
     10          1           0        0.025143   -2.305335    5.285356
     11          1           0        2.533567   -0.313653    3.449320
     12          1           0        2.083746    0.665639    1.192584
     13          1           0       -0.012395   -0.028807   -0.018213
     14          1           0       -1.533230   -1.653810    1.098125
 ---------------------------------------------------------------------
                    Distance matrix (angstroms):
[...]
 RMS     Force            0.000006     0.000300     YES
 Maximum Displacement     0.000694     0.001800     YES
 RMS     Displacement     0.000246     0.001200     YES
 Predicted change in Energy=-1.492781D-08
 Optimization completed.
    -- Stationary point found.
                           ----------------------------
                           !   Optimized Parameters   !
                           ! (Angstroms and Degrees)  !
 --------------------------                            --------------------------
 ! Name  Definition              Value          Derivative Info.                !
 --------------------------------------------------------------------------------
 ! R1    R(1,2)                  1.505          -DE/DX =    0.0                 !
 ! R2    R(1,8)                  1.0944         -DE/DX =    0.0                 !
 ! R3    R(1,9)                  1.093          -DE/DX =    0.0                 !
 ! R4    R(1,10)                 1.0943         -DE/DX =    0.0                 !
 ! R5    R(2,3)                  1.3986         -DE/DX =    0.0                 !
 ! R6    R(2,7)                  1.3397         -DE/DX =    0.0                 !
 ! R7    R(3,4)                  1.3914         -DE/DX =    0.0                 !
 ! R8    R(3,11)                 1.0861         -DE/DX =    0.0                 !
 ! R9    R(4,5)                  1.3908         -DE/DX =    0.0                 !
 ! R10   R(4,12)                 1.0865         -DE/DX =    0.0                 !
 ! R11   R(5,6)                  1.3942         -DE/DX =    0.0                 !
 ! R12   R(5,13)                 1.0851         -DE/DX =    0.0                 !
 ! R13   R(6,7)                  1.3329         -DE/DX =    0.0                 !
 ! R14   R(6,14)                 1.0883         -DE/DX =    0.0                 !
 ! A1    A(2,1,8)              109.983          -DE/DX =    0.0                 !
 ! A2    A(2,1,9)              111.7109         -DE/DX =    0.0                 !
 ! A3    A(2,1,10)             109.9616         -DE/DX =    0.0                 !
 ! A4    A(8,1,9)              108.8474         -DE/DX =    0.0                 !
 ! A5    A(8,1,10)             107.3418         -DE/DX =    0.0                 !
 ! A6    A(9,1,10)             108.8841         -DE/DX =    0.0                 !
 ! A7    A(1,2,3)              121.7397         -DE/DX =    0.0                 !
 ! A8    A(1,2,7)              116.1954         -DE/DX =    0.0                 !
 ! A9    A(3,2,7)              122.0649         -DE/DX =    0.0                 !
 ! A10   A(2,3,4)              119.2155         -DE/DX =    0.0                 !
 ! A11   A(2,3,11)             119.8942         -DE/DX =    0.0                 !
 ! A12   A(4,3,11)             120.8903         -DE/DX =    0.0                 !
 ! A13   A(3,4,5)              118.7525         -DE/DX =    0.0                 !
 ! A14   A(3,4,12)             120.4762         -DE/DX =    0.0                 !
 ! A15   A(5,4,12)             120.7713         -DE/DX =    0.0                 !
 ! A16   A(4,5,6)              117.899          -DE/DX =    0.0                 !
 ! A17   A(4,5,13)             121.6423         -DE/DX =    0.0                 !
 ! A18   A(6,5,13)             120.4587         -DE/DX =    0.0                 !
 ! A19   A(5,6,7)              123.8485         -DE/DX =    0.0                 !
 ! A20   A(5,6,14)             120.3524         -DE/DX =    0.0                 !
 ! A21   A(7,6,14)             115.799          -DE/DX =    0.0                 !
 ! A22   A(2,7,6)              118.2196         -DE/DX =    0.0                 !
 ! D1    D(8,1,2,3)           -120.0515         -DE/DX =    0.0                 !
 ! D2    D(8,1,2,7)             59.9184         -DE/DX =    0.0                 !
 ! D3    D(9,1,2,3)              0.9311         -DE/DX =    0.0                 !
 ! D4    D(9,1,2,7)           -179.099          -DE/DX =    0.0                 !
 ! D5    D(10,1,2,3)           121.9456         -DE/DX =    0.0                 !
 ! D6    D(10,1,2,7)           -58.0845         -DE/DX =    0.0                 !
 ! D7    D(1,2,3,4)            179.9653         -DE/DX =    0.0                 !
 ! D8    D(1,2,3,11)            -0.0357         -DE/DX =    0.0                 !
 ! D9    D(7,2,3,4)             -0.0028         -DE/DX =    0.0                 !
 ! D10   D(7,2,3,11)           179.9961         -DE/DX =    0.0                 !
 ! D11   D(1,2,7,6)           -179.9664         -DE/DX =    0.0                 !
 ! D12   D(3,2,7,6)              0.0034         -DE/DX =    0.0                 !
 ! D13   D(2,3,4,5)              0.0068         -DE/DX =    0.0                 !
 ! D14   D(2,3,4,12)           179.9934         -DE/DX =    0.0                 !
 ! D15   D(11,3,4,5)          -179.9921         -DE/DX =    0.0                 !
 ! D16   D(11,3,4,12)           -0.0056         -DE/DX =    0.0                 !
 ! D17   D(3,4,5,6)             -0.0113         -DE/DX =    0.0                 !
 ! D18   D(3,4,5,13)           179.978          -DE/DX =    0.0                 !
 ! D19   D(12,4,5,6)          -179.9978         -DE/DX =    0.0                 !
 ! D20   D(12,4,5,13)           -0.0085         -DE/DX =    0.0                 !
 ! D21   D(4,5,6,7)              0.0126         -DE/DX =    0.0                 !
 ! D22   D(4,5,6,14)           179.9905         -DE/DX =    0.0                 !
 ! D23   D(13,5,6,7)          -179.9768         -DE/DX =    0.0                 !
 ! D24   D(13,5,6,14)            0.0011         -DE/DX =    0.0                 !
 ! D25   D(5,6,7,2)             -0.0085         -DE/DX =    0.0                 !
 ! D26   D(14,6,7,2)          -179.9874         -DE/DX =    0.0                 !
 --------------------------------------------------------------------------------
 GradGradGradGradGradGradGradGradGradGradGradGradGradGradGradGradGradGrad

 1\1\GINC-KATANA3\Freq\RM062X\6-31+G(d)\C6H7N1\Z5358697\21-Mar-2025\0\\
 #N Geom=AllCheck Guess=TCheck SCRF=Check GenChk RM062X/6-31+G(d) Freq\
 \2-methylpyridine\\0,1\C,0.9816001045,-2.1491484348,4.7703046544\C,0.7
 515506878,-1.5140494154,3.4253669158\C,1.619679514,-0.5457780073,2.910
 79737\C,1.3570817469,0.0063877243,1.6609168746\C,0.2349040377,-0.42462
 40391,0.9615264345\C,-0.5715882795,-1.3942065153,1.5558451251\N,-0.329
 5482786,-1.9297732489,2.7521978569\H,1.0992530507,-3.2313403578,4.6576
 679363\H,1.8714526813,-1.7463943142,5.2607227923\H,0.1144540121,-1.980
 8011577,5.4161666684\H,2.4861370687,-0.2345544983,3.4869874789\H,2.017
 8145654,0.7601174113,1.241622509\H,-0.014501257,-0.0255571261,-0.01622
 26756\H,-1.4595896539,-1.7600780206,1.0440000594\\Version=ES64L-G09Rev
 D.01\State=1-A\HF=-287.4805097\RMSD=1.064e-09\RMSF=1.374e-05\ZeroPoint
 =0.1172636\Thermal=0.1224664\Dipole=0.5332153,0.5196547,-0.1926479\Dip
 oleDeriv=0.1062163,-0.0079616,0.0735433,0.0459562,-0.0012814,0.159994,
 -0.0143671,0.0865438,-0.1016717,0.0913968,0.0578497,-0.0335023,-0.0385
 984,0.2346816,-0.3698528,0.1268037,-0.2463308,0.6082123,-0.013588,-0.0
 187644,0.1682519,0.0857627,-0.214497,0.2601414,-0.0053298,0.1286371,-0
 .3428346,0.1278869,0.1072579,0.1083411,0.1173299,0.0468126,-0.0941853,
 0.0916564,-0.1072864,0.1947165,-0.283272,-0.051954,-0.1042637,-0.14466
 93,-0.1600747,-0.135804,0.049658,-0.0189168,-0.037796,0.2955253,0.1153
 757,0.1899239,0.2248477,0.1441875,0.0312846,0.0083264,-0.1068059,0.180
 6835,-0.405665,-0.0112883,-0.1314473,-0.06021,-0.3682165,0.0609507,-0.
 0504839,0.1226195,-0.5536018,0.0815141,0.0254996,-0.0301284,0.0277576,
 -0.0796062,0.0252841,-0.0079022,-0.0227544,0.0143653,-0.0583047,-0.041
 7298,-0.1065841,-0.0867019,0.0357575,-0.0438012,-0.032169,0.0152106,0.
 0104048,-0.0247126,0.028986,0.073756,0.0374908,0.0749969,-0.0100406,0.
 0324639,0.0257722,-0.0320478,-0.00129,-0.052973,-0.0853851,-0.0511571,
 0.0991458,-0.0030021,-0.0886626,-0.0052313,0.0327407,0.0337113,-0.0882
 377,0.0275891,-0.0858742,0.0250211,0.0630182,0.0235222,0.0599665,0.058
 0281,0.0861222,-0.01443,-0.0518819,-0.013264,0.0930146,0.0718049,-0.05
 38846,0.070294,-0.0385802,-0.0355406,-0.04763,-0.0982126,-0.0586701,0.
 0700584,-0.0157919,-0.0796314,-0.0017183,0.0073809\Polar=69.1640023,12
 .2386359,63.2904616,10.2108996,-15.0207664,82.7473876\PG=C01 [X(C6H7N1
 )]\NImag=1\\0.59174547,0.02223873,0.55781929,0.00725316,0.02587018,0.5
 2354938,-0.08314929,0.00258998,-0.01514282,0.54004013,0.00339583,-0.10
 998414,0.06329549,0.19068192,0.43908115,-0.01651951,0.06205953,-0.1987
 9092,0.11142926,-0.15620531,0.60049044,0.00836516,0.00009833,-0.001875
 60,-0.18584118,-0.12085554,0.06037511,0.56779976,-0.01111567,-0.004718
 33,0.00978570,-0.08406543,-0.19419203,0.09312732,0.22631325,0.40220216
 ,0.01674803,0.02393704,-0.00899856,-0.00091890,0.04659178,-0.15305961,
 0.17316187,-0.16283975,0.62188447,-0.00096703,-0.00579628,-0.00178972,
 0.05395764,0.02187941,0.02327790,-0.12276484,-0.02720440,-0.02915354,0
 .56495681,-0.00545665,0.00266061,0.00218752,-0.00484089,-0.01264755,0.
 02597028,0.00506205,-0.13534323,0.12536223,0.24883816,0.44911936,-0.00
 245897,0.00160188,0.00210638,0.06776929,0.05974153,-0.00711286,-0.0828
 4274,0.08462137,-0.30907219,0.11563014,-0.19083708,0.60874634,0.000832
 23,0.00058452,0.00081286,-0.06487933,-0.03639990,-0.00798921,0.0120739
 7,0.04340646,-0.06534859,-0.26675360,-0.10304639,-0.08425655,0.5310036
 7,0.00083259,-0.00047540,0.00103054,-0.04403368,-0.03670760,-0.0122280
 6,0.02089901,0.04132075,-0.03137492,-0.07086053,-0.12172848,0.00624982
 ,0.20944968,0.40831206,0.00030347,0.00070754,-0.00120099,0.00476828,-0
 .00259063,-0.00033973,-0.02785178,-0.00290863,-0.02370279,-0.13776897,
 -0.03437767,-0.18086140,0.15767514,-0.19829446,0.65856828,-0.00127540,
 -0.00590885,-0.00228244,-0.00382689,0.01877974,-0.03855315,-0.00889496
 ,-0.00660973,0.01206528,-0.03280984,-0.02505390,-0.00973967,-0.1922500
 3,-0.12868399,0.06065301,0.59332107,-0.00481795,0.00440625,0.00031895,
 0.04924582,0.03751105,0.00321125,-0.01327583,-0.04051501,0.03447006,-0
 .05139513,-0.00423756,-0.04467870,-0.09269879,-0.20018024,0.09816129,0
 .23090376,0.42736746,-0.00388816,-0.00090649,0.00480989,-0.08929204,-0
 .03537751,-0.05191953,0.02315351,0.04285064,-0.05184328,0.03410196,-0.
 01141065,0.06992018,0.00080849,0.05275974,-0.15741231,0.16137158,-0.15
 132769,0.61636254,-0.01181605,0.00169293,-0.01568006,-0.25349141,-0.06
 850392,-0.11288887,-0.04348207,-0.06478133,0.02319783,-0.03418416,0.00
 739270,-0.04339378,0.06089109,0.02228858,0.00899508,-0.11997411,-0.017
 81028,-0.03775575,0.40657667,0.01368475,0.00613038,0.00439708,-0.08942
 027,-0.12425695,-0.02890911,-0.03326269,0.00367489,-0.00897008,0.00788
 304,-0.00368038,0.00018216,-0.01097397,-0.00559970,0.03598825,0.001449
 48,-0.13788603,0.12036398,0.11553731,0.25665265,-0.03557399,-0.0108499
 1,-0.02874317,-0.07797879,-0.00234524,-0.16827358,-0.02929845,-0.04882
 103,0.06781852,-0.04426720,-0.00042526,-0.06471692,0.06442720,0.078036
 66,-0.02412793,-0.06979008,0.09601973,-0.31431762,0.20268834,-0.125086
 92,0.55757277,-0.04947930,0.02930738,0.00117383,-0.00114187,0.00356141
 ,0.00176988,-0.00033988,-0.00017774,0.00041680,-0.00023392,0.00006957,
 0.00018540,0.00002069,0.00029455,-0.00016742,0.00001392,-0.00025447,0.
 00043182,0.00025556,-0.00037932,-0.00118874,0.04865343,0.03005227,-0.3
 1415220,-0.03179090,0.00064304,-0.01317085,0.00072454,0.00103147,-0.00
 027582,0.00191826,-0.00085167,0.00022084,0.00008078,0.00056472,0.00048
 983,-0.00023252,-0.00049550,-0.00000612,0.00167850,-0.00116203,0.00104
 646,-0.00216694,-0.03209308,0.33997349,0.00091270,-0.03066246,-0.04845
 414,-0.00368000,0.03345383,0.00190161,-0.00091484,0.00033496,-0.003127
 01,0.00125052,-0.00060439,-0.00070876,-0.00032761,0.00010028,-0.000124
 93,0.00082237,-0.00054714,-0.00062339,0.00124643,-0.00050884,0.0016770
 5,-0.00315431,0.03151127,0.05393826,-0.23108337,-0.08310867,-0.0998756
 7,-0.00383305,-0.00166233,0.00162920,-0.00000825,-0.00057486,0.0012153
 9,0.00004539,0.00028359,-0.00008793,0.00014712,0.00024102,-0.00012361,
 0.00035864,-0.00039141,0.00039560,0.00001117,0.00014099,-0.00244014,0.
 00441650,0.00184552,0.00316178,0.24814435,-0.08542847,-0.08827975,-0.0
 4559855,0.01312671,0.00464472,0.00464332,0.00047991,0.00008572,0.00013
 433,0.00026662,0.00005753,-0.00010147,-0.00003249,-0.00005746,-0.00006
 266,0.00047536,0.00052747,0.00059637,0.00040827,-0.00014241,0.00357596
 ,-0.02750776,-0.00930712,-0.01388114,0.09308405,0.09123031,-0.09599649
 ,-0.04257163,-0.10312836,-0.02278000,-0.01460847,-0.00830950,-0.000573
 54,-0.00118810,0.00112723,-0.00010732,-0.00010177,-0.00015983,0.000349
 39,0.00030259,-0.00014001,-0.00102948,-0.00048578,0.00014941,-0.002799
 22,0.00321937,-0.00728318,-0.00192506,-0.00101760,-0.00225795,0.108696
 20,0.04666234,0.11020444,-0.22177466,0.03531953,0.12686695,0.00579218,
 -0.00269778,-0.00369371,0.00006373,0.00010376,0.00028838,-0.00022819,0
 .00001797,-0.00014762,0.00040110,0.00039596,-0.00039129,0.00031786,-0.
 00073704,0.00093541,-0.00037414,0.00069998,-0.00126838,-0.00260457,-0.
 00006419,0.00103647,-0.01877555,0.00540111,0.01544353,0.23715424,0.034
 51281,-0.05075964,-0.02688719,-0.01329143,0.00093992,0.01155166,0.0008
 9900,-0.00108140,0.00177060,0.00022926,-0.00111897,-0.00025878,0.00013
 289,0.00016356,-0.00005079,0.00025011,-0.00077651,0.00007317,-0.001115
 10,0.00075979,-0.00147349,0.02750497,-0.00446038,-0.01979997,-0.009963
 67,0.00139113,0.00875812,-0.03885335,0.05439615,0.12704550,-0.02773998
 ,-0.14047065,0.02399927,-0.00377954,-0.01932965,-0.00174231,0.00078144
 ,-0.00284853,-0.00002016,0.00121887,0.00063973,-0.00032223,-0.00042967
 ,-0.00019811,-0.00057290,0.00137243,-0.00011077,0.00063501,0.00016309,
 0.00272788,0.00262146,-0.00059193,-0.00227645,-0.01259935,0.00351931,0
 .01026342,-0.13925345,0.02577188,0.15201421,-0.00107996,0.00202610,0.0
 0010281,-0.01091470,-0.00199363,-0.01283135,-0.23423125,-0.07466664,-0
 .12534263,-0.00023133,-0.00186240,-0.00096616,0.00397317,-0.00190841,-
 0.00218856,0.00056951,-0.00029906,0.00144716,-0.00027118,-0.00587017,0
 .00023576,0.00035007,0.00029679,-0.00014522,0.00058382,-0.00031156,0.0
 0067283,0.00013291,-0.00021287,0.00021613,0.24255302,0.00119108,-0.001
 75113,-0.00205833,-0.01515072,-0.00127995,-0.01387473,-0.07423424,-0.0
 7121253,-0.03609692,0.01149943,0.00755790,0.00692493,-0.00226513,0.003
 49188,0.00499912,0.00038832,-0.00083356,0.00157348,-0.00669633,0.00017
 506,0.00335008,-0.00014872,-0.00009729,0.00040581,-0.00003338,-0.00005
 248,0.00085278,0.00029679,0.00042196,-0.00018548,0.08226116,0.06583733
 ,0.00165111,-0.00091200,-0.00025859,0.00902136,0.00274193,0.00869865,-
 0.12607725,-0.03665343,-0.13481024,-0.02319454,-0.00994777,-0.00972898
 ,-0.00160130,0.00544446,-0.00286100,0.00030381,0.00071333,-0.00098848,
 0.00163502,0.00440129,0.00202616,-0.00013017,-0.00017770,0.00017284,0.
 00015839,0.00046370,-0.00012914,0.00002174,0.00026129,-0.00009696,0.13
 756652,0.03627883,0.13857017,-0.00000087,0.00044938,0.00003942,0.00347
 644,-0.00194563,-0.00369484,0.00862840,0.00438280,-0.00337907,-0.16119
 821,-0.12754064,0.06265046,-0.00914242,-0.01823653,0.01172637,-0.00107
 182,-0.00402202,-0.00577371,-0.00127913,0.00187422,0.00040727,0.000021
 27,0.00004705,-0.00007921,-0.00000428,-0.00000527,0.00001445,-0.000011
 64,-0.00004261,-0.00000691,-0.00082426,0.00171876,0.00148332,0.1626864
 5,-0.00019466,-0.00058583,-0.00030947,-0.00168846,0.00492614,0.0045908
 9,-0.00882933,-0.00328994,0.00352681,-0.12757155,-0.18920605,0.0823826
 0,-0.00501680,-0.00140446,0.00529664,-0.00435546,0.00506105,0.00072615
 ,0.00188750,-0.00182946,-0.00134654,-0.00005220,-0.00010472,0.00019139
 ,0.00002218,0.00001772,-0.00001627,0.00001438,-0.00001527,0.00007783,0
 .00205321,-0.00182029,-0.00147091,0.14185347,0.19062450,0.00112431,0.0
 0049657,-0.00005216,-0.00412903,0.00427987,-0.00334526,0.01858047,0.02
 020532,-0.00460810,0.06270283,0.08241471,-0.10071714,-0.01025372,-0.01
 138743,0.01158074,-0.00521765,0.00114931,0.00030869,0.00038973,-0.0013
 6377,-0.00131435,-0.00002541,0.00012066,-0.00020057,-0.00003249,-0.000
 05013,0.00003256,0.00000367,0.00019526,-0.00027236,0.00092862,-0.00189
 349,0.00005717,-0.06523887,-0.09218437,0.09844105,-0.00022038,0.000691
 66,0.00043389,-0.00162237,-0.00093072,-0.00033874,-0.00162576,-0.00507
 889,-0.00358733,-0.00062476,0.01137929,-0.02313524,-0.06778327,0.01490
 882,-0.06490656,0.00905324,-0.00472058,0.01815062,0.00055282,-0.006054
 45,0.00095362,0.00004236,0.00016752,-0.00012402,0.00004441,-0.00001240
 ,0.00011787,-0.00005797,-0.00005864,0.00004116,0.00001989,0.00048388,-
 0.00125696,-0.00049863,0.00182908,0.00161835,0.06343113,0.00077750,-0.
 00065074,-0.00038196,-0.00135988,-0.00066151,-0.00083172,-0.00477842,0
 .00374123,0.00089872,-0.00198559,0.00762179,-0.01064671,0.01475775,-0.
 08711402,0.10361497,0.00938671,-0.00331570,0.01881881,-0.00573185,0.00
 067858,0.00456980,-0.00008284,-0.00013249,0.00006044,0.00006842,-0.000
 02132,0.00006807,0.00008842,0.00011925,-0.00019195,-0.00027755,0.00045
 574,-0.00048310,0.00218372,-0.00183820,-0.00115533,-0.01433311,0.08252
 168,0.00028751,-0.00051125,-0.00027193,0.00037072,-0.00027961,0.000807
 66,-0.00408977,0.00051841,0.00189151,-0.00093585,0.00620868,-0.0087768
 2,-0.06464900,0.10380251,-0.29002310,-0.00528776,0.00103199,-0.0075019
 2,0.00041885,0.00416841,0.00137797,0.00000417,-0.00007845,0.00009122,-
 0.00002595,-0.00003449,-0.00000524,0.00010107,0.00008181,-0.00005364,0
 .00001000,0.00047964,-0.00040898,0.00102921,-0.00160380,-0.00022800,0.
 07165488,-0.11283200,0.30340555,-0.00009654,-0.00018476,-0.00003660,0.
 00543369,-0.00330888,-0.00197197,0.00025716,0.00006842,0.00063648,0.00
 103604,-0.00524246,0.00079338,-0.00853436,-0.00558708,-0.01072315,-0.2
 4353120,-0.08972702,-0.10408648,-0.00341505,0.00469110,-0.00690643,0.0
 0002574,0.00001808,-0.00000506,-0.00004691,0.00005593,-0.00008317,-0.0
 0003530,0.00000862,-0.00004123,-0.00062970,0.00068910,0.00041897,-0.00
 078131,0.00004864,-0.00045080,-0.00071070,0.00128672,0.00111192,0.2510
 2845,0.00032783,0.00034064,0.00014094,-0.00243671,0.00579760,0.0061701
 5,0.00045304,-0.00039645,0.00067183,-0.00493078,0.00072419,0.00473768,
 -0.01846255,-0.00051074,-0.01025044,-0.09052605,-0.08712256,-0.0404185
 1,0.01659355,0.00427712,0.00696309,-0.00004177,-0.00002363,-0.00005404
 ,0.00004855,-0.00009404,0.00012636,0.00001445,0.00002040,0.00001369,0.
 00076503,-0.00089264,-0.00065994,-0.00071671,-0.00053519,-0.00082717,0
 .00172855,-0.00140430,-0.00095186,0.09718358,0.07981961,-0.00088866,-0
 .00051902,-0.00009618,-0.00343659,0.00508187,-0.00141773,-0.00000467,0
 .00018578,-0.00065140,0.00027394,0.00434231,0.00044227,0.01067514,0.00
 598794,0.01084328,-0.10274293,-0.03940904,-0.10683341,-0.02668861,-0.0
 0804490,-0.02442360,-0.00001224,0.00002203,-0.00000778,-0.00007142,0.0
 0013312,-0.00036384,0.00005723,0.00000642,0.00001187,0.00029409,-0.000
 75572,-0.00024262,0.00082212,0.00013905,0.00031773,0.00037846,-0.00150
 806,-0.00030428,0.12134413,0.03433821,0.12272569\\-0.00001401,-0.00003
 343,0.00000213,0.00003834,-0.00000223,-0.00000333,-0.00002335,-0.00001
 372,0.00001866,0.00000206,-0.00000232,-0.00000628,0.00001249,0.0000186
 4,0.00000395,0.00001097,-0.00001224,-0.00000161,-0.00002846,0.00000789
 ,-0.00001788,-0.00001437,-0.00000072,-0.00001686,-0.00000195,0.0000053
 3,0.00001170,-0.00001645,0.00000799,-0.00000293,0.00000791,-0.00000526
 ,0.00000372,0.00001170,0.00000036,0.00001141,0.00001225,0.00001630,0.0
 0000259,0.00000289,0.00001341,-0.00000527\\\@


 THEORY:  SUPPOSITION WHICH HAS SCIENTIFIC BASIS,
          BUT NOT EXPERIMENTALLY PROVEN.
 FACT:    A THEORY WHICH HAS BEEN PROVEN BY ENOUGH 
          MONEY TO PAY FOR THE EXPERIMENTS.

                          --  THE WIZARD OF ID
 Job cpu time:       0 days  0 hours  3 minutes 52.9 seconds.
 File lengths (MBytes):  RWF=    133 Int=      0 D2E=      0 Chk=      4 Scr=      2
 Normal termination of Gaussian 09 at Fri Mar 21 13:29:08 2025.
