 Entering Gaussian System, Link 0=g09
 Initial command:
 /apps/z_install_tree/linux-rocky8-ivybridge/gcc-12.2.0/gaussian-09-D.01-wczn3gur5lpur3omlkzwa2l5ecyxp5ef/g09/l1.exe "/srv/scratch/z5358697/gauss/Gau-3151412.inp" -scrdir="/srv/scratch/z5358697/gauss/"
 Entering Link 1 = /apps/z_install_tree/linux-rocky8-ivybridge/gcc-12.2.0/gaussian-09-D.01-wczn3gur5lpur3omlkzwa2l5ecyxp5ef/g09/l1.exe PID=   3151414.
  
 Copyright (c) 1988,1990,1992,1993,1995,1998,2003,2009,2013,
            Gaussian, Inc.  All Rights Reserved.
  
 This is part of the Gaussian(R) 09 program.  It is based on
 the Gaussian(R) 03 system (copyright 2003, Gaussian, Inc.),
 the Gaussian(R) 98 system (copyright 1998, Gaussian, Inc.),
 the Gaussian(R) 94 system (copyright 1995, Gaussian, Inc.),
 the Gaussian 92(TM) system (copyright 1992, Gaussian, Inc.),
 the Gaussian 90(TM) system (copyright 1990, Gaussian, Inc.),
 the Gaussian 88(TM) system (copyright 1988, Gaussian, Inc.),
 the Gaussian 86(TM) system (copyright 1986, Carnegie Mellon
 University), and the Gaussian 82(TM) system (copyright 1983,
 Carnegie Mellon University). Gaussian is a federally registered
 trademark of Gaussian, Inc.
  
 This software contains proprietary and confidential information,
 including trade secrets, belonging to Gaussian, Inc.
  
 This software is provided under written license and may be
 used, copied, transmitted, or stored only in accord with that
 written license.
  
 The following legend is applicable only to US Government
 contracts under FAR:
  
                    RESTRICTED RIGHTS LEGEND
  
 Use, reproduction and disclosure by the US Government is
 subject to restrictions as set forth in subparagraphs (a)
 and (c) of the Commercial Computer Software - Restricted
 Rights clause in FAR 52.227-19.
  
 Gaussian, Inc.
 340 Quinnipiac St., Bldg. 40, Wallingford CT 06492
  
  
 ---------------------------------------------------------------
 Warning -- This program may not be used in any manner that
 competes with the business of Gaussian, Inc. or will provide
 assistance to any competitor of Gaussian, Inc.  The licensee
 of this program is prohibited from giving any competitor of
 Gaussian, Inc. access to this program.  By using this program,
 the user acknowledges that Gaussian, Inc. is engaged in the
 business of creating and licensing software in the field of
 computational chemistry and represents and warrants to the
 licensee that it is not a competitor of Gaussian, Inc. and that
 it will not use this program in any manner prohibited above.
 ---------------------------------------------------------------
  

 Cite this work as:
 Gaussian 09, Revision D.01,
 M. J. Frisch, G. W. Trucks, H. B. Schlegel, G. E. Scuseria, 
 M. A. Robb, J. R. Cheeseman, G. Scalmani, V. Barone, B. Mennucci, 
 G. A. Petersson, H. Nakatsuji, M. Caricato, X. Li, H. P. Hratchian, 
 A. F. Izmaylov, J. Bloino, G. Zheng, J. L. Sonnenberg, M. Hada, 
 M. Ehara, K. Toyota, R. Fukuda, J. Hasegawa, M. Ishida, T. Nakajima, 
 Y. Honda, O. Kitao, H. Nakai, T. Vreven, J. A. Montgomery, Jr., 
 J. E. Peralta, F. Ogliaro, M. Bearpark, J. J. Heyd, E. Brothers, 
 K. N. Kudin, V. N. Staroverov, T. Keith, R. Kobayashi, J. Normand, 
 K. Raghavachari, A. Rendell, J. C. Burant, S. S. Iyengar, J. Tomasi, 
 M. Cossi, N. Rega, J. M. Millam, M. Klene, J. E. Knox, J. B. Cross, 
 V. Bakken, C. Adamo, J. Jaramillo, R. Gomperts, R. E. Stratmann, 
 O. Yazyev, A. J. Austin, R. Cammi, C. Pomelli, J. W. Ochterski, 
 R. L. Martin, K. Morokuma, V. G. Zakrzewski, G. A. Voth, 
 P. Salvador, J. J. Dannenberg, S. Dapprich, A. D. Daniels, 
 O. Farkas, J. B. Foresman, J. V. Ortiz, J. Cioslowski, 
 and D. J. Fox, Gaussian, Inc., Wallingford CT, 2013.
 
 ******************************************
 Gaussian 09:  ES64L-G09RevD.01 24-Apr-2013
                19-Mar-2025 
 ******************************************
 ---------------------------------
 #m062X/6-31+G(d) OPT Freq=noraman
 ---------------------------------
 1/14=-1,18=20,19=15,26=3,38=1/1,3;
 2/9=110,12=2,17=6,18=5,40=1/2;
 3/5=1,6=6,7=11,11=2,16=1,25=1,30=1,71=1,74=-55/1,2,3;
 4//1;
 5/5=2,38=5/2;
 6/7=2,8=2,9=2,10=2,28=1/1;
 7//1,2,3,16;
 1/14=-1,18=20,19=15,26=3/3(2);
 2/9=110/2;
 99//99;
 2/9=110/2;
 3/5=1,6=6,7=11,11=2,16=1,25=1,30=1,71=1,74=-55/1,2,3;
 4/5=5,16=3,69=1/1;
 5/5=2,38=5/2;
 7//1,2,3,16;
 1/14=-1,18=20,19=15,26=3/3(-5);
 2/9=110/2;
 6/7=2,8=2,9=2,10=2,19=2,28=1/1;
 99/9=1/99;
 ------------------------
 methanesulfonyl chloride
 ------------------------
 Symbolic Z-matrix:
 Charge =  0 Multiplicity = 1
 C                     0.7074   -0.5796    0.5951 
 S                     2.335    -0.0475    0.1959 
 O                     3.0013    0.394     1.4088 
 O                     2.2829    0.7935   -0.9873 
 Cl                    3.3748   -1.7137   -0.3936 
 H                     0.2177   -0.9084   -0.323 
 H                     0.7792   -1.4037    1.3064 
 H                     0.1689    0.2607    1.0359 
 

 GradGradGradGradGradGradGradGradGradGradGradGradGradGradGradGradGradGrad
 Berny optimization.
 Initialization pass.
                           ----------------------------
                           !    Initial Parameters    !
                           ! (Angstroms and Degrees)  !
 --------------------------                            --------------------------
 ! Name  Definition              Value          Derivative Info.                !
 --------------------------------------------------------------------------------
 ! R1    R(1,2)                  1.7583         estimate D2E/DX2                !
 ! R2    R(1,6)                  1.0912         estimate D2E/DX2                !
 ! R3    R(1,7)                  1.091          estimate D2E/DX2                !
 ! R4    R(1,8)                  1.0911         estimate D2E/DX2                !
 ! R5    R(2,3)                  1.4526         estimate D2E/DX2                !
 ! R6    R(2,4)                  1.4526         estimate D2E/DX2                !
 ! R7    R(2,5)                  2.0506         estimate D2E/DX2                !
 ! A1    A(2,1,6)              108.395          estimate D2E/DX2                !
 ! A2    A(2,1,7)              108.403          estimate D2E/DX2                !
 ! A3    A(2,1,8)              108.3928         estimate D2E/DX2                !
 ! A4    A(6,1,7)              110.5158         estimate D2E/DX2                !
 ! A5    A(6,1,8)              110.5168         estimate D2E/DX2                !
 ! A6    A(7,1,8)              110.5389         estimate D2E/DX2                !
 ! A7    A(1,2,3)              109.0874         estimate D2E/DX2                !
 ! A8    A(1,2,4)              109.0835         estimate D2E/DX2                !
 ! A9    A(1,2,5)              106.7836         estimate D2E/DX2                !
 ! A10   A(3,2,4)              121.3744         estimate D2E/DX2                !
 ! A11   A(3,2,5)              104.7389         estimate D2E/DX2                !
 ! A12   A(4,2,5)              104.7418         estimate D2E/DX2                !
 ! D1    D(6,1,2,3)            179.9991         estimate D2E/DX2                !
 ! D2    D(6,1,2,4)             45.3576         estimate D2E/DX2                !
 ! D3    D(6,1,2,5)            -67.3224         estimate D2E/DX2                !
 ! D4    D(7,1,2,3)            -60.0081         estimate D2E/DX2                !
 ! D5    D(7,1,2,4)            165.3504         estimate D2E/DX2                !
 ! D6    D(7,1,2,5)             52.6703         estimate D2E/DX2                !
 ! D7    D(8,1,2,3)             60.0111         estimate D2E/DX2                !
 ! D8    D(8,1,2,4)            -74.6304         estimate D2E/DX2                !
 ! D9    D(8,1,2,5)            172.6896         estimate D2E/DX2                !
 --------------------------------------------------------------------------------
 Trust Radius=3.00D-01 FncErr=1.00D-07 GrdErr=1.00D-06
 Number of steps in this run=     38 maximum allowed number of steps=    100.
 GradGradGradGradGradGradGradGradGradGradGradGradGradGradGradGradGradGrad

                          Input orientation:                          
 ---------------------------------------------------------------------
 Center     Atomic      Atomic             Coordinates (Angstroms)
 Number     Number       Type             X           Y           Z
 ---------------------------------------------------------------------
      1          6           0        0.707400   -0.579600    0.595100
      2         16           0        2.335000   -0.047500    0.195900
      3          8           0        3.001300    0.394000    1.408800
      4          8           0        2.282900    0.793500   -0.987300
      5         17           0        3.374800   -1.713700   -0.393600
      6          1           0        0.217700   -0.908400   -0.323000
      7          1           0        0.779200   -1.403700    1.306400
      8          1           0        0.168900    0.260700    1.035900
 ---------------------------------------------------------------------
                    Distance matrix (angstroms):
                    1          2          3          4          5
     1  C    0.000000
     2  S    1.758287   0.000000
     3  O    2.621447   1.452585   0.000000
     4  O    2.621372   1.452569   2.533179   0.000000
     5  Cl   3.062472   2.050589   2.798312   2.798353   0.000000
     6  H    1.091248   2.343793   3.527578   2.757319   3.258953
     7  H    1.090983   2.343715   2.860059   3.514237   3.118211
     8  H    1.091050   2.343625   2.859950   2.974258   4.027347
                    6          7          8
     6  H    0.000000
     7  H    1.793195   0.000000
     8  H    1.793261   1.793283   0.000000
 Stoichiometry    CH3ClO2S
 Framework group  C1[X(CH3ClO2S)]
 Deg. of freedom    18
 Full point group                 C1      NOp   1
 Largest Abelian subgroup         C1      NOp   1
 Largest concise Abelian subgroup C1      NOp   1
                         Standard orientation:                         
 ---------------------------------------------------------------------
 Center     Atomic      Atomic             Coordinates (Angstroms)
 Number     Number       Type             X           Y           Z
 ---------------------------------------------------------------------
      1          6           0       -1.229923    1.346269   -0.000424
      2         16           0       -0.383039   -0.194627    0.000029
      3          8           0       -0.618030   -0.866176   -1.266386
      4          8           0       -0.618209   -0.865419    1.266793
      5         17           0        1.622667    0.232060   -0.000011
      6          1           0       -1.045954    1.840604    0.954883
      7          1           0       -0.845657    1.950235   -0.823715
      8          1           0       -2.295667    1.153319   -0.132151
 ---------------------------------------------------------------------
 Rotational constants (GHZ):      4.6124512      2.6951044      2.6431146
 Standard basis: 6-31+G(d) (6D, 7F)
 There are   109 symmetry adapted cartesian basis functions of A   symmetry.
 There are   109 symmetry adapted basis functions of A   symmetry.
   109 basis functions,   220 primitive gaussians,   109 cartesian basis functions
    29 alpha electrons       29 beta electrons
       nuclear repulsion energy       330.8124585676 Hartrees.
 NAtoms=    8 NActive=    8 NUniq=    8 SFac= 1.00D+00 NAtFMM=   60 NAOKFM=F Big=F
 Integral buffers will be    131072 words long.
 Raffenetti 2 integral format.
 Two-electron integral symmetry is turned on.
 One-electron integrals computed using PRISM.
 NBasis=   109 RedAO= T EigKep=  2.97D-04  NBF=   109
 NBsUse=   109 1.00D-06 EigRej= -1.00D+00 NBFU=   109
 ExpMin= 4.05D-02 ExpMax= 2.52D+04 ExpMxC= 3.78D+03 IAcc=2 IRadAn=         4 AccDes= 0.00D+00
 Harris functional with IExCor= 1009 and IRadAn=       4 diagonalized for initial guess.
 HarFok:  IExCor= 1009 AccDes= 0.00D+00 IRadAn=         4 IDoV= 1 UseB2=F ITyADJ=14
 ICtDFT=  3500011 ScaDFX=  1.000000  1.000000  1.000000  1.000000
 FoFCou: FMM=F IPFlag=           0 FMFlag=      100000 FMFlg1=           0
         NFxFlg=           0 DoJE=T BraDBF=F KetDBF=T FulRan=T
         wScrn=  0.000000 ICntrl=     500 IOpCl=  0 I1Cent=   200000004 NGrid=           0
         NMat0=    1 NMatS0=      1 NMatT0=    0 NMatD0=    1 NMtDS0=    0 NMtDT0=    0
 Petite list used in FoFCou.
 Keep R1 ints in memory in canonical form, NReq=18960673.
 Requested convergence on RMS density matrix=1.00D-08 within 128 cycles.
 Requested convergence on MAX density matrix=1.00D-06.
 Requested convergence on             energy=1.00D-06.
 No special actions if energy rises.
 SCF Done:  E(RM062X) =  -1048.53277541     A.U. after   13 cycles
            NFock= 13  Conv=0.54D-08     -V/T= 2.0038

 **********************************************************************

            Population analysis using the SCF density.

 **********************************************************************

 Orbital symmetries:
       Occupied  (A) (A) (A) (A) (A) (A) (A) (A) (A) (A) (A) (A)
                 (A) (A) (A) (A) (A) (A) (A) (A) (A) (A) (A) (A)
                 (A) (A) (A) (A) (A)
       Virtual   (A) (A) (A) (A) (A) (A) (A) (A) (A) (A) (A) (A)
                 (A) (A) (A) (A) (A) (A) (A) (A) (A) (A) (A) (A)
                 (A) (A) (A) (A) (A) (A) (A) (A) (A) (A) (A) (A)
                 (A) (A) (A) (A) (A) (A) (A) (A) (A) (A) (A) (A)
                 (A) (A) (A) (A) (A) (A) (A) (A) (A) (A) (A) (A)
                 (A) (A) (A) (A) (A) (A) (A) (A) (A) (A) (A) (A)
                 (A) (A) (A) (A) (A) (A) (A) (A)
 The electronic state is 1-A.
 Alpha  occ. eigenvalues -- -102.69747 -90.19851 -19.67864 -19.67855 -10.62717
 Alpha  occ. eigenvalues --   -9.84706  -8.51155  -7.57097  -7.56399  -7.56363
 Alpha  occ. eigenvalues --   -6.43415  -6.43206  -6.43140  -1.27370  -1.16319
 Alpha  occ. eigenvalues --   -0.98027  -0.91104  -0.72830  -0.62417  -0.60143
 Alpha  occ. eigenvalues --   -0.58751  -0.53972  -0.53595  -0.45726  -0.44302
 Alpha  occ. eigenvalues --   -0.42389  -0.41792  -0.40356  -0.39035
 Alpha virt. eigenvalues --   -0.04187   0.00254   0.03254   0.04127   0.04468
 Alpha virt. eigenvalues --    0.06557   0.06884   0.07313   0.09240   0.09596
 Alpha virt. eigenvalues --    0.09989   0.11563   0.12807   0.13524   0.14418
 Alpha virt. eigenvalues --    0.16592   0.17901   0.21450   0.23638   0.24165
 Alpha virt. eigenvalues --    0.25979   0.29783   0.31147   0.31607   0.32052
 Alpha virt. eigenvalues --    0.34027   0.34163   0.47957   0.49515   0.55829
 Alpha virt. eigenvalues --    0.57159   0.60915   0.61151   0.63145   0.67219
 Alpha virt. eigenvalues --    0.69741   0.71647   0.75215   0.78500   0.81627
 Alpha virt. eigenvalues --    0.85994   0.91757   0.92258   0.95580   0.96640
 Alpha virt. eigenvalues --    1.00099   1.02312   1.05486   1.14440   1.15144
 Alpha virt. eigenvalues --    1.25780   1.26990   1.29282   1.29536   1.35342
 Alpha virt. eigenvalues --    1.36033   1.37023   1.37647   1.56308   1.68397
 Alpha virt. eigenvalues --    1.71585   1.72854   1.82524   1.83499   1.87666
 Alpha virt. eigenvalues --    1.88275   1.99938   2.09563   2.11638   2.19586
 Alpha virt. eigenvalues --    2.22697   2.28205   2.33396   2.84634   2.89809
 Alpha virt. eigenvalues --    3.94247   4.08895   4.08965   4.22965   4.36033
          Condensed to atoms (all electrons):
               1          2          3          4          5          6
     1  C    6.106489  -0.096836  -0.137542  -0.131859  -0.050842   0.349973
     2  S   -0.096836  14.768650   0.152884   0.158879   0.310550  -0.018256
     3  O   -0.137542   0.152884   8.777475  -0.194857  -0.152514   0.009549
     4  O   -0.131859   0.158879  -0.194857   8.773896  -0.155372  -0.007334
     5  Cl  -0.050842   0.310550  -0.152514  -0.155372  17.033721  -0.002882
     6  H    0.349973  -0.018256   0.009549  -0.007334  -0.002882   0.420120
     7  H    0.346994  -0.013984  -0.007351   0.009230  -0.003445  -0.021067
     8  H    0.360222  -0.006781  -0.006500  -0.007015   0.002526  -0.017304
               7          8
     1  C    0.346994   0.360222
     2  S   -0.013984  -0.006781
     3  O   -0.007351  -0.006500
     4  O    0.009230  -0.007015
     5  Cl  -0.003445   0.002526
     6  H   -0.021067  -0.017304
     7  H    0.420573  -0.016524
     8  H   -0.016524   0.393989
 Mulliken charges:
               1
     1  C   -0.746598
     2  S    0.744893
     3  O   -0.441144
     4  O   -0.445569
     5  Cl   0.018259
     6  H    0.287201
     7  H    0.285572
     8  H    0.297387
 Sum of Mulliken charges =   0.00000
 Mulliken charges with hydrogens summed into heavy atoms:
               1
     1  C    0.123561
     2  S    0.744893
     3  O   -0.441144
     4  O   -0.445569
     5  Cl   0.018259
 Electronic spatial extent (au):  <R**2>=            560.0089
 Charge=              0.0000 electrons
 Dipole moment (field-independent basis, Debye):
    X=             -1.2008    Y=              4.2232    Z=             -0.0083  Tot=              4.3906
 Quadrupole moment (field-independent basis, Debye-Ang):
   XX=            -40.0774   YY=            -42.2463   ZZ=            -48.5803
   XY=             -4.4354   XZ=              0.0207   YZ=             -0.0131
 Traceless Quadrupole moment (field-independent basis, Debye-Ang):
   XX=              3.5573   YY=              1.3884   ZZ=             -4.9456
   XY=             -4.4354   XZ=              0.0207   YZ=             -0.0131
 Octapole moment (field-independent basis, Debye-Ang**2):
  XXX=             -3.8811  YYY=              3.7447  ZZZ=              0.3771  XYY=             -1.8818
  XXY=              3.7713  XXZ=             -0.3378  XZZ=              3.2106  YZZ=              6.1110
  YYZ=             -0.1020  XYZ=             -0.1349
 Hexadecapole moment (field-independent basis, Debye-Ang**3):
 XXXX=           -318.0318 YYYY=           -188.1323 ZZZZ=           -170.3109 XXXY=             -3.1924
 XXXZ=              1.3807 YYYX=             -3.6291 YYYZ=             -0.4769 ZZZX=             -0.5277
 ZZZY=              0.6501 XXYY=            -89.0974 XXZZ=            -89.7893 YYZZ=            -59.2818
 XXYZ=             -0.1035 YYXZ=             -0.3960 ZZXY=             -3.7230
 N-N= 3.308124585676D+02 E-N=-3.145682445989D+03  KE= 1.044511668892D+03
 Calling FoFJK, ICntrl=      2127 FMM=F ISym2X=0 I1Cent= 0 IOpClX= 0 NMat=1 NMatS=1 NMatT=0.
 ***** Axes restored to original set *****
 -------------------------------------------------------------------
 Center     Atomic                   Forces (Hartrees/Bohr)
 Number     Number              X              Y              Z
 -------------------------------------------------------------------
      1        6          -0.008923810   -0.017410929   -0.001592987
      2       16           0.022123076    0.029243709   -0.001992413
      3        8          -0.007729164   -0.002312970   -0.004620570
      4        8          -0.003999082   -0.003643771    0.007508785
      5       17          -0.004900588   -0.009893880   -0.000373500
      6        1           0.000079700    0.000331848   -0.000074389
      7        1          -0.000606972    0.000628836    0.001488315
      8        1           0.003956839    0.003057157   -0.000343239
 -------------------------------------------------------------------
 Cartesian Forces:  Max     0.029243709 RMS     0.009256223

 GradGradGradGradGradGradGradGradGradGradGradGradGradGradGradGradGradGrad
 Berny optimization.
 FormGI is forming the generalized inverse of G from B-inverse, IUseBI=4.
 Internal  Forces:  Max     0.026450510 RMS     0.007036453
 Search for a local minimum.
 Step number   1 out of a maximum of   38
 All quantities printed in internal units (Hartrees-Bohrs-Radians)
 Mixed Optimization -- RFO/linear search
 Second derivative matrix not updated -- first step.
 ITU=  0
     Eigenvalues ---    0.00922   0.06356   0.06358   0.08648   0.10312
     Eigenvalues ---    0.16000   0.16000   0.16000   0.25000   0.25000
     Eigenvalues ---    0.25000   0.29386   0.29699   0.34669   0.34692
     Eigenvalues ---    0.34699   0.94794   0.94801
 RFO step:  Lambda=-5.36900465D-03 EMin= 9.22085781D-03
 Linear search not attempted -- first point.
 Iteration  1 RMS(Cart)=  0.05380925 RMS(Int)=  0.00208662
 Iteration  2 RMS(Cart)=  0.00248668 RMS(Int)=  0.00057830
 Iteration  3 RMS(Cart)=  0.00000335 RMS(Int)=  0.00057830
 Iteration  4 RMS(Cart)=  0.00000000 RMS(Int)=  0.00057830
 Variable       Old X    -DE/DX   Delta X   Delta X   Delta X     New X
                                 (Linear)    (Quad)   (Total)
    R1        3.32268   0.00901   0.00000   0.02981   0.02981   3.35249
    R2        2.06216  -0.00008   0.00000  -0.00023  -0.00023   2.06193
    R3        2.06166   0.00044   0.00000   0.00126   0.00126   2.06292
    R4        2.06179   0.00028   0.00000   0.00079   0.00079   2.06258
    R5        2.74499  -0.00811   0.00000  -0.00851  -0.00851   2.73648
    R6        2.74496  -0.00809   0.00000  -0.00848  -0.00848   2.73648
    R7        3.87505   0.00568   0.00000   0.01897   0.01897   3.89402
    A1        1.89185   0.00105   0.00000   0.00988   0.00962   1.90147
    A2        1.89199   0.00227   0.00000   0.01651   0.01632   1.90831
    A3        1.89181  -0.00826   0.00000  -0.05620  -0.05630   1.83552
    A4        1.92886   0.00031   0.00000   0.01496   0.01461   1.94347
    A5        1.92888   0.00261   0.00000   0.00999   0.00982   1.93870
    A6        1.92927   0.00181   0.00000   0.00366   0.00362   1.93289
    A7        1.90393  -0.00376   0.00000  -0.01289  -0.01345   1.89048
    A8        1.90387  -0.00298   0.00000  -0.00941  -0.00990   1.89396
    A9        1.86373  -0.02645   0.00000  -0.10725  -0.10855   1.75518
   A10        2.11838   0.00539   0.00000   0.02723   0.02717   2.14556
   A11        1.82804   0.01214   0.00000   0.04277   0.04101   1.86905
   A12        1.82809   0.01204   0.00000   0.04343   0.04191   1.87000
    D1        3.14158   0.00004   0.00000   0.01158   0.01102  -3.13059
    D2        0.79164  -0.00162   0.00000  -0.00654  -0.00615   0.78549
    D3       -1.17500  -0.00092   0.00000   0.00132   0.00134  -1.17366
    D4       -1.04734   0.00233   0.00000   0.04475   0.04432  -1.00302
    D5        2.88591   0.00066   0.00000   0.02663   0.02716   2.91306
    D6        0.91927   0.00136   0.00000   0.03448   0.03464   0.95391
    D7        1.04739   0.00105   0.00000   0.02626   0.02571   1.07310
    D8       -1.30255  -0.00061   0.00000   0.00814   0.00855  -1.29400
    D9        3.01400   0.00009   0.00000   0.01600   0.01603   3.03003
         Item               Value     Threshold  Converged?
 Maximum Force            0.026451     0.000450     NO 
 RMS     Force            0.007036     0.000300     NO 
 Maximum Displacement     0.194309     0.001800     NO 
 RMS     Displacement     0.055192     0.001200     NO 
 Predicted change in Energy=-2.749589D-03
 GradGradGradGradGradGradGradGradGradGradGradGradGradGradGradGradGradGrad

                          Input orientation:                          
 ---------------------------------------------------------------------
 Center     Atomic      Atomic             Coordinates (Angstroms)
 Number     Number       Type             X           Y           Z
 ---------------------------------------------------------------------
      1          6           0        0.728942   -0.602060    0.583753
      2         16           0        2.354497   -0.006103    0.196849
      3          8           0        2.987621    0.420516    1.427333
      4          8           0        2.267822    0.836989   -0.977299
      5         17           0        3.271976   -1.758653   -0.380205
      6          1           0        0.246265   -0.937011   -0.335698
      7          1           0        0.804706   -1.412682    1.310977
      8          1           0        0.205370    0.254304    1.012492
 ---------------------------------------------------------------------
                    Distance matrix (angstroms):
                    1          2          3          4          5
     1  C    0.000000
     2  S    1.774059   0.000000
     3  O    2.618953   1.448082   0.000000
     4  O    2.622193   1.448082   2.544369   0.000000
     5  Cl   2.955324   2.060629   2.845493   2.846437   0.000000
     6  H    1.091127   2.365340   3.530749   2.765035   3.135603
     7  H    1.091651   2.370990   2.852940   3.526746   3.011182
     8  H    1.091469   2.313402   2.817914   2.924465   3.923732
                    6          7          8
     6  H    0.000000
     7  H    1.802681   0.000000
     8  H    1.799589   1.796424   0.000000
 Stoichiometry    CH3ClO2S
 Framework group  C1[X(CH3ClO2S)]
 Deg. of freedom    18
 Full point group                 C1      NOp   1
 Largest Abelian subgroup         C1      NOp   1
 Largest concise Abelian subgroup C1      NOp   1
                         Standard orientation:                         
 ---------------------------------------------------------------------
 Center     Atomic      Atomic             Coordinates (Angstroms)
 Number     Number       Type             X           Y           Z
 ---------------------------------------------------------------------
      1          6           0       -1.001451    1.467061    0.010973
      2         16           0       -0.404816   -0.203620   -0.000749
      3          8           0       -0.739925   -0.797574   -1.278192
      4          8           0       -0.739246   -0.820266    1.266076
      5         17           0        1.629946    0.121853    0.000554
      6          1           0       -0.744250    1.928405    0.965734
      7          1           0       -0.562230    2.013644   -0.825707
      8          1           0       -2.083464    1.384716   -0.106378
 ---------------------------------------------------------------------
 Rotational constants (GHZ):      4.5487711      2.7087608      2.6479911
 Standard basis: 6-31+G(d) (6D, 7F)
 There are   109 symmetry adapted cartesian basis functions of A   symmetry.
 There are   109 symmetry adapted basis functions of A   symmetry.
   109 basis functions,   220 primitive gaussians,   109 cartesian basis functions
    29 alpha electrons       29 beta electrons
       nuclear repulsion energy       330.5062082093 Hartrees.
 NAtoms=    8 NActive=    8 NUniq=    8 SFac= 1.00D+00 NAtFMM=   60 NAOKFM=F Big=F
 Integral buffers will be    131072 words long.
 Raffenetti 2 integral format.
 Two-electron integral symmetry is turned on.
 One-electron integrals computed using PRISM.
 NBasis=   109 RedAO= T EigKep=  2.94D-04  NBF=   109
 NBsUse=   109 1.00D-06 EigRej= -1.00D+00 NBFU=   109
 Initial guess from the checkpoint file:  "/srv/scratch/z5358697/gauss/Gau-3151414.chk"
 B after Tr=     0.000000    0.000000    0.000000
         Rot=    0.998763   -0.003836   -0.000546    0.049570 Ang=  -5.70 deg.
 ExpMin= 4.05D-02 ExpMax= 2.52D+04 ExpMxC= 3.78D+03 IAcc=2 IRadAn=         4 AccDes= 0.00D+00
 Harris functional with IExCor= 1009 and IRadAn=       4 diagonalized for initial guess.
 HarFok:  IExCor= 1009 AccDes= 0.00D+00 IRadAn=         4 IDoV= 1 UseB2=F ITyADJ=14
 ICtDFT=  3500011 ScaDFX=  1.000000  1.000000  1.000000  1.000000
 FoFCou: FMM=F IPFlag=           0 FMFlag=      100000 FMFlg1=           0
         NFxFlg=           0 DoJE=T BraDBF=F KetDBF=T FulRan=T
         wScrn=  0.000000 ICntrl=     500 IOpCl=  0 I1Cent=   200000004 NGrid=           0
         NMat0=    1 NMatS0=      1 NMatT0=    0 NMatD0=    1 NMtDS0=    0 NMtDT0=    0
 Petite list used in FoFCou.
 Keep R1 ints in memory in canonical form, NReq=18960673.
 Requested convergence on RMS density matrix=1.00D-08 within 128 cycles.
 Requested convergence on MAX density matrix=1.00D-06.
 Requested convergence on             energy=1.00D-06.
 No special actions if energy rises.
 SCF Done:  E(RM062X) =  -1048.53554701     A.U. after   12 cycles
            NFock= 12  Conv=0.57D-08     -V/T= 2.0039
 Calling FoFJK, ICntrl=      2127 FMM=F ISym2X=0 I1Cent= 0 IOpClX= 0 NMat=1 NMatS=1 NMatT=0.
 ***** Axes restored to original set *****
 -------------------------------------------------------------------
 Center     Atomic                   Forces (Hartrees/Bohr)
 Number     Number              X              Y              Z
 -------------------------------------------------------------------
      1        6          -0.003930331   -0.004272772    0.000395365
      2       16          -0.002389745    0.005378534    0.001757052
      3        8           0.000665578    0.000314443   -0.004868167
      4        8           0.003036837   -0.000884343    0.003977058
      5       17           0.002050860   -0.003087944   -0.001501889
      6        1           0.000757649    0.000511260    0.000188982
      7        1           0.000780920    0.001497797    0.000043636
      8        1          -0.000971769    0.000543024    0.000007964
 -------------------------------------------------------------------
 Cartesian Forces:  Max     0.005378534 RMS     0.002437657

 GradGradGradGradGradGradGradGradGradGradGradGradGradGradGradGradGradGrad
 Berny optimization.
 Using GEDIIS/GDIIS optimizer.
 FormGI is forming the generalized inverse of G from B-inverse, IUseBI=4.
 Internal  Forces:  Max     0.005462141 RMS     0.002272150
 Search for a local minimum.
 Step number   2 out of a maximum of   38
 All quantities printed in internal units (Hartrees-Bohrs-Radians)
 Mixed Optimization -- RFO/linear search
 Update second derivatives using D2CorX and points    1    2
 DE= -2.77D-03 DEPred=-2.75D-03 R= 1.01D+00
 TightC=F SS=  1.41D+00  RLast= 1.63D-01 DXNew= 5.0454D-01 4.8871D-01
 Trust test= 1.01D+00 RLast= 1.63D-01 DXMaxT set to 4.89D-01
 ITU=  1  0
 Use linear search instead of GDIIS.
     Eigenvalues ---    0.00912   0.06219   0.06663   0.08808   0.11220
     Eigenvalues ---    0.15743   0.16000   0.16325   0.21195   0.25000
     Eigenvalues ---    0.28102   0.29533   0.33311   0.34673   0.34693
     Eigenvalues ---    0.35305   0.93168   0.94798
 RFO step:  Lambda=-5.21286654D-04 EMin= 9.11689015D-03
 Quartic linear search produced a step of -0.02801.
 Iteration  1 RMS(Cart)=  0.02126309 RMS(Int)=  0.00022410
 Iteration  2 RMS(Cart)=  0.00023460 RMS(Int)=  0.00006218
 Iteration  3 RMS(Cart)=  0.00000003 RMS(Int)=  0.00006218
 Variable       Old X    -DE/DX   Delta X   Delta X   Delta X     New X
                                 (Linear)    (Quad)   (Total)
    R1        3.35249   0.00379  -0.00083   0.01605   0.01521   3.36770
    R2        2.06193  -0.00065   0.00001  -0.00184  -0.00183   2.06010
    R3        2.06292  -0.00105  -0.00004  -0.00277  -0.00280   2.06012
    R4        2.06258   0.00091  -0.00002   0.00263   0.00261   2.06519
    R5        2.73648  -0.00375   0.00024  -0.00486  -0.00462   2.73185
    R6        2.73648  -0.00393   0.00024  -0.00505  -0.00481   2.73167
    R7        3.89402   0.00397  -0.00053   0.01544   0.01491   3.90894
    A1        1.90147  -0.00082  -0.00027  -0.00345  -0.00372   1.89775
    A2        1.90831  -0.00125  -0.00046  -0.00532  -0.00578   1.90253
    A3        1.83552   0.00094   0.00158  -0.00197  -0.00039   1.83512
    A4        1.94347   0.00115  -0.00041   0.00968   0.00928   1.95275
    A5        1.93870  -0.00012  -0.00027   0.00012  -0.00015   1.93854
    A6        1.93289   0.00003  -0.00010   0.00000  -0.00011   1.93278
    A7        1.89048   0.00468   0.00038   0.01682   0.01712   1.90760
    A8        1.89396   0.00448   0.00028   0.01619   0.01639   1.91035
    A9        1.75518   0.00035   0.00304  -0.01265  -0.00952   1.74566
   A10        2.14556  -0.00546  -0.00076  -0.01716  -0.01810   2.12746
   A11        1.86905  -0.00154  -0.00115  -0.00115  -0.00219   1.86687
   A12        1.87000  -0.00171  -0.00117  -0.00263  -0.00370   1.86629
    D1       -3.13059   0.00028  -0.00031   0.03049   0.03026  -3.10033
    D2        0.78549   0.00008   0.00017   0.02642   0.02652   0.81201
    D3       -1.17366   0.00030  -0.00004   0.02939   0.02935  -1.14430
    D4       -1.00302   0.00040  -0.00124   0.03692   0.03575  -0.96727
    D5        2.91306   0.00020  -0.00076   0.03284   0.03200   2.94507
    D6        0.95391   0.00042  -0.00097   0.03582   0.03484   0.98875
    D7        1.07310   0.00032  -0.00072   0.03315   0.03251   1.10561
    D8       -1.29400   0.00012  -0.00024   0.02908   0.02877  -1.26523
    D9        3.03003   0.00034  -0.00045   0.03205   0.03161   3.06164
         Item               Value     Threshold  Converged?
 Maximum Force            0.005462     0.000450     NO 
 RMS     Force            0.002272     0.000300     NO 
 Maximum Displacement     0.044078     0.001800     NO 
 RMS     Displacement     0.021231     0.001200     NO 
 Predicted change in Energy=-2.586177D-04
 GradGradGradGradGradGradGradGradGradGradGradGradGradGradGradGradGradGrad

                          Input orientation:                          
 ---------------------------------------------------------------------
 Center     Atomic      Atomic             Coordinates (Angstroms)
 Number     Number       Type             X           Y           Z
 ---------------------------------------------------------------------
      1          6           0        0.721316   -0.607696    0.585469
      2         16           0        2.352141   -0.000702    0.200917
      3          8           0        3.005574    0.418834    1.420292
      4          8           0        2.285707    0.853953   -0.963010
      5         17           0        3.259993   -1.761095   -0.395402
      6          1           0        0.253217   -0.960336   -0.333756
      7          1           0        0.803756   -1.400266    1.329446
      8          1           0        0.185497    0.252608    0.994244
 ---------------------------------------------------------------------
                    Distance matrix (angstroms):
                    1          2          3          4          5
     1  C    0.000000
     2  S    1.782109   0.000000
     3  O    2.639797   1.445635   0.000000
     4  O    2.642257   1.445536   2.527383   0.000000
     5  Cl   2.955896   2.068520   2.848432   2.847786   0.000000
     6  H    1.090159   2.369020   3.543200   2.796179   3.112189
     7  H    1.090168   2.372731   2.857514   3.540203   3.022979
     8  H    1.092850   2.321180   2.856918   2.933145   3.929204
                    6          7          8
     6  H    0.000000
     7  H    1.806342   0.000000
     8  H    1.799834   1.796273   0.000000
 Stoichiometry    CH3ClO2S
 Framework group  C1[X(CH3ClO2S)]
 Deg. of freedom    18
 Full point group                 C1      NOp   1
 Largest Abelian subgroup         C1      NOp   1
 Largest concise Abelian subgroup C1      NOp   1
                         Standard orientation:                         
 ---------------------------------------------------------------------
 Center     Atomic      Atomic             Coordinates (Angstroms)
 Number     Number       Type             X           Y           Z
 ---------------------------------------------------------------------
      1          6           0       -0.985182    1.488648    0.007616
      2         16           0       -0.412588   -0.198949   -0.000284
      3          8           0       -0.745551   -0.810483   -1.267179
      4          8           0       -0.742323   -0.825154    1.260159
      5         17           0        1.632006    0.114756   -0.000403
      6          1           0       -0.692541    1.953257    0.949394
      7          1           0       -0.563316    2.010741   -0.851402
      8          1           0       -2.072750    1.421540   -0.076130
 ---------------------------------------------------------------------
 Rotational constants (GHZ):      4.5240474      2.7165634      2.6282434
 Standard basis: 6-31+G(d) (6D, 7F)
 There are   109 symmetry adapted cartesian basis functions of A   symmetry.
 There are   109 symmetry adapted basis functions of A   symmetry.
   109 basis functions,   220 primitive gaussians,   109 cartesian basis functions
    29 alpha electrons       29 beta electrons
       nuclear repulsion energy       330.1051901263 Hartrees.
 NAtoms=    8 NActive=    8 NUniq=    8 SFac= 1.00D+00 NAtFMM=   60 NAOKFM=F Big=F
 Integral buffers will be    131072 words long.
 Raffenetti 2 integral format.
 Two-electron integral symmetry is turned on.
 One-electron integrals computed using PRISM.
 NBasis=   109 RedAO= T EigKep=  3.00D-04  NBF=   109
 NBsUse=   109 1.00D-06 EigRej= -1.00D+00 NBFU=   109
 Initial guess from the checkpoint file:  "/srv/scratch/z5358697/gauss/Gau-3151414.chk"
 B after Tr=     0.000000    0.000000    0.000000
         Rot=    0.999993    0.001719   -0.000805    0.003359 Ang=   0.44 deg.
 ExpMin= 4.05D-02 ExpMax= 2.52D+04 ExpMxC= 3.78D+03 IAcc=2 IRadAn=         4 AccDes= 0.00D+00
 Harris functional with IExCor= 1009 and IRadAn=       4 diagonalized for initial guess.
 HarFok:  IExCor= 1009 AccDes= 0.00D+00 IRadAn=         4 IDoV= 1 UseB2=F ITyADJ=14
 ICtDFT=  3500011 ScaDFX=  1.000000  1.000000  1.000000  1.000000
 FoFCou: FMM=F IPFlag=           0 FMFlag=      100000 FMFlg1=           0
         NFxFlg=           0 DoJE=T BraDBF=F KetDBF=T FulRan=T
         wScrn=  0.000000 ICntrl=     500 IOpCl=  0 I1Cent=   200000004 NGrid=           0
         NMat0=    1 NMatS0=      1 NMatT0=    0 NMatD0=    1 NMtDS0=    0 NMtDT0=    0
 Petite list used in FoFCou.
 Keep R1 ints in memory in canonical form, NReq=18960673.
 Requested convergence on RMS density matrix=1.00D-08 within 128 cycles.
 Requested convergence on MAX density matrix=1.00D-06.
 Requested convergence on             energy=1.00D-06.
 No special actions if energy rises.
 SCF Done:  E(RM062X) =  -1048.53584882     A.U. after   11 cycles
            NFock= 11  Conv=0.40D-08     -V/T= 2.0039
 Calling FoFJK, ICntrl=      2127 FMM=F ISym2X=0 I1Cent= 0 IOpClX= 0 NMat=1 NMatS=1 NMatT=0.
 ***** Axes restored to original set *****
 -------------------------------------------------------------------
 Center     Atomic                   Forces (Hartrees/Bohr)
 Number     Number              X              Y              Z
 -------------------------------------------------------------------
      1        6          -0.001002003    0.000674629    0.000499907
      2       16           0.000504471    0.001816164    0.000328249
      3        8          -0.000766557   -0.000450441   -0.000745509
      4        8          -0.000450365   -0.000410491    0.001050697
      5       17           0.001014950   -0.001885883   -0.000842205
      6        1           0.000567009    0.000020787   -0.000145174
      7        1           0.000749635    0.000411658    0.000131499
      8        1          -0.000617140   -0.000176423   -0.000277464
 -------------------------------------------------------------------
 Cartesian Forces:  Max     0.001885883 RMS     0.000792359

 GradGradGradGradGradGradGradGradGradGradGradGradGradGradGradGradGradGrad
 Berny optimization.
 Using GEDIIS/GDIIS optimizer.
 FormGI is forming the generalized inverse of G from B-inverse, IUseBI=4.
 Internal  Forces:  Max     0.002304627 RMS     0.000699152
 Search for a local minimum.
 Step number   3 out of a maximum of   38
 All quantities printed in internal units (Hartrees-Bohrs-Radians)
 Mixed Optimization -- En-DIIS/RFO-DIIS
 Update second derivatives using D2CorX and points    1    2    3
 DE= -3.02D-04 DEPred=-2.59D-04 R= 1.17D+00
 TightC=F SS=  1.41D+00  RLast= 1.03D-01 DXNew= 8.2191D-01 3.0782D-01
 Trust test= 1.17D+00 RLast= 1.03D-01 DXMaxT set to 4.89D-01
 ITU=  1  1  0
 Use linear search instead of GDIIS.
     Eigenvalues ---    0.00709   0.06374   0.06695   0.08688   0.11180
     Eigenvalues ---    0.14382   0.16000   0.16312   0.22186   0.25009
     Eigenvalues ---    0.27908   0.29981   0.34422   0.34672   0.34698
     Eigenvalues ---    0.38322   0.91009   0.94800
 RFO step:  Lambda=-1.05643692D-04 EMin= 7.09008080D-03
 Quartic linear search produced a step of  0.15872.
 Iteration  1 RMS(Cart)=  0.01714325 RMS(Int)=  0.00016823
 Iteration  2 RMS(Cart)=  0.00016949 RMS(Int)=  0.00001754
 Iteration  3 RMS(Cart)=  0.00000001 RMS(Int)=  0.00001754
 Variable       Old X    -DE/DX   Delta X   Delta X   Delta X     New X
                                 (Linear)    (Quad)   (Total)
    R1        3.36770   0.00000   0.00241   0.00172   0.00414   3.37183
    R2        2.06010  -0.00013  -0.00029  -0.00053  -0.00082   2.05928
    R3        2.06012  -0.00017  -0.00044  -0.00068  -0.00112   2.05900
    R4        2.06519   0.00007   0.00041   0.00041   0.00082   2.06601
    R5        2.73185  -0.00110  -0.00073  -0.00186  -0.00260   2.72926
    R6        2.73167  -0.00108  -0.00076  -0.00184  -0.00261   2.72906
    R7        3.90894   0.00230   0.00237   0.01050   0.01286   3.92180
    A1        1.89775  -0.00079  -0.00059  -0.00633  -0.00694   1.89082
    A2        1.90253  -0.00116  -0.00092  -0.00873  -0.00967   1.89286
    A3        1.83512   0.00115  -0.00006   0.00766   0.00761   1.84273
    A4        1.95275   0.00075   0.00147   0.00430   0.00572   1.95848
    A5        1.93854  -0.00009  -0.00002   0.00052   0.00051   1.93905
    A6        1.93278   0.00012  -0.00002   0.00230   0.00230   1.93508
    A7        1.90760  -0.00055   0.00272  -0.00262   0.00008   1.90768
    A8        1.91035  -0.00075   0.00260  -0.00359  -0.00100   1.90935
    A9        1.74566   0.00035  -0.00151  -0.00108  -0.00259   1.74307
   A10        2.12746   0.00054  -0.00287   0.00065  -0.00225   2.12521
   A11        1.86687   0.00023  -0.00035   0.00361   0.00327   1.87013
   A12        1.86629   0.00022  -0.00059   0.00318   0.00260   1.86889
    D1       -3.10033   0.00013   0.00480   0.02430   0.02909  -3.07124
    D2        0.81201   0.00051   0.00421   0.02879   0.03297   0.84498
    D3       -1.14430   0.00035   0.00466   0.02694   0.03158  -1.11272
    D4       -0.96727  -0.00016   0.00567   0.02024   0.02595  -0.94133
    D5        2.94507   0.00022   0.00508   0.02473   0.02982   2.97489
    D6        0.98875   0.00006   0.00553   0.02289   0.02844   1.01719
    D7        1.10561   0.00001   0.00516   0.02272   0.02789   1.13350
    D8       -1.26523   0.00039   0.00457   0.02722   0.03177  -1.23346
    D9        3.06164   0.00024   0.00502   0.02537   0.03039   3.09203
         Item               Value     Threshold  Converged?
 Maximum Force            0.002305     0.000450     NO 
 RMS     Force            0.000699     0.000300     NO 
 Maximum Displacement     0.034725     0.001800     NO 
 RMS     Displacement     0.017155     0.001200     NO 
 Predicted change in Energy=-6.304368D-05
 GradGradGradGradGradGradGradGradGradGradGradGradGradGradGradGradGradGrad

                          Input orientation:                          
 ---------------------------------------------------------------------
 Center     Atomic      Atomic             Coordinates (Angstroms)
 Number     Number       Type             X           Y           Z
 ---------------------------------------------------------------------
      1          6           0        0.719632   -0.606284    0.586895
      2         16           0        2.353379   -0.000322    0.202964
      3          8           0        3.009291    0.409723    1.422608
      4          8           0        2.285082    0.864736   -0.951419
      5         17           0        3.252730   -1.766843   -0.411489
      6          1           0        0.266916   -0.977477   -0.332213
      7          1           0        0.809473   -1.383716    1.344985
      8          1           0        0.170697    0.255483    0.975868
 ---------------------------------------------------------------------
                    Distance matrix (angstroms):
                    1          2          3          4          5
     1  C    0.000000
     2  S    1.784298   0.000000
     3  O    2.640686   1.444261   0.000000
     4  O    2.642147   1.444157   2.523394   0.000000
     5  Cl   2.959772   2.075327   2.856678   2.855359   0.000000
     6  H    1.089723   2.365285   3.538974   2.801813   3.089412
     7  H    1.089574   2.366778   2.839304   3.536443   3.033396
     8  H    1.093285   2.329574   2.877670   2.925106   3.938716
                    6          7          8
     6  H    0.000000
     7  H    1.808975   0.000000
     8  H    1.800145   1.797569   0.000000
 Stoichiometry    CH3ClO2S
 Framework group  C1[X(CH3ClO2S)]
 Deg. of freedom    18
 Full point group                 C1      NOp   1
 Largest Abelian subgroup         C1      NOp   1
 Largest concise Abelian subgroup C1      NOp   1
                         Standard orientation:                         
 ---------------------------------------------------------------------
 Center     Atomic      Atomic             Coordinates (Angstroms)
 Number     Number       Type             X           Y           Z
 ---------------------------------------------------------------------
      1          6           0       -0.978303    1.494323    0.004647
      2         16           0       -0.414915   -0.198690   -0.000113
      3          8           0       -0.754033   -0.811118   -1.263370
      4          8           0       -0.750297   -0.819337    1.260008
      5         17           0        1.637426    0.109337   -0.000714
      6          1           0       -0.651880    1.961632    0.933391
      7          1           0       -0.572199    1.995409   -0.873513
      8          1           0       -2.069067    1.440976   -0.046926
 ---------------------------------------------------------------------
 Rotational constants (GHZ):      4.5280617      2.7065499      2.6159796
 Standard basis: 6-31+G(d) (6D, 7F)
 There are   109 symmetry adapted cartesian basis functions of A   symmetry.
 There are   109 symmetry adapted basis functions of A   symmetry.
   109 basis functions,   220 primitive gaussians,   109 cartesian basis functions
    29 alpha electrons       29 beta electrons
       nuclear repulsion energy       329.7961737448 Hartrees.
 NAtoms=    8 NActive=    8 NUniq=    8 SFac= 1.00D+00 NAtFMM=   60 NAOKFM=F Big=F
 Integral buffers will be    131072 words long.
 Raffenetti 2 integral format.
 Two-electron integral symmetry is turned on.
 One-electron integrals computed using PRISM.
 NBasis=   109 RedAO= T EigKep=  3.03D-04  NBF=   109
 NBsUse=   109 1.00D-06 EigRej= -1.00D+00 NBFU=   109
 Initial guess from the checkpoint file:  "/srv/scratch/z5358697/gauss/Gau-3151414.chk"
 B after Tr=     0.000000    0.000000    0.000000
         Rot=    0.999996    0.001377   -0.000540    0.002471 Ang=   0.33 deg.
 ExpMin= 4.05D-02 ExpMax= 2.52D+04 ExpMxC= 3.78D+03 IAcc=2 IRadAn=         4 AccDes= 0.00D+00
 Harris functional with IExCor= 1009 and IRadAn=       4 diagonalized for initial guess.
 HarFok:  IExCor= 1009 AccDes= 0.00D+00 IRadAn=         4 IDoV= 1 UseB2=F ITyADJ=14
 ICtDFT=  3500011 ScaDFX=  1.000000  1.000000  1.000000  1.000000
 FoFCou: FMM=F IPFlag=           0 FMFlag=      100000 FMFlg1=           0
         NFxFlg=           0 DoJE=T BraDBF=F KetDBF=T FulRan=T
         wScrn=  0.000000 ICntrl=     500 IOpCl=  0 I1Cent=   200000004 NGrid=           0
         NMat0=    1 NMatS0=      1 NMatT0=    0 NMatD0=    1 NMtDS0=    0 NMtDT0=    0
 Petite list used in FoFCou.
 Keep R1 ints in memory in canonical form, NReq=18960673.
 Requested convergence on RMS density matrix=1.00D-08 within 128 cycles.
 Requested convergence on MAX density matrix=1.00D-06.
 Requested convergence on             energy=1.00D-06.
 No special actions if energy rises.
 SCF Done:  E(RM062X) =  -1048.53592274     A.U. after   10 cycles
            NFock= 10  Conv=0.79D-08     -V/T= 2.0039
 Calling FoFJK, ICntrl=      2127 FMM=F ISym2X=0 I1Cent= 0 IOpClX= 0 NMat=1 NMatS=1 NMatT=0.
 ***** Axes restored to original set *****
 -------------------------------------------------------------------
 Center     Atomic                   Forces (Hartrees/Bohr)
 Number     Number              X              Y              Z
 -------------------------------------------------------------------
      1        6           0.000559468    0.000938371    0.000040812
      2       16          -0.001286138    0.000491817    0.000543209
      3        8           0.000503922   -0.000542817    0.000678151
      4        8          -0.000120338    0.000079485   -0.000860643
      5       17           0.000285173   -0.000172154   -0.000188312
      6        1          -0.000045574   -0.000348940   -0.000004889
      7        1          -0.000015142   -0.000182201    0.000171351
      8        1           0.000118629   -0.000263560   -0.000379681
 -------------------------------------------------------------------
 Cartesian Forces:  Max     0.001286138 RMS     0.000488069

 GradGradGradGradGradGradGradGradGradGradGradGradGradGradGradGradGradGrad
 Berny optimization.
 Using GEDIIS/GDIIS optimizer.
 FormGI is forming the generalized inverse of G from B-inverse, IUseBI=4.
 Internal  Forces:  Max     0.000734713 RMS     0.000334524
 Search for a local minimum.
 Step number   4 out of a maximum of   38
 All quantities printed in internal units (Hartrees-Bohrs-Radians)
 Mixed Optimization -- En-DIIS/RFO-DIIS
 Swapping is turned off.
 Update second derivatives using D2CorX and points    1    2    3    4
 DE= -7.39D-05 DEPred=-6.30D-05 R= 1.17D+00
 TightC=F SS=  1.41D+00  RLast= 9.21D-02 DXNew= 8.2191D-01 2.7625D-01
 Trust test= 1.17D+00 RLast= 9.21D-02 DXMaxT set to 4.89D-01
 ITU=  1  1  1  0
     Eigenvalues ---    0.00460   0.06398   0.06684   0.09154   0.11212
     Eigenvalues ---    0.15826   0.16017   0.17515   0.23288   0.25019
     Eigenvalues ---    0.27160   0.29714   0.34660   0.34679   0.34879
     Eigenvalues ---    0.39485   0.94782   0.96433
 En-DIIS/RFO-DIIS IScMMF=        0 using points:     4    3
 RFO step:  Lambda=-7.26336061D-06.
 DidBck=F Rises=F RFO-DIIS coefs:    1.20130   -0.20130
 Iteration  1 RMS(Cart)=  0.01391547 RMS(Int)=  0.00011003
 Iteration  2 RMS(Cart)=  0.00011150 RMS(Int)=  0.00000543
 Iteration  3 RMS(Cart)=  0.00000000 RMS(Int)=  0.00000543
 Variable       Old X    -DE/DX   Delta X   Delta X   Delta X     New X
                                 (Linear)    (Quad)   (Total)
    R1        3.37183  -0.00066   0.00083  -0.00096  -0.00013   3.37171
    R2        2.05928   0.00014  -0.00017   0.00030   0.00013   2.05941
    R3        2.05900   0.00024  -0.00023   0.00055   0.00032   2.05932
    R4        2.06601  -0.00039   0.00017  -0.00109  -0.00092   2.06509
    R5        2.72926   0.00065  -0.00052   0.00024  -0.00028   2.72898
    R6        2.72906   0.00073  -0.00052   0.00033  -0.00019   2.72887
    R7        3.92180   0.00033   0.00259   0.00335   0.00594   3.92774
    A1        1.89082   0.00014  -0.00140   0.00018  -0.00122   1.88959
    A2        1.89286   0.00004  -0.00195  -0.00058  -0.00253   1.89033
    A3        1.84273  -0.00001   0.00153   0.00016   0.00170   1.84443
    A4        1.95848  -0.00016   0.00115  -0.00072   0.00042   1.95889
    A5        1.93905  -0.00005   0.00010  -0.00018  -0.00008   1.93897
    A6        1.93508   0.00006   0.00046   0.00116   0.00163   1.93671
    A7        1.90768  -0.00004   0.00002   0.00200   0.00201   1.90968
    A8        1.90935  -0.00014  -0.00020   0.00150   0.00129   1.91064
    A9        1.74307   0.00036  -0.00052  -0.00162  -0.00214   1.74092
   A10        2.12521   0.00053  -0.00045   0.00364   0.00317   2.12838
   A11        1.87013  -0.00042   0.00066  -0.00373  -0.00307   1.86707
   A12        1.86889  -0.00033   0.00052  -0.00318  -0.00266   1.86624
    D1       -3.07124   0.00045   0.00586   0.02389   0.02975  -3.04150
    D2        0.84498  -0.00012   0.00664   0.01591   0.02254   0.86752
    D3       -1.11272   0.00013   0.00636   0.01969   0.02604  -1.08668
    D4       -0.94133   0.00036   0.00522   0.02277   0.02800  -0.91332
    D5        2.97489  -0.00021   0.00600   0.01480   0.02080   2.99569
    D6        1.01719   0.00004   0.00572   0.01857   0.02430   1.04149
    D7        1.13350   0.00044   0.00561   0.02393   0.02954   1.16305
    D8       -1.23346  -0.00013   0.00640   0.01595   0.02234  -1.21112
    D9        3.09203   0.00012   0.00612   0.01972   0.02584   3.11786
         Item               Value     Threshold  Converged?
 Maximum Force            0.000735     0.000450     NO 
 RMS     Force            0.000335     0.000300     NO 
 Maximum Displacement     0.032045     0.001800     NO 
 RMS     Displacement     0.013916     0.001200     NO 
 Predicted change in Energy=-1.944709D-05
 GradGradGradGradGradGradGradGradGradGradGradGradGradGradGradGradGradGrad

                          Input orientation:                          
 ---------------------------------------------------------------------
 Center     Atomic      Atomic             Coordinates (Angstroms)
 Number     Number       Type             X           Y           Z
 ---------------------------------------------------------------------
      1          6           0        0.719097   -0.605592    0.587780
      2         16           0        2.352530    0.002046    0.205482
      3          8           0        3.015008    0.398650    1.425845
      4          8           0        2.285367    0.872161   -0.945033
      5         17           0        3.247108   -1.765360   -0.423833
      6          1           0        0.275828   -0.993765   -0.328996
      7          1           0        0.810210   -1.371055    1.358045
      8          1           0        0.162052    0.258216    0.958911
 ---------------------------------------------------------------------
                    Distance matrix (angstroms):
                    1          2          3          4          5
     1  C    0.000000
     2  S    1.784230   0.000000
     3  O    2.642359   1.444112   0.000000
     4  O    2.643194   1.444055   2.525401   0.000000
     5  Cl   2.959605   2.078468   2.856241   2.855366   0.000000
     6  H    1.089791   2.364317   3.538558   2.810592   3.071296
     7  H    1.089743   2.364859   2.828001   3.537269   3.044510
     8  H    1.092796   2.330552   2.894324   2.917259   3.940104
                    6          7          8
     6  H    0.000000
     7  H    1.809425   0.000000
     8  H    1.799752   1.798316   0.000000
 Stoichiometry    CH3ClO2S
 Framework group  C1[X(CH3ClO2S)]
 Deg. of freedom    18
 Full point group                 C1      NOp   1
 Largest Abelian subgroup         C1      NOp   1
 Largest concise Abelian subgroup C1      NOp   1
                         Standard orientation:                         
 ---------------------------------------------------------------------
 Center     Atomic      Atomic             Coordinates (Angstroms)
 Number     Number       Type             X           Y           Z
 ---------------------------------------------------------------------
      1          6           0       -0.976811    1.495453    0.002635
      2         16           0       -0.417666   -0.198899   -0.000056
      3          8           0       -0.752307   -0.812866   -1.263590
      4          8           0       -0.749935   -0.817443    1.261806
      5         17           0        1.637889    0.108876   -0.000471
      6          1           0       -0.626072    1.969430    0.919135
      7          1           0       -0.588377    1.985529   -0.889825
      8          1           0       -2.068224    1.446292   -0.021945
 ---------------------------------------------------------------------
 Rotational constants (GHZ):      4.5229869      2.7050362      2.6150876
 Standard basis: 6-31+G(d) (6D, 7F)
 There are   109 symmetry adapted cartesian basis functions of A   symmetry.
 There are   109 symmetry adapted basis functions of A   symmetry.
   109 basis functions,   220 primitive gaussians,   109 cartesian basis functions
    29 alpha electrons       29 beta electrons
       nuclear repulsion energy       329.6902754087 Hartrees.
 NAtoms=    8 NActive=    8 NUniq=    8 SFac= 1.00D+00 NAtFMM=   60 NAOKFM=F Big=F
 Integral buffers will be    131072 words long.
 Raffenetti 2 integral format.
 Two-electron integral symmetry is turned on.
 One-electron integrals computed using PRISM.
 NBasis=   109 RedAO= T EigKep=  3.02D-04  NBF=   109
 NBsUse=   109 1.00D-06 EigRej= -1.00D+00 NBFU=   109
 Initial guess from the checkpoint file:  "/srv/scratch/z5358697/gauss/Gau-3151414.chk"
 B after Tr=     0.000000    0.000000    0.000000
         Rot=    1.000000    0.000849   -0.000256    0.000283 Ang=   0.11 deg.
 ExpMin= 4.05D-02 ExpMax= 2.52D+04 ExpMxC= 3.78D+03 IAcc=2 IRadAn=         4 AccDes= 0.00D+00
 Harris functional with IExCor= 1009 and IRadAn=       4 diagonalized for initial guess.
 HarFok:  IExCor= 1009 AccDes= 0.00D+00 IRadAn=         4 IDoV= 1 UseB2=F ITyADJ=14
 ICtDFT=  3500011 ScaDFX=  1.000000  1.000000  1.000000  1.000000
 FoFCou: FMM=F IPFlag=           0 FMFlag=      100000 FMFlg1=           0
         NFxFlg=           0 DoJE=T BraDBF=F KetDBF=T FulRan=T
         wScrn=  0.000000 ICntrl=     500 IOpCl=  0 I1Cent=   200000004 NGrid=           0
         NMat0=    1 NMatS0=      1 NMatT0=    0 NMatD0=    1 NMtDS0=    0 NMtDT0=    0
 Petite list used in FoFCou.
 Keep R1 ints in memory in canonical form, NReq=18960673.
 Requested convergence on RMS density matrix=1.00D-08 within 128 cycles.
 Requested convergence on MAX density matrix=1.00D-06.
 Requested convergence on             energy=1.00D-06.
 No special actions if energy rises.
 SCF Done:  E(RM062X) =  -1048.53594684     A.U. after   10 cycles
            NFock= 10  Conv=0.81D-08     -V/T= 2.0039
 Calling FoFJK, ICntrl=      2127 FMM=F ISym2X=0 I1Cent= 0 IOpClX= 0 NMat=1 NMatS=1 NMatT=0.
 ***** Axes restored to original set *****
 -------------------------------------------------------------------
 Center     Atomic                   Forces (Hartrees/Bohr)
 Number     Number              X              Y              Z
 -------------------------------------------------------------------
      1        6           0.000827247    0.000742299   -0.000069975
      2       16          -0.000353827   -0.001028558   -0.000077045
      3        8           0.000150913    0.000021092    0.000665954
      4        8          -0.000304519    0.000432066   -0.000523359
      5       17          -0.000028420    0.000265108    0.000041047
      6        1          -0.000129798   -0.000236145    0.000073758
      7        1          -0.000148807   -0.000140872    0.000042209
      8        1          -0.000012788   -0.000054990   -0.000152589
 -------------------------------------------------------------------
 Cartesian Forces:  Max     0.001028558 RMS     0.000391067

 GradGradGradGradGradGradGradGradGradGradGradGradGradGradGradGradGradGrad
 Berny optimization.
 Using GEDIIS/GDIIS optimizer.
 FormGI is forming the generalized inverse of G from B-inverse, IUseBI=4.
 Internal  Forces:  Max     0.000686991 RMS     0.000278253
 Search for a local minimum.
 Step number   5 out of a maximum of   38
 All quantities printed in internal units (Hartrees-Bohrs-Radians)
 Mixed Optimization -- En-DIIS/RFO-DIIS
 Swapping is turned off.
 Update second derivatives using D2CorX and points    1    2    3    4    5
 DE= -2.41D-05 DEPred=-1.94D-05 R= 1.24D+00
 TightC=F SS=  1.41D+00  RLast= 7.75D-02 DXNew= 8.2191D-01 2.3247D-01
 Trust test= 1.24D+00 RLast= 7.75D-02 DXMaxT set to 4.89D-01
 ITU=  1  1  1  1  0
     Eigenvalues ---    0.00319   0.06374   0.06675   0.10780   0.11222
     Eigenvalues ---    0.15949   0.16078   0.18380   0.22478   0.24959
     Eigenvalues ---    0.27842   0.29161   0.34664   0.34682   0.35003
     Eigenvalues ---    0.39717   0.94790   0.95968
 En-DIIS/RFO-DIIS IScMMF=        0 using points:     5    4    3
 RFO step:  Lambda=-3.70476246D-06.
 DidBck=F Rises=F RFO-DIIS coefs:    1.25590   -0.23384   -0.02206
 Iteration  1 RMS(Cart)=  0.00766892 RMS(Int)=  0.00003231
 Iteration  2 RMS(Cart)=  0.00003325 RMS(Int)=  0.00000126
 Iteration  3 RMS(Cart)=  0.00000000 RMS(Int)=  0.00000126
 Variable       Old X    -DE/DX   Delta X   Delta X   Delta X     New X
                                 (Linear)    (Quad)   (Total)
    R1        3.37171  -0.00062   0.00006  -0.00196  -0.00190   3.36980
    R2        2.05941   0.00007   0.00001   0.00016   0.00017   2.05958
    R3        2.05932   0.00011   0.00006   0.00022   0.00028   2.05960
    R4        2.06509  -0.00008  -0.00022  -0.00011  -0.00033   2.06476
    R5        2.72898   0.00064  -0.00013   0.00064   0.00051   2.72948
    R6        2.72887   0.00069  -0.00011   0.00068   0.00058   2.72945
    R7        3.92774  -0.00024   0.00180  -0.00070   0.00110   3.92884
    A1        1.88959   0.00025  -0.00047   0.00146   0.00099   1.89058
    A2        1.89033   0.00022  -0.00086   0.00131   0.00045   1.89078
    A3        1.84443  -0.00004   0.00060   0.00010   0.00070   1.84513
    A4        1.95889  -0.00026   0.00023  -0.00181  -0.00158   1.95731
    A5        1.93897  -0.00010  -0.00001  -0.00080  -0.00081   1.93816
    A6        1.93671  -0.00004   0.00047  -0.00002   0.00045   1.93716
    A7        1.90968  -0.00035   0.00052  -0.00125  -0.00073   1.90895
    A8        1.91064  -0.00042   0.00031  -0.00153  -0.00123   1.90941
    A9        1.74092   0.00034  -0.00061   0.00223   0.00163   1.74255
   A10        2.12838   0.00040   0.00076   0.00026   0.00102   2.12939
   A11        1.86707   0.00000  -0.00071   0.00022  -0.00049   1.86657
   A12        1.86624   0.00007  -0.00062   0.00067   0.00004   1.86628
    D1       -3.04150   0.00001   0.00825   0.00608   0.01433  -3.02716
    D2        0.86752   0.00014   0.00650   0.00816   0.01465   0.88217
    D3       -1.08668   0.00005   0.00736   0.00692   0.01427  -1.07241
    D4       -0.91332  -0.00002   0.00774   0.00554   0.01328  -0.90005
    D5        2.99569   0.00010   0.00598   0.00761   0.01359   3.00929
    D6        1.04149   0.00001   0.00684   0.00637   0.01322   1.05471
    D7        1.16305   0.00002   0.00818   0.00623   0.01440   1.17745
    D8       -1.21112   0.00015   0.00642   0.00831   0.01472  -1.19640
    D9        3.11786   0.00006   0.00728   0.00706   0.01434   3.13221
         Item               Value     Threshold  Converged?
 Maximum Force            0.000687     0.000450     NO 
 RMS     Force            0.000278     0.000300     YES
 Maximum Displacement     0.018705     0.001800     NO 
 RMS     Displacement     0.007669     0.001200     NO 
 Predicted change in Energy=-5.869580D-06
 GradGradGradGradGradGradGradGradGradGradGradGradGradGradGradGradGradGrad

                          Input orientation:                          
 ---------------------------------------------------------------------
 Center     Atomic      Atomic             Coordinates (Angstroms)
 Number     Number       Type             X           Y           Z
 ---------------------------------------------------------------------
      1          6           0        0.719709   -0.604857    0.588100
      2         16           0        2.352688    0.001333    0.206266
      3          8           0        3.016533    0.392185    1.428058
      4          8           0        2.283633    0.876069   -0.941012
      5         17           0        3.246944   -1.763962   -0.431306
      6          1           0        0.279451   -1.002621   -0.326123
      7          1           0        0.808789   -1.363827    1.365204
      8          1           0        0.159453    0.260981    0.949013
 ---------------------------------------------------------------------
                    Distance matrix (angstroms):
                    1          2          3          4          5
     1  C    0.000000
     2  S    1.783223   0.000000
     3  O    2.641027   1.444380   0.000000
     4  O    2.641436   1.444360   2.526614   0.000000
     5  Cl   2.961356   2.079052   2.856448   2.856139   0.000000
     6  H    1.089883   2.364249   3.537549   2.815015   3.065407
     7  H    1.089891   2.364408   2.821643   3.537080   3.054858
     8  H    1.092621   2.330101   2.899933   2.909066   3.941862
                    6          7          8
     6  H    0.000000
     7  H    1.808662   0.000000
     8  H    1.799183   1.798571   0.000000
 Stoichiometry    CH3ClO2S
 Framework group  C1[X(CH3ClO2S)]
 Deg. of freedom    18
 Full point group                 C1      NOp   1
 Largest Abelian subgroup         C1      NOp   1
 Largest concise Abelian subgroup C1      NOp   1
                         Standard orientation:                         
 ---------------------------------------------------------------------
 Center     Atomic      Atomic             Coordinates (Angstroms)
 Number     Number       Type             X           Y           Z
 ---------------------------------------------------------------------
      1          6           0       -0.980149    1.492972    0.001264
      2         16           0       -0.417337   -0.199105   -0.000036
      3          8           0       -0.750649   -0.813973   -1.263789
      4          8           0       -0.749726   -0.816260    1.262824
      5         17           0        1.638572    0.110248   -0.000169
      6          1           0       -0.618845    1.973528    0.910313
      7          1           0       -0.604059    1.980052   -0.898276
      8          1           0       -2.071534    1.441911   -0.008456
 ---------------------------------------------------------------------
 Rotational constants (GHZ):      4.5249665      2.7025192      2.6146843
 Standard basis: 6-31+G(d) (6D, 7F)
 There are   109 symmetry adapted cartesian basis functions of A   symmetry.
 There are   109 symmetry adapted basis functions of A   symmetry.
   109 basis functions,   220 primitive gaussians,   109 cartesian basis functions
    29 alpha electrons       29 beta electrons
       nuclear repulsion energy       329.6524216911 Hartrees.
 NAtoms=    8 NActive=    8 NUniq=    8 SFac= 1.00D+00 NAtFMM=   60 NAOKFM=F Big=F
 Integral buffers will be    131072 words long.
 Raffenetti 2 integral format.
 Two-electron integral symmetry is turned on.
 One-electron integrals computed using PRISM.
 NBasis=   109 RedAO= T EigKep=  3.02D-04  NBF=   109
 NBsUse=   109 1.00D-06 EigRej= -1.00D+00 NBFU=   109
 Initial guess from the checkpoint file:  "/srv/scratch/z5358697/gauss/Gau-3151414.chk"
 B after Tr=     0.000000    0.000000    0.000000
         Rot=    1.000000    0.000514   -0.000063   -0.000617 Ang=   0.09 deg.
 Keep R1 ints in memory in canonical form, NReq=18960673.
 Requested convergence on RMS density matrix=1.00D-08 within 128 cycles.
 Requested convergence on MAX density matrix=1.00D-06.
 Requested convergence on             energy=1.00D-06.
 No special actions if energy rises.
 SCF Done:  E(RM062X) =  -1048.53595402     A.U. after   10 cycles
            NFock= 10  Conv=0.37D-08     -V/T= 2.0039
 Calling FoFJK, ICntrl=      2127 FMM=F ISym2X=0 I1Cent= 0 IOpClX= 0 NMat=1 NMatS=1 NMatT=0.
 ***** Axes restored to original set *****
 -------------------------------------------------------------------
 Center     Atomic                   Forces (Hartrees/Bohr)
 Number     Number              X              Y              Z
 -------------------------------------------------------------------
      1        6           0.000453287    0.000086618   -0.000092268
      2       16          -0.000030099   -0.000676083   -0.000119705
      3        8           0.000076285    0.000057904    0.000277567
      4        8          -0.000114449    0.000216454   -0.000204417
      5       17          -0.000198443    0.000415836    0.000135780
      6        1          -0.000097756   -0.000100653    0.000046077
      7        1          -0.000109460   -0.000055161    0.000012382
      8        1           0.000020635    0.000055085   -0.000055416
 -------------------------------------------------------------------
 Cartesian Forces:  Max     0.000676083 RMS     0.000219471

 GradGradGradGradGradGradGradGradGradGradGradGradGradGradGradGradGradGrad
 Berny optimization.
 Using GEDIIS/GDIIS optimizer.
 FormGI is forming the generalized inverse of G from B-inverse, IUseBI=4.
 Internal  Forces:  Max     0.000471545 RMS     0.000150326
 Search for a local minimum.
 Step number   6 out of a maximum of   38
 All quantities printed in internal units (Hartrees-Bohrs-Radians)
 Mixed Optimization -- En-DIIS/RFO-DIIS
 Swapping is turned off.
 Update second derivatives using D2CorX and points    1    2    3    4    5
                                                      6
 DE= -7.18D-06 DEPred=-5.87D-06 R= 1.22D+00
 TightC=F SS=  1.41D+00  RLast= 4.25D-02 DXNew= 8.2191D-01 1.2750D-01
 Trust test= 1.22D+00 RLast= 4.25D-02 DXMaxT set to 4.89D-01
 ITU=  1  1  1  1  1  0
     Eigenvalues ---    0.00265   0.06497   0.06656   0.10954   0.11244
     Eigenvalues ---    0.14753   0.15944   0.17142   0.21763   0.24949
     Eigenvalues ---    0.28630   0.31751   0.34674   0.34708   0.35157
     Eigenvalues ---    0.38022   0.91694   0.94797
 En-DIIS/RFO-DIIS IScMMF=        0 using points:     6    5    4    3
 RFO step:  Lambda=-1.30790959D-06.
 DidBck=F Rises=F RFO-DIIS coefs:    1.65594   -0.72417   -0.02090    0.08913
 Iteration  1 RMS(Cart)=  0.00418136 RMS(Int)=  0.00001006
 Iteration  2 RMS(Cart)=  0.00001003 RMS(Int)=  0.00000169
 Iteration  3 RMS(Cart)=  0.00000000 RMS(Int)=  0.00000169
 Variable       Old X    -DE/DX   Delta X   Delta X   Delta X     New X
                                 (Linear)    (Quad)   (Total)
    R1        3.36980  -0.00026  -0.00161   0.00000  -0.00161   3.36819
    R2        2.05958   0.00003   0.00018  -0.00003   0.00015   2.05973
    R3        2.05960   0.00003   0.00026  -0.00012   0.00014   2.05974
    R4        2.06476   0.00002  -0.00023   0.00028   0.00005   2.06481
    R5        2.72948   0.00028   0.00058  -0.00011   0.00048   2.72996
    R6        2.72945   0.00030   0.00062  -0.00012   0.00051   2.72995
    R7        3.92884  -0.00047  -0.00083  -0.00106  -0.00189   3.92695
    A1        1.89058   0.00018   0.00135   0.00029   0.00165   1.89223
    A2        1.89078   0.00018   0.00133   0.00011   0.00144   1.89222
    A3        1.84513  -0.00016  -0.00033  -0.00075  -0.00108   1.84405
    A4        1.95731  -0.00015  -0.00158   0.00037  -0.00120   1.95611
    A5        1.93816  -0.00003  -0.00057  -0.00019  -0.00076   1.93740
    A6        1.93716   0.00000  -0.00002   0.00011   0.00009   1.93725
    A7        1.90895  -0.00009  -0.00063   0.00016  -0.00046   1.90849
    A8        1.90941  -0.00014  -0.00080  -0.00007  -0.00087   1.90854
    A9        1.74255   0.00001   0.00144  -0.00058   0.00087   1.74342
   A10        2.12939   0.00011   0.00065  -0.00032   0.00033   2.12973
   A11        1.86657   0.00004  -0.00041   0.00043   0.00002   1.86660
   A12        1.86628   0.00007  -0.00002   0.00032   0.00030   1.86658
    D1       -3.02716  -0.00002   0.00478   0.00202   0.00680  -3.02037
    D2        0.88217   0.00003   0.00513   0.00236   0.00750   0.88967
    D3       -1.07241   0.00000   0.00477   0.00229   0.00706  -1.06535
    D4       -0.90005   0.00001   0.00448   0.00270   0.00719  -0.89286
    D5        3.00929   0.00006   0.00484   0.00305   0.00789   3.01717
    D6        1.05471   0.00003   0.00448   0.00297   0.00745   1.06216
    D7        1.17745   0.00001   0.00495   0.00249   0.00744   1.18489
    D8       -1.19640   0.00006   0.00530   0.00284   0.00814  -1.18826
    D9        3.13221   0.00003   0.00494   0.00276   0.00770   3.13991
         Item               Value     Threshold  Converged?
 Maximum Force            0.000472     0.000450     NO 
 RMS     Force            0.000150     0.000300     YES
 Maximum Displacement     0.010775     0.001800     NO 
 RMS     Displacement     0.004181     0.001200     NO 
 Predicted change in Energy=-1.922248D-06
 GradGradGradGradGradGradGradGradGradGradGradGradGradGradGradGradGradGrad

                          Input orientation:                          
 ---------------------------------------------------------------------
 Center     Atomic      Atomic             Coordinates (Angstroms)
 Number     Number       Type             X           Y           Z
 ---------------------------------------------------------------------
      1          6           0        0.720511   -0.604939    0.588052
      2         16           0        2.352886    0.000621    0.206620
      3          8           0        3.017179    0.388810    1.429316
      4          8           0        2.282382    0.878136   -0.938782
      5         17           0        3.246676   -1.762266   -0.435000
      6          1           0        0.280701   -1.007608   -0.324333
      7          1           0        0.807235   -1.360321    1.369016
      8          1           0        0.159630    0.262867    0.943311
 ---------------------------------------------------------------------
                    Distance matrix (angstroms):
                    1          2          3          4          5
     1  C    0.000000
     2  S    1.782370   0.000000
     3  O    2.640066   1.444632   0.000000
     4  O    2.640109   1.444628   2.527301   0.000000
     5  Cl   2.961006   2.078054   2.855779   2.855763   0.000000
     6  H    1.089964   2.364823   3.537454   2.817855   3.062477
     7  H    1.089967   2.364818   2.819033   3.537327   3.060541
     8  H    1.092650   2.328488   2.901318   2.902913   3.940909
                    6          7          8
     6  H    0.000000
     7  H    1.808059   0.000000
     8  H    1.798802   1.798710   0.000000
 Stoichiometry    CH3ClO2S
 Framework group  C1[X(CH3ClO2S)]
 Deg. of freedom    18
 Full point group                 C1      NOp   1
 Largest Abelian subgroup         C1      NOp   1
 Largest concise Abelian subgroup C1      NOp   1
                         Standard orientation:                         
 ---------------------------------------------------------------------
 Center     Atomic      Atomic             Coordinates (Angstroms)
 Number     Number       Type             X           Y           Z
 ---------------------------------------------------------------------
      1          6           0       -0.981307    1.491440    0.000154
      2         16           0       -0.416645   -0.199122   -0.000004
      3          8           0       -0.749641   -0.814836   -1.263716
      4          8           0       -0.749570   -0.815120    1.263585
      5         17           0        1.638157    0.110874   -0.000010
      6          1           0       -0.615446    1.976609    0.905018
      7          1           0       -0.612733    1.977674   -0.903039
      8          1           0       -2.072639    1.437808   -0.001608
 ---------------------------------------------------------------------
 Rotational constants (GHZ):      4.5265823      2.7029339      2.6163351
 Standard basis: 6-31+G(d) (6D, 7F)
 There are   109 symmetry adapted cartesian basis functions of A   symmetry.
 There are   109 symmetry adapted basis functions of A   symmetry.
   109 basis functions,   220 primitive gaussians,   109 cartesian basis functions
    29 alpha electrons       29 beta electrons
       nuclear repulsion energy       329.6993042287 Hartrees.
 NAtoms=    8 NActive=    8 NUniq=    8 SFac= 1.00D+00 NAtFMM=   60 NAOKFM=F Big=F
 Integral buffers will be    131072 words long.
 Raffenetti 2 integral format.
 Two-electron integral symmetry is turned on.
 One-electron integrals computed using PRISM.
 NBasis=   109 RedAO= T EigKep=  3.01D-04  NBF=   109
 NBsUse=   109 1.00D-06 EigRej= -1.00D+00 NBFU=   109
 Initial guess from the checkpoint file:  "/srv/scratch/z5358697/gauss/Gau-3151414.chk"
 B after Tr=     0.000000    0.000000    0.000000
         Rot=    1.000000    0.000407   -0.000024   -0.000320 Ang=   0.06 deg.
 Keep R1 ints in memory in canonical form, NReq=18960673.
 Requested convergence on RMS density matrix=1.00D-08 within 128 cycles.
 Requested convergence on MAX density matrix=1.00D-06.
 Requested convergence on             energy=1.00D-06.
 No special actions if energy rises.
 SCF Done:  E(RM062X) =  -1048.53595622     A.U. after    9 cycles
            NFock=  9  Conv=0.56D-08     -V/T= 2.0039
 Calling FoFJK, ICntrl=      2127 FMM=F ISym2X=0 I1Cent= 0 IOpClX= 0 NMat=1 NMatS=1 NMatT=0.
 ***** Axes restored to original set *****
 -------------------------------------------------------------------
 Center     Atomic                   Forces (Hartrees/Bohr)
 Number     Number              X              Y              Z
 -------------------------------------------------------------------
      1        6           0.000003722   -0.000110095   -0.000014652
      2       16           0.000134215   -0.000227828   -0.000088980
      3        8          -0.000017341    0.000038145   -0.000025119
      4        8           0.000002149    0.000033675    0.000044761
      5       17          -0.000100539    0.000233340    0.000075716
      6        1          -0.000002485    0.000006272    0.000005034
      7        1          -0.000007295    0.000014222    0.000006032
      8        1          -0.000012427    0.000012270   -0.000002792
 -------------------------------------------------------------------
 Cartesian Forces:  Max     0.000233340 RMS     0.000083336

 GradGradGradGradGradGradGradGradGradGradGradGradGradGradGradGradGradGrad
 Berny optimization.
 Using GEDIIS/GDIIS optimizer.
 FormGI is forming the generalized inverse of G from B-inverse, IUseBI=4.
 Internal  Forces:  Max     0.000255732 RMS     0.000052114
 Search for a local minimum.
 Step number   7 out of a maximum of   38
 All quantities printed in internal units (Hartrees-Bohrs-Radians)
 Mixed Optimization -- En-DIIS/RFO-DIIS
 Swapping is turned off.
 Update second derivatives using D2CorX and points    1    2    3    4    5
                                                      6    7
 DE= -2.20D-06 DEPred=-1.92D-06 R= 1.15D+00
 TightC=F SS=  1.41D+00  RLast= 2.28D-02 DXNew= 8.2191D-01 6.8346D-02
 Trust test= 1.15D+00 RLast= 2.28D-02 DXMaxT set to 4.89D-01
 ITU=  1  1  1  1  1  1  0
     Eigenvalues ---    0.00252   0.06413   0.06649   0.09901   0.11227
     Eigenvalues ---    0.14302   0.15956   0.16691   0.21224   0.24965
     Eigenvalues ---    0.27268   0.30068   0.34672   0.34688   0.35181
     Eigenvalues ---    0.41578   0.94476   0.94807
 En-DIIS/RFO-DIIS IScMMF=        0 using points:     7    6    5    4    3
 RFO step:  Lambda=-1.64560657D-07.
 DidBck=F Rises=F RFO-DIIS coefs:    1.54455   -0.80842    0.25663    0.03483   -0.02758
 Iteration  1 RMS(Cart)=  0.00084818 RMS(Int)=  0.00000089
 Iteration  2 RMS(Cart)=  0.00000043 RMS(Int)=  0.00000077
 Variable       Old X    -DE/DX   Delta X   Delta X   Delta X     New X
                                 (Linear)    (Quad)   (Total)
    R1        3.36819   0.00004  -0.00026   0.00019  -0.00007   3.36812
    R2        2.05973  -0.00001   0.00001  -0.00003  -0.00002   2.05971
    R3        2.05974  -0.00001  -0.00003   0.00001  -0.00002   2.05972
    R4        2.06481   0.00002   0.00015  -0.00007   0.00008   2.06489
    R5        2.72996  -0.00002   0.00006  -0.00002   0.00004   2.72999
    R6        2.72995  -0.00002   0.00005   0.00000   0.00005   2.73000
    R7        3.92695  -0.00026  -0.00101  -0.00048  -0.00149   3.92547
    A1        1.89223   0.00002   0.00045  -0.00014   0.00032   1.89255
    A2        1.89222   0.00002   0.00042  -0.00005   0.00036   1.89259
    A3        1.84405  -0.00003  -0.00058   0.00020  -0.00038   1.84367
    A4        1.95611   0.00000  -0.00008   0.00017   0.00009   1.95620
    A5        1.93740  -0.00001  -0.00019  -0.00008  -0.00027   1.93713
[...]
     8   1     0.00   0.01  -0.27     0.02   0.04   0.00     0.00   0.58   0.00
                     13                     14                     15
                      A                      A                      A
 Frequencies --   1415.7940              1468.3121              1473.0552
 Red. masses --     11.9760                 1.0774                 1.0478
 Frc consts  --     14.1436                 1.3686                 1.3396
 IR Inten    --    255.8506                 0.3642                 5.6875
  Atom  AN      X      Y      Z        X      Y      Z        X      Y      Z
     1   6     0.00   0.00  -0.08     0.00   0.00   0.06     0.05   0.02   0.00
     2  16     0.00   0.00   0.40     0.00   0.00   0.03     0.01   0.00   0.00
     3   8    -0.10  -0.18  -0.39     0.00  -0.01  -0.02     0.00   0.00   0.00
     4   8     0.10   0.18  -0.39     0.00   0.01  -0.02     0.00   0.00   0.00
     5  17     0.00   0.00   0.00     0.00   0.00   0.00     0.00   0.00   0.00
     6   1    -0.25  -0.10   0.09     0.47  -0.15  -0.07    -0.42  -0.34   0.38
     7   1     0.25   0.10   0.09    -0.47   0.15  -0.07    -0.41  -0.34  -0.38
     8   1     0.00   0.00   0.53     0.00   0.00  -0.71     0.02   0.36   0.00
                     16                     17                     18
                      A                      A                      A
 Frequencies --   3106.9513              3214.0785              3236.0420
 Red. masses --      1.0295                 1.1060                 1.1098
 Frc consts  --      5.8552                 6.7316                 6.8474
 IR Inten    --      1.0256                 3.1116                 3.2379
  Atom  AN      X      Y      Z        X      Y      Z        X      Y      Z
     1   6     0.03  -0.04   0.00    -0.09  -0.04   0.00     0.00   0.00  -0.10
     2  16     0.00   0.00   0.00     0.00   0.00   0.00     0.00   0.00   0.00
     3   8     0.00   0.00   0.00     0.00   0.00   0.00     0.00   0.00   0.00
     4   8     0.00   0.00   0.00     0.00   0.00   0.00     0.00   0.00   0.00
     5  17     0.00   0.00   0.00     0.00   0.00   0.00     0.00   0.00   0.00
     6   1     0.18   0.23   0.44     0.15   0.21   0.40     0.24   0.32   0.58
     7   1     0.18   0.23  -0.44     0.15   0.21  -0.40    -0.24  -0.32   0.58
     8   1    -0.66  -0.04   0.00     0.74   0.03   0.00     0.00   0.00  -0.01

 -------------------
 - Thermochemistry -
 -------------------
 Temperature   298.150 Kelvin.  Pressure   1.00000 Atm.
 Atom     1 has atomic number  6 and mass  12.00000
 Atom     2 has atomic number 16 and mass  31.97207
 Atom     3 has atomic number  8 and mass  15.99491
 Atom     4 has atomic number  8 and mass  15.99491
 Atom     5 has atomic number 17 and mass  34.96885
 Atom     6 has atomic number  1 and mass   1.00783
 Atom     7 has atomic number  1 and mass   1.00783
 Atom     8 has atomic number  1 and mass   1.00783
 Molecular mass:   113.95423 amu.
 Principal axes and moments of inertia in atomic units:
                           1         2         3
     Eigenvalues --   398.66293 667.45406 689.56753
           X            0.99705  -0.07675  -0.00001
           Y            0.07675   0.99705   0.00005
           Z            0.00000  -0.00005   1.00000
 This molecule is an asymmetric top.
 Rotational symmetry number  1.
 Rotational temperatures (Kelvin)      0.21726     0.12977     0.12561
 Rotational constants (GHZ):           4.52699     2.70392     2.61721
 Zero-point vibrational energy     130045.5 (Joules/Mol)
                                   31.08163 (Kcal/Mol)
 Warning -- explicit consideration of   7 degrees of freedom as
           vibrations may cause significant error
 Vibrational temperatures:    314.80   345.32   395.00   507.39   534.14
          (Kelvin)            701.77   772.05  1110.98  1438.12  1439.42
                             1724.18  1979.12  2037.01  2112.57  2119.40
                             4470.20  4624.34  4655.94
 
 Zero-point correction=                           0.049532 (Hartree/Particle)
 Thermal correction to Energy=                    0.055182
 Thermal correction to Enthalpy=                  0.056126
 Thermal correction to Gibbs Free Energy=         0.019935
 Sum of electronic and zero-point Energies=          -1048.486425
 Sum of electronic and thermal Energies=             -1048.480774
 Sum of electronic and thermal Enthalpies=           -1048.479830
 Sum of electronic and thermal Free Energies=        -1048.516021
 
                     E (Thermal)             CV                S
                      KCal/Mol        Cal/Mol-Kelvin    Cal/Mol-Kelvin
 Total                   34.627             18.861             76.170
 Electronic               0.000              0.000              0.000
 Translational            0.889              2.981             40.107
 Rotational               0.889              2.981             26.709
 Vibrational             32.850             12.899              9.354
 Vibration     1          0.647              1.812              1.969
 Vibration     2          0.657              1.779              1.803
 Vibration     3          0.677              1.720              1.567
 Vibration     4          0.729              1.570              1.154
 Vibration     5          0.743              1.531              1.075
 Vibration     6          0.844              1.277              0.689
 Vibration     7          0.892              1.169              0.573
                       Q            Log10(Q)             Ln(Q)
 Total Bot       0.676714D-09         -9.169595        -21.113772
 Total V=0       0.410555D+14         13.613371         31.345946
 Vib (Bot)       0.923009D-22        -22.034794        -50.736988
 Vib (Bot)    1  0.904520D+00         -0.043582         -0.100351
 Vib (Bot)    2  0.816976D+00         -0.087791         -0.202145
 Vib (Bot)    3  0.702310D+00         -0.153471         -0.353381
 Vib (Bot)    4  0.522274D+00         -0.282102         -0.649563
 Vib (Bot)    5  0.489976D+00         -0.309825         -0.713398
 Vib (Bot)    6  0.340605D+00         -0.467749         -1.077031
 Vib (Bot)    7  0.296205D+00         -0.528407         -1.216703
 Vib (V=0)       0.559979D+01          0.748172          1.722730
 Vib (V=0)    1  0.153352D+01          0.185688          0.427563
 Vib (V=0)    2  0.145784D+01          0.163709          0.376953
 Vib (V=0)    3  0.136211D+01          0.134213          0.309037
 Vib (V=0)    4  0.122303D+01          0.087437          0.201330
 Vib (V=0)    5  0.120005D+01          0.079201          0.182367
 Vib (V=0)    6  0.110499D+01          0.043358          0.099836
 Vib (V=0)    7  0.108115D+01          0.033887          0.078027
 Electronic      0.100000D+01          0.000000          0.000000
 Translational   0.478135D+08          7.679551         17.682819
 Rotational      0.153338D+06          5.185648         11.940397
 ***** Axes restored to original set *****
 -------------------------------------------------------------------
 Center     Atomic                   Forces (Hartrees/Bohr)
 Number     Number              X              Y              Z
 -------------------------------------------------------------------
      1        6          -0.000052488   -0.000053781    0.000003903
      2       16           0.000071191   -0.000024555   -0.000024441
      3        8          -0.000017493    0.000013379   -0.000017856
      4        8          -0.000004978    0.000000093    0.000030318
      5       17          -0.000015951    0.000073112    0.000017984
      6        1           0.000012501    0.000000150   -0.000008440
      7        1           0.000017067    0.000003062   -0.000001888
      8        1          -0.000009849   -0.000011461    0.000000421
 -------------------------------------------------------------------
 Cartesian Forces:  Max     0.000073112 RMS     0.000029128
 FormGI is forming the generalized inverse of G from B-inverse, IUseBI=4.

 GradGradGradGradGradGradGradGradGradGradGradGradGradGradGradGradGradGrad
 Berny optimization.
 Internal  Forces:  Max     0.000065480 RMS     0.000017482
 Search for a local minimum.
 Step number   1 out of a maximum of    2
 All quantities printed in internal units (Hartrees-Bohrs-Radians)
 Second derivative matrix not updated -- analytic derivatives used.
 ITU=  0
     Eigenvalues ---    0.00229   0.04227   0.04390   0.09076   0.09789
     Eigenvalues ---    0.12273   0.12503   0.13602   0.15245   0.23219
     Eigenvalues ---    0.23224   0.24049   0.35568   0.36160   0.36263
     Eigenvalues ---    0.38041   0.68970   0.69164
 Angle between quadratic step and forces=  51.57 degrees.
 Linear search not attempted -- first point.
 Iteration  1 RMS(Cart)=  0.00015039 RMS(Int)=  0.00000001
 Iteration  2 RMS(Cart)=  0.00000001 RMS(Int)=  0.00000000
 Variable       Old X    -DE/DX   Delta X   Delta X   Delta X     New X
                                 (Linear)    (Quad)   (Total)
    R1        3.36812   0.00004   0.00000   0.00024   0.00024   3.36836
    R2        2.05971   0.00000   0.00000  -0.00001  -0.00001   2.05970
    R3        2.05972  -0.00001   0.00000  -0.00002  -0.00002   2.05970
    R4        2.06489   0.00001   0.00000   0.00001   0.00001   2.06490
    R5        2.72999  -0.00002   0.00000  -0.00002  -0.00002   2.72997
    R6        2.73000  -0.00003   0.00000  -0.00003  -0.00003   2.72997
    R7        3.92547  -0.00007   0.00000  -0.00048  -0.00048   3.92499
    A1        1.89255  -0.00001   0.00000  -0.00008  -0.00008   1.89247
    A2        1.89259  -0.00001   0.00000  -0.00011  -0.00011   1.89248
    A3        1.84367   0.00000   0.00000  -0.00004  -0.00004   1.84363
    A4        1.95620   0.00002   0.00000   0.00020   0.00020   1.95640
    A5        1.93713   0.00000   0.00000   0.00000   0.00000   1.93713
    A6        1.93713   0.00000   0.00000   0.00000   0.00000   1.93713
    A7        1.90841   0.00001   0.00000   0.00002   0.00002   1.90843
    A8        1.90844   0.00001   0.00000  -0.00001  -0.00001   1.90843
    A9        1.74369  -0.00001   0.00000   0.00001   0.00001   1.74370
   A10        2.12943  -0.00001   0.00000  -0.00008  -0.00008   2.12934
   A11        1.86674   0.00000   0.00000   0.00006   0.00006   1.86680
   A12        1.86676   0.00000   0.00000   0.00003   0.00003   1.86679
    D1       -3.01951   0.00000   0.00000   0.00010   0.00010  -3.01941
    D2        0.89109   0.00000   0.00000   0.00021   0.00021   0.89129
    D3       -1.06423   0.00000   0.00000   0.00017   0.00017  -1.06406
    D4       -0.89149   0.00000   0.00000   0.00023   0.00023  -0.89126
    D5        3.01911   0.00000   0.00000   0.00034   0.00034   3.01944
    D6        1.06379   0.00000   0.00000   0.00030   0.00030   1.06410
    D7        1.18610   0.00000   0.00000   0.00016   0.00016   1.18626
    D8       -1.18649   0.00000   0.00000   0.00026   0.00026  -1.18622
    D9        3.14138   0.00000   0.00000   0.00023   0.00023  -3.14157
         Item               Value     Threshold  Converged?
 Maximum Force            0.000065     0.000450     YES
 RMS     Force            0.000017     0.000300     YES
 Maximum Displacement     0.000312     0.001800     YES
 RMS     Displacement     0.000150     0.001200     YES
 Predicted change in Energy=-2.640148D-08
 Optimization completed.
    -- Stationary point found.
                           ----------------------------
                           !   Optimized Parameters   !
                           ! (Angstroms and Degrees)  !
 --------------------------                            --------------------------
 ! Name  Definition              Value          Derivative Info.                !
 --------------------------------------------------------------------------------
 ! R1    R(1,2)                  1.7823         -DE/DX =    0.0                 !
 ! R2    R(1,6)                  1.09           -DE/DX =    0.0                 !
 ! R3    R(1,7)                  1.09           -DE/DX =    0.0                 !
 ! R4    R(1,8)                  1.0927         -DE/DX =    0.0                 !
 ! R5    R(2,3)                  1.4447         -DE/DX =    0.0                 !
 ! R6    R(2,4)                  1.4447         -DE/DX =    0.0                 !
 ! R7    R(2,5)                  2.0773         -DE/DX =   -0.0001              !
 ! A1    A(2,1,6)              108.4351         -DE/DX =    0.0                 !
 ! A2    A(2,1,7)              108.4373         -DE/DX =    0.0                 !
 ! A3    A(2,1,8)              105.6345         -DE/DX =    0.0                 !
 ! A4    A(6,1,7)              112.0817         -DE/DX =    0.0                 !
 ! A5    A(6,1,8)              110.9893         -DE/DX =    0.0                 !
 ! A6    A(7,1,8)              110.9893         -DE/DX =    0.0                 !
 ! A7    A(1,2,3)              109.3441         -DE/DX =    0.0                 !
 ! A8    A(1,2,4)              109.3453         -DE/DX =    0.0                 !
 ! A9    A(1,2,5)               99.9063         -DE/DX =    0.0                 !
 ! A10   A(3,2,4)              122.0073         -DE/DX =    0.0                 !
 ! A11   A(3,2,5)              106.9565         -DE/DX =    0.0                 !
 ! A12   A(4,2,5)              106.9577         -DE/DX =    0.0                 !
 ! D1    D(6,1,2,3)           -173.0052         -DE/DX =    0.0                 !
 ! D2    D(6,1,2,4)             51.0555         -DE/DX =    0.0                 !
 ! D3    D(6,1,2,5)            -60.9757         -DE/DX =    0.0                 !
 ! D4    D(7,1,2,3)            -51.0786         -DE/DX =    0.0                 !
 ! D5    D(7,1,2,4)            172.982          -DE/DX =    0.0                 !
 ! D6    D(7,1,2,5)             60.9508         -DE/DX =    0.0                 !
 ! D7    D(8,1,2,3)             67.9586         -DE/DX =    0.0                 !
 ! D8    D(8,1,2,4)            -67.9807         -DE/DX =    0.0                 !
 ! D9    D(8,1,2,5)           -180.0119         -DE/DX =    0.0                 !
 --------------------------------------------------------------------------------
 GradGradGradGradGradGradGradGradGradGradGradGradGradGradGradGradGradGrad

 1\1\GINC-KATANA1\Freq\RM062X\6-31+G(d)\C1H3Cl1O2S1\Z5358697\19-Mar-202
 5\0\\#N Geom=AllCheck Guess=TCheck SCRF=Check GenChk RM062X/6-31+G(d) 
 Freq\\methanesulfonyl chloride\\0,1\C,0.7206262839,-0.6051433972,0.588
 033616\S,2.3530141835,0.0002730513,0.206605083\O,3.0173340147,0.388219
 7467,1.4293858718\O,2.2822957618,0.8785218364,-0.938253039\Cl,3.246575
 7922,-1.7615797963,-0.4356293161\H,0.2807852647,-1.0085264685,-0.32400
 90713\H,0.8067685081,-1.3596663057,1.3698810351\H,0.1598001911,0.26320
 13334,0.9421858203\\Version=ES64L-G09RevD.01\State=1-A\HF=-1048.535956
 4\RMSD=3.288e-09\RMSF=2.913e-05\ZeroPoint=0.0495317\Thermal=0.055182\D
 ipole=-1.3979383,-0.762914,0.27601\DipoleDeriv=-0.1740043,-0.0211671,0
 .0081782,0.0517365,-0.2017913,-0.0301748,0.0232876,-0.0075473,-0.14237
 56,1.8823157,-0.2279646,-0.0013343,-0.3618841,2.5936803,0.2290657,-0.0
 290621,0.1874846,2.0779073,-0.7398887,-0.1459059,-0.2051372,-0.0736404
 ,-0.7345086,-0.1651204,-0.1773299,-0.3283184,-0.9990308,-0.633848,0.04
 65103,0.0091867,0.0222821,-0.974008,0.2286997,-0.0086716,0.406813,-0.8
 655571,-0.4308151,0.3343395,0.1439083,0.4191492,-0.8978224,-0.2766416,
 0.1614617,-0.2502995,-0.2922398,0.0394278,-0.0145334,0.0102257,-0.0275
 851,0.0877529,-0.0110044,0.0138292,-0.0131978,0.0441904,0.0281059,0.00
 1033,0.0024979,-0.0087037,0.069826,0.0305637,-0.0058307,0.0256818,0.07
 34592,0.0287068,0.0276882,0.0324747,-0.0213544,0.0568712,-0.0053877,0.
 022316,-0.0206164,0.1036462\Polar=49.4612048,-6.4744306,55.2295479,-2.
 6727801,4.092722,46.8482217\PG=C01 [X(C1H3Cl1O2S1)]\NImag=0\\0.4171749
 4,-0.05110800,0.58579756,0.05268512,0.00858724,0.60638167,-0.15684337,
 -0.03061243,0.02049571,0.53895583,-0.03621794,-0.08103683,0.00904340,0
 .08658785,0.56274767,0.01933415,0.00730558,-0.07489969,0.20621975,-0.1
 4753994,1.05086015,-0.00393654,-0.01248070,-0.02908736,-0.21435332,-0.
 07108868,-0.22395686,0.19516297,-0.00495126,0.00572131,-0.01255122,-0.
 08315910,-0.11803384,-0.13150159,0.08348694,0.10560585,0.00313603,0.00
 010582,0.00131339,-0.23027925,-0.11285288,-0.48720836,0.24968131,0.138
 09517,0.50455108,0.00862823,-0.01923161,0.01932740,-0.08793153,0.00644
 231,-0.01901043,0.01805579,0.01108399,-0.01774179,0.05847965,0.0050702
 8,-0.00205103,0.01442704,0.00518974,-0.28492731,0.28798598,-0.00396981
 ,0.01554546,-0.01354238,-0.00932072,0.29022783,-0.00630182,0.01165384,
 -0.00347547,-0.01544776,0.26520196,-0.44672112,-0.00362147,0.02552768,
 -0.01416715,0.02210910,-0.30271149,0.45659184,-0.00617746,0.02012206,0
 .00755157,-0.05310395,0.02346364,0.01136856,0.00970909,-0.00295576,-0.
 00171008,0.00544325,0.00761100,-0.00107600,0.04859627,-0.00236522,-0.0
 0284563,-0.00083162,0.02890700,-0.07497071,-0.01784455,0.00530075,-0.0
 0978093,-0.01077839,0.01132221,-0.01894696,-0.00096823,-0.04710644,0.1
 0572150,0.00289313,-0.00781264,0.00220048,0.01249518,-0.01615420,-0.03
 936052,0.00494828,-0.01985572,-0.00596481,-0.00525596,0.01182462,0.007
 46895,-0.01759082,0.03168070,0.03538117,-0.09101435,-0.04257683,-0.097
 62949,-0.01181260,-0.01176275,-0.02642875,-0.00733340,-0.00339842,-0.0
 0015263,0.00183869,0.00233926,0.00193258,0.00035913,0.00158792,0.00140
 685,0.09812217,-0.04314794,-0.08827320,-0.09000410,-0.00278147,-0.0047
 9342,-0.00879326,-0.00230105,0.00062778,0.00009538,0.00093244,0.000202
 67,0.00128836,0.00077278,-0.00048830,0.00037602,0.04727319,0.08893383,
 -0.10046685,-0.09103317,-0.25514576,0.00304844,0.00361608,0.00626576,0
 .00339338,0.00131498,0.00167684,0.00021601,-0.00003009,-0.00041949,0.0
 0040632,-0.00018542,-0.00025548,0.10511051,0.09767776,0.26772801,-0.04
 693844,0.01843306,-0.02052437,0.00318922,-0.02228232,0.02186995,0.0004
 0236,0.00272444,-0.00160040,-0.00664384,-0.00450670,0.00398712,-0.0004
 4521,0.00177192,-0.00061300,-0.00000788,0.01110543,-0.00791664,0.05004
 655,0.01640873,-0.18839366,0.14508142,0.00199075,-0.00763913,0.0065801
 3,0.00031797,0.00099406,-0.00141463,-0.00172354,0.00067796,0.00066838,
 0.00048753,-0.00006186,-0.00092882,0.00063287,0.01106877,-0.01029190,-
 0.01759290,0.19695054,-0.01822522,0.14530126,-0.19907516,-0.00071391,0
 .00449769,-0.00588845,-0.00067289,-0.00127979,0.00022353,0.00124553,0.
 00065559,0.00093758,-0.00004852,-0.00101904,0.00012259,0.00048160,0.01
 782695,-0.01396270,0.01839036,-0.15667669,0.20776085,-0.12089302,0.117
 45444,0.04718141,-0.01810027,0.02485788,0.01060362,0.00229305,-0.00283
 085,-0.00133320,0.00212976,-0.00241304,-0.00158174,-0.00438113,0.00058
 186,0.00171633,0.00984823,-0.01185338,-0.00379117,0.00039724,-0.000521
 41,-0.00045694,0.12870615,0.11631134,-0.22891853,-0.07375216,-0.006122
 35,0.00865356,0.00380765,0.00073456,-0.00067971,0.00029191,0.00049491,
 -0.00072863,-0.00066050,-0.00239481,0.00137288,0.00087005,0.00590477,-
 0.00727814,-0.00106823,0.01034708,-0.01359669,-0.00930597,-0.12527549,
 0.24117526,0.04694545,-0.07410792,-0.07729946,0.00418183,-0.00581210,-
 0.00304777,-0.00068438,0.00025049,-0.00042452,-0.00088986,0.00139073,-
 0.00021514,0.00109897,-0.00005346,0.00040763,0.01527931,-0.01846709,-0
 .00588719,-0.01359302,0.01698211,0.00988176,-0.05233830,0.07981725,0.0
 7658469\\0.00005249,0.00005378,-0.00000390,-0.00007119,0.00002455,0.00
 002444,0.00001749,-0.00001338,0.00001786,0.00000498,-0.00000009,-0.000
 03032,0.00001595,-0.00007311,-0.00001798,-0.00001250,-0.00000015,0.000
 00844,-0.00001707,-0.00000306,0.00000189,0.00000985,0.00001146,-0.0000
 0042\\\@


 HOW IS IT THAT THE SKY FEEDS THE STARS?

                           -- LUCRETIUS
 Job cpu time:       0 days  0 hours  0 minutes 57.6 seconds.
 File lengths (MBytes):  RWF=    132 Int=      0 D2E=      0 Chk=      3 Scr=      2
 Normal termination of Gaussian 09 at Wed Mar 19 12:19:06 2025.
