 Entering Gaussian System, Link 0=g09
 Initial command:
 /apps/z_install_tree/linux-rocky8-ivybridge/gcc-12.2.0/gaussian-09-D.01-wczn3gur5lpur3omlkzwa2l5ecyxp5ef/g09/l1.exe "/srv/scratch/z5358697/gauss/Gau-4057973.inp" -scrdir="/srv/scratch/z5358697/gauss/"
 Entering Link 1 = /apps/z_install_tree/linux-rocky8-ivybridge/gcc-12.2.0/gaussian-09-D.01-wczn3gur5lpur3omlkzwa2l5ecyxp5ef/g09/l1.exe PID=   4057975.
  
 Copyright (c) 1988,1990,1992,1993,1995,1998,2003,2009,2013,
            Gaussian, Inc.  All Rights Reserved.
  
 This is part of the Gaussian(R) 09 program.  It is based on
 the Gaussian(R) 03 system (copyright 2003, Gaussian, Inc.),
 the Gaussian(R) 98 system (copyright 1998, Gaussian, Inc.),
 the Gaussian(R) 94 system (copyright 1995, Gaussian, Inc.),
 the Gaussian 92(TM) system (copyright 1992, Gaussian, Inc.),
 the Gaussian 90(TM) system (copyright 1990, Gaussian, Inc.),
 the Gaussian 88(TM) system (copyright 1988, Gaussian, Inc.),
 the Gaussian 86(TM) system (copyright 1986, Carnegie Mellon
 University), and the Gaussian 82(TM) system (copyright 1983,
 Carnegie Mellon University). Gaussian is a federally registered
 trademark of Gaussian, Inc.
  
 This software contains proprietary and confidential information,
 including trade secrets, belonging to Gaussian, Inc.
  
 This software is provided under written license and may be
 used, copied, transmitted, or stored only in accord with that
 written license.
  
 The following legend is applicable only to US Government
 contracts under FAR:
  
                    RESTRICTED RIGHTS LEGEND
  
 Use, reproduction and disclosure by the US Government is
 subject to restrictions as set forth in subparagraphs (a)
 and (c) of the Commercial Computer Software - Restricted
 Rights clause in FAR 52.227-19.
  
 Gaussian, Inc.
 340 Quinnipiac St., Bldg. 40, Wallingford CT 06492
  
  
 ---------------------------------------------------------------
 Warning -- This program may not be used in any manner that
 competes with the business of Gaussian, Inc. or will provide
 assistance to any competitor of Gaussian, Inc.  The licensee
 of this program is prohibited from giving any competitor of
 Gaussian, Inc. access to this program.  By using this program,
 the user acknowledges that Gaussian, Inc. is engaged in the
 business of creating and licensing software in the field of
 computational chemistry and represents and warrants to the
 licensee that it is not a competitor of Gaussian, Inc. and that
 it will not use this program in any manner prohibited above.
 ---------------------------------------------------------------
  

 Cite this work as:
 Gaussian 09, Revision D.01,
 M. J. Frisch, G. W. Trucks, H. B. Schlegel, G. E. Scuseria, 
 M. A. Robb, J. R. Cheeseman, G. Scalmani, V. Barone, B. Mennucci, 
 G. A. Petersson, H. Nakatsuji, M. Caricato, X. Li, H. P. Hratchian, 
 A. F. Izmaylov, J. Bloino, G. Zheng, J. L. Sonnenberg, M. Hada, 
 M. Ehara, K. Toyota, R. Fukuda, J. Hasegawa, M. Ishida, T. Nakajima, 
 Y. Honda, O. Kitao, H. Nakai, T. Vreven, J. A. Montgomery, Jr., 
 J. E. Peralta, F. Ogliaro, M. Bearpark, J. J. Heyd, E. Brothers, 
 K. N. Kudin, V. N. Staroverov, T. Keith, R. Kobayashi, J. Normand, 
 K. Raghavachari, A. Rendell, J. C. Burant, S. S. Iyengar, J. Tomasi, 
 M. Cossi, N. Rega, J. M. Millam, M. Klene, J. E. Knox, J. B. Cross, 
 V. Bakken, C. Adamo, J. Jaramillo, R. Gomperts, R. E. Stratmann, 
 O. Yazyev, A. J. Austin, R. Cammi, C. Pomelli, J. W. Ochterski, 
 R. L. Martin, K. Morokuma, V. G. Zakrzewski, G. A. Voth, 
 P. Salvador, J. J. Dannenberg, S. Dapprich, A. D. Daniels, 
 O. Farkas, J. B. Foresman, J. V. Ortiz, J. Cioslowski, 
 and D. J. Fox, Gaussian, Inc., Wallingford CT, 2013.
 
 ******************************************
 Gaussian 09:  ES64L-G09RevD.01 24-Apr-2013
                20-Mar-2025 
 ******************************************
 ---------------------------------
 #m062X/6-31+G(d) OPT Freq=noraman
 ---------------------------------
 1/14=-1,18=20,19=15,26=3,38=1/1,3;
 2/9=110,12=2,17=6,18=5,40=1/2;
 3/5=1,6=6,7=11,11=2,16=1,25=1,30=1,71=1,74=-55/1,2,3;
 4//1;
 5/5=2,38=5/2;
 6/7=2,8=2,9=2,10=2,28=1/1;
 7//1,2,3,16;
 1/14=-1,18=20,19=15,26=3/3(2);
 2/9=110/2;
 99//99;
 2/9=110/2;
 3/5=1,6=6,7=11,11=2,16=1,25=1,30=1,71=1,74=-55/1,2,3;
 4/5=5,16=3,69=1/1;
 5/5=2,38=5/2;
 7//1,2,3,16;
 1/14=-1,18=20,19=15,26=3/3(-5);
 2/9=110/2;
 6/7=2,8=2,9=2,10=2,19=2,28=1/1;
 99/9=1/99;
 -----------------
 1-methylimidazole
 -----------------
 Symbolic Z-matrix:
 Charge =  0 Multiplicity = 1
 C                     3.642    -2.413    -1.7031 
 N                     2.3537   -2.0366   -1.1813 
 C                     1.9499   -0.774    -0.8259 
 C                     0.6549   -0.7784   -0.364 
 N                     0.2603   -2.0844   -0.4416 
 C                     1.3133   -2.802    -0.9371 
 H                     3.5987   -2.3408   -2.7931 
 H                     4.4067   -1.7399   -1.3055 
 H                     3.8714   -3.4371   -1.3955 
 H                     2.6379    0.0541   -0.9336 
 H                     0.0268    0.0214   -0.0064 
 H                     1.2742   -3.8711   -1.1008 
 

 GradGradGradGradGradGradGradGradGradGradGradGradGradGradGradGradGradGrad
 Berny optimization.
 Initialization pass.
                           ----------------------------
                           !    Initial Parameters    !
                           ! (Angstroms and Degrees)  !
 --------------------------                            --------------------------
 ! Name  Definition              Value          Derivative Info.                !
 --------------------------------------------------------------------------------
 ! R1    R(1,2)                  1.44           estimate D2E/DX2                !
 ! R2    R(1,7)                  1.0932         estimate D2E/DX2                !
 ! R3    R(1,8)                  1.0936         estimate D2E/DX2                !
 ! R4    R(1,9)                  1.0936         estimate D2E/DX2                !
 ! R5    R(2,3)                  1.3724         estimate D2E/DX2                !
 ! R6    R(2,6)                  1.3145         estimate D2E/DX2                !
 ! R7    R(3,4)                  1.3749         estimate D2E/DX2                !
 ! R8    R(3,10)                 1.082          estimate D2E/DX2                !
 ! R9    R(4,5)                  1.3665         estimate D2E/DX2                !
 ! R10   R(4,11)                 1.078          estimate D2E/DX2                !
 ! R11   R(5,6)                  1.3672         estimate D2E/DX2                !
 ! R12   R(6,12)                 1.0823         estimate D2E/DX2                !
 ! A1    A(2,1,7)              107.9739         estimate D2E/DX2                !
 ! A2    A(2,1,8)              109.4486         estimate D2E/DX2                !
 ! A3    A(2,1,9)              109.2996         estimate D2E/DX2                !
 ! A4    A(7,1,8)              110.4594         estimate D2E/DX2                !
 ! A5    A(7,1,9)              110.5229         estimate D2E/DX2                !
 ! A6    A(8,1,9)              109.1129         estimate D2E/DX2                !
 ! A7    A(1,2,3)              126.6932         estimate D2E/DX2                !
 ! A8    A(1,2,6)              128.5507         estimate D2E/DX2                !
 ! A9    A(3,2,6)              104.7559         estimate D2E/DX2                !
 ! A10   A(2,3,4)              111.1725         estimate D2E/DX2                !
 ! A11   A(2,3,10)             119.4225         estimate D2E/DX2                !
 ! A12   A(4,3,10)             129.405          estimate D2E/DX2                !
 ! A13   A(3,4,5)              104.8305         estimate D2E/DX2                !
 ! A14   A(3,4,11)             131.1368         estimate D2E/DX2                !
 ! A15   A(5,4,11)             124.0327         estimate D2E/DX2                !
 ! A16   A(4,5,6)              107.4456         estimate D2E/DX2                !
 ! A17   A(2,6,5)              111.7955         estimate D2E/DX2                !
 ! A18   A(2,6,12)             125.1477         estimate D2E/DX2                !
 ! A19   A(5,6,12)             123.0568         estimate D2E/DX2                !
 ! D1    D(7,1,2,3)            -90.1046         estimate D2E/DX2                !
 ! D2    D(7,1,2,6)             90.0014         estimate D2E/DX2                !
 ! D3    D(8,1,2,3)             30.1782         estimate D2E/DX2                !
 ! D4    D(8,1,2,6)           -149.7158         estimate D2E/DX2                !
 ! D5    D(9,1,2,3)            149.6224         estimate D2E/DX2                !
 ! D6    D(9,1,2,6)            -30.2716         estimate D2E/DX2                !
 ! D7    D(1,2,3,4)           -179.936          estimate D2E/DX2                !
 ! D8    D(1,2,3,10)             0.0864         estimate D2E/DX2                !
 ! D9    D(6,2,3,4)             -0.0217         estimate D2E/DX2                !
 ! D10   D(6,2,3,10)          -179.9993         estimate D2E/DX2                !
 ! D11   D(1,2,6,5)            179.9548         estimate D2E/DX2                !
 ! D12   D(1,2,6,12)            -0.0299         estimate D2E/DX2                !
 ! D13   D(3,2,6,5)              0.0427         estimate D2E/DX2                !
 ! D14   D(3,2,6,12)          -179.942          estimate D2E/DX2                !
 ! D15   D(2,3,4,5)             -0.0068         estimate D2E/DX2                !
 ! D16   D(2,3,4,11)          -179.9647         estimate D2E/DX2                !
 ! D17   D(10,3,4,5)           179.9679         estimate D2E/DX2                !
 ! D18   D(10,3,4,11)            0.01           estimate D2E/DX2                !
 ! D19   D(3,4,5,6)              0.0318         estimate D2E/DX2                !
 ! D20   D(11,4,5,6)           179.9936         estimate D2E/DX2                !
 ! D21   D(4,5,6,2)             -0.0485         estimate D2E/DX2                !
 ! D22   D(4,5,6,12)           179.9365         estimate D2E/DX2                !
 --------------------------------------------------------------------------------
 Trust Radius=3.00D-01 FncErr=1.00D-07 GrdErr=1.00D-06
 Number of steps in this run=     63 maximum allowed number of steps=    100.
 GradGradGradGradGradGradGradGradGradGradGradGradGradGradGradGradGradGrad

                          Input orientation:                          
 ---------------------------------------------------------------------
 Center     Atomic      Atomic             Coordinates (Angstroms)
 Number     Number       Type             X           Y           Z
 ---------------------------------------------------------------------
      1          6           0        3.642000   -2.413000   -1.703100
      2          7           0        2.353700   -2.036600   -1.181300
      3          6           0        1.949900   -0.774000   -0.825900
      4          6           0        0.654900   -0.778400   -0.364000
      5          7           0        0.260300   -2.084400   -0.441600
      6          6           0        1.313300   -2.802000   -0.937100
      7          1           0        3.598700   -2.340800   -2.793100
      8          1           0        4.406700   -1.739900   -1.305500
      9          1           0        3.871400   -3.437100   -1.395500
     10          1           0        2.637900    0.054100   -0.933600
     11          1           0        0.026800    0.021400   -0.006400
     12          1           0        1.274200   -3.871100   -1.100800
 ---------------------------------------------------------------------
                    Distance matrix (angstroms):
                    1          2          3          4          5
     1  C    0.000000
     2  N    1.440024   0.000000
     3  C    2.513763   1.372415   0.000000
     4  C    3.658944   2.266488   1.374917   0.000000
     5  N    3.624259   2.220758   2.172460   1.366516   0.000000
     6  C    2.482120   1.314497   2.128476   2.203836   1.367216
     7  H    1.093246   2.059238   3.007205   4.124025   4.091480
     8  H    1.093579   2.078044   2.683066   3.985838   4.249428
     9  H    1.093628   2.076221   3.332973   4.298668   3.972375
    10  H    2.772531   2.124418   1.081986   2.224812   3.235464
    11  H    4.677047   3.321177   2.236639   1.077992   2.162941
    12  H    2.845224   2.130068   3.181850   3.239012   2.157507
                    6          7          8          9         10
     6  C    0.000000
     7  H    2.980016   0.000000
     8  H    3.291337   1.796357   0.000000
     9  H    2.675324   1.797088   1.781891   0.000000
    10  H    3.148315   3.180632   2.546645   3.731401   0.000000
    11  H    3.239270   5.109223   4.896260   5.354603   2.771031
    12  H    1.082267   3.257146   3.794268   2.649651   4.158705
                   11         12
    11  H    0.000000
    12  H    4.231462   0.000000
 Stoichiometry    C4H6N2
 Framework group  C1[X(C4H6N2)]
 Deg. of freedom    30
 Full point group                 C1      NOp   1
 Largest Abelian subgroup         C1      NOp   1
 Largest concise Abelian subgroup C1      NOp   1
                         Standard orientation:                         
 ---------------------------------------------------------------------
 Center     Atomic      Atomic             Coordinates (Angstroms)
 Number     Number       Type             X           Y           Z
 ---------------------------------------------------------------------
      1          6           0        2.064221   -0.083829    0.000495
      2          7           0        0.626766    0.002136    0.000791
      3          6           0       -0.257527   -1.047410    0.000000
      4          6           0       -1.557979   -0.601069   -0.000840
      5          7           0       -1.459974    0.761928   -0.000392
      6          6           0       -0.129609    1.077218   -0.000045
      7          1           0        2.401249   -0.102992    1.040319
      8          1           0        2.374396   -0.994939   -0.518723
      9          1           0        2.478109    0.783930   -0.520766
     10          1           0        0.120715   -2.061129    0.000468
     11          1           0       -2.492300   -1.138761   -0.001084
     12          1           0        0.235644    2.095988   -0.000661
 ---------------------------------------------------------------------
 Rotational constants (GHZ):      9.5655367      3.5590189      2.6381960
 Standard basis: 6-31+G(d) (6D, 7F)
 There are   126 symmetry adapted cartesian basis functions of A   symmetry.
 There are   126 symmetry adapted basis functions of A   symmetry.
   126 basis functions,   216 primitive gaussians,   126 cartesian basis functions
    22 alpha electrons       22 beta electrons
       nuclear repulsion energy       226.7085192108 Hartrees.
 NAtoms=   12 NActive=   12 NUniq=   12 SFac= 1.00D+00 NAtFMM=   60 NAOKFM=F Big=F
 Integral buffers will be    131072 words long.
 Raffenetti 2 integral format.
 Two-electron integral symmetry is turned on.
 One-electron integrals computed using PRISM.
 NBasis=   126 RedAO= T EigKep=  5.39D-05  NBF=   126
 NBsUse=   126 1.00D-06 EigRej= -1.00D+00 NBFU=   126
 ExpMin= 4.38D-02 ExpMax= 4.17D+03 ExpMxC= 6.27D+02 IAcc=2 IRadAn=         4 AccDes= 0.00D+00
 Harris functional with IExCor= 1009 and IRadAn=       4 diagonalized for initial guess.
 HarFok:  IExCor= 1009 AccDes= 0.00D+00 IRadAn=         4 IDoV= 1 UseB2=F ITyADJ=14
 ICtDFT=  3500011 ScaDFX=  1.000000  1.000000  1.000000  1.000000
 FoFCou: FMM=F IPFlag=           0 FMFlag=      100000 FMFlg1=           0
         NFxFlg=           0 DoJE=T BraDBF=F KetDBF=T FulRan=T
         wScrn=  0.000000 ICntrl=     500 IOpCl=  0 I1Cent=   200000004 NGrid=           0
         NMat0=    1 NMatS0=      1 NMatT0=    0 NMatD0=    1 NMtDS0=    0 NMtDT0=    0
 Petite list used in FoFCou.
 Keep R1 ints in memory in canonical form, NReq=33104011.
 Requested convergence on RMS density matrix=1.00D-08 within 128 cycles.
 Requested convergence on MAX density matrix=1.00D-06.
 Requested convergence on             energy=1.00D-06.
 No special actions if energy rises.
 SCF Done:  E(RM062X) =  -265.409000466     A.U. after   13 cycles
            NFock= 13  Conv=0.37D-08     -V/T= 2.0086

 **********************************************************************

            Population analysis using the SCF density.

 **********************************************************************

 Orbital symmetries:
       Occupied  (A) (A) (A) (A) (A) (A) (A) (A) (A) (A) (A) (A)
                 (A) (A) (A) (A) (A) (A) (A) (A) (A) (A)
       Virtual   (A) (A) (A) (A) (A) (A) (A) (A) (A) (A) (A) (A)
                 (A) (A) (A) (A) (A) (A) (A) (A) (A) (A) (A) (A)
                 (A) (A) (A) (A) (A) (A) (A) (A) (A) (A) (A) (A)
                 (A) (A) (A) (A) (A) (A) (A) (A) (A) (A) (A) (A)
                 (A) (A) (A) (A) (A) (A) (A) (A) (A) (A) (A) (A)
                 (A) (A) (A) (A) (A) (A) (A) (A) (A) (A) (A) (A)
                 (A) (A) (A) (A) (A) (A) (A) (A) (A) (A) (A) (A)
                 (A) (A) (A) (A) (A) (A) (A) (A) (A) (A) (A) (A)
                 (A) (A) (A) (A) (A) (A) (A) (A)
 The electronic state is 1-A.
 Alpha  occ. eigenvalues --  -14.83348 -14.73817 -10.61131 -10.59908 -10.57315
 Alpha  occ. eigenvalues --  -10.56055  -1.14510  -0.98940  -0.84160  -0.82942
 Alpha  occ. eigenvalues --   -0.68338  -0.65446  -0.61696  -0.56672  -0.52812
 Alpha  occ. eigenvalues --   -0.49749  -0.48073  -0.47434  -0.47206  -0.33011
 Alpha  occ. eigenvalues --   -0.32271  -0.27780
 Alpha virt. eigenvalues --    0.00999   0.02524   0.03228   0.03730   0.05342
 Alpha virt. eigenvalues --    0.06007   0.06748   0.06872   0.07957   0.09165
 Alpha virt. eigenvalues --    0.09745   0.10272   0.11711   0.12655   0.14247
 Alpha virt. eigenvalues --    0.15253   0.16149   0.17925   0.20194   0.20877
 Alpha virt. eigenvalues --    0.23108   0.23384   0.23930   0.24816   0.25484
 Alpha virt. eigenvalues --    0.26223   0.28338   0.28607   0.30248   0.31456
 Alpha virt. eigenvalues --    0.31895   0.33412   0.34740   0.36752   0.42089
 Alpha virt. eigenvalues --    0.48264   0.51528   0.55104   0.68066   0.70878
 Alpha virt. eigenvalues --    0.73800   0.74311   0.75599   0.77804   0.79352
 Alpha virt. eigenvalues --    0.83445   0.87695   0.89677   0.93179   0.95108
 Alpha virt. eigenvalues --    0.96709   0.97065   0.99036   1.02899   1.03976
 Alpha virt. eigenvalues --    1.06924   1.09891   1.12112   1.12631   1.13280
 Alpha virt. eigenvalues --    1.20931   1.26519   1.31961   1.33375   1.35340
 Alpha virt. eigenvalues --    1.36326   1.40831   1.43628   1.55783   1.59571
 Alpha virt. eigenvalues --    1.61461   1.63512   1.63749   1.83562   1.93896
 Alpha virt. eigenvalues --    1.96238   1.98387   2.03164   2.12772   2.15510
 Alpha virt. eigenvalues --    2.21472   2.22612   2.25752   2.29508   2.34735
 Alpha virt. eigenvalues --    2.36214   2.41070   2.44193   2.44461   2.53363
 Alpha virt. eigenvalues --    2.63905   2.73438   2.76931   2.79183   2.87515
 Alpha virt. eigenvalues --    3.03884   3.07588   3.17563   4.13124   4.19774
 Alpha virt. eigenvalues --    4.29641   4.39048   4.46415   4.50587
          Condensed to atoms (all electrons):
               1          2          3          4          5          6
     1  C    5.341972   0.205766  -0.081317  -0.011405   0.019559  -0.172192
     2  N    0.205766   6.946729   0.399345  -0.135837  -0.026704   0.099762
     3  C   -0.081317   0.399345   5.393528   0.484650  -0.171576  -0.199554
     4  C   -0.011405  -0.135837   0.484650   5.088481   0.483818  -0.086221
     5  N    0.019559  -0.026704  -0.171576   0.483818   6.633014   0.445603
     6  C   -0.172192   0.099762  -0.199554  -0.086221   0.445603   5.483899
     7  H    0.397874  -0.047274  -0.010008   0.001147  -0.000559  -0.005457
     8  H    0.393018  -0.038028   0.001151   0.001984  -0.000125  -0.006864
     9  H    0.385322  -0.042671  -0.000085  -0.000743   0.002339   0.008001
    10  H   -0.019578  -0.064954   0.365268  -0.013766   0.009506   0.032476
    11  H   -0.003009  -0.006389  -0.059871   0.393976  -0.052990   0.028925
    12  H   -0.013147  -0.097987   0.023012  -0.000053  -0.033849   0.427549
               7          8          9         10         11         12
     1  C    0.397874   0.393018   0.385322  -0.019578  -0.003009  -0.013147
     2  N   -0.047274  -0.038028  -0.042671  -0.064954  -0.006389  -0.097987
     3  C   -0.010008   0.001151  -0.000085   0.365268  -0.059871   0.023012
     4  C    0.001147   0.001984  -0.000743  -0.013766   0.393976  -0.000053
     5  N   -0.000559  -0.000125   0.002339   0.009506  -0.052990  -0.033849
     6  C   -0.005457  -0.006864   0.008001   0.032476   0.028925   0.427549
     7  H    0.474524  -0.028107  -0.028164   0.000003   0.000000   0.000035
     8  H   -0.028107   0.466921  -0.022260   0.000827  -0.000010  -0.000099
     9  H   -0.028164  -0.022260   0.467806   0.000014   0.000002   0.001308
    10  H    0.000003   0.000827   0.000014   0.480254   0.001085  -0.000043
    11  H    0.000000  -0.000010   0.000002   0.001085   0.481474   0.000009
    12  H    0.000035  -0.000099   0.001308  -0.000043   0.000009   0.476516
 Mulliken charges:
               1
     1  C   -0.442864
     2  N   -0.191759
     3  C   -0.144542
     4  C   -0.206032
     5  N   -0.308037
     6  C   -0.055926
     7  H    0.245985
     8  H    0.231590
     9  H    0.229130
    10  H    0.208909
    11  H    0.216797
    12  H    0.216749
 Sum of Mulliken charges =   0.00000
 Mulliken charges with hydrogens summed into heavy atoms:
               1
     1  C    0.263841
     2  N   -0.191759
     3  C    0.064367
     4  C    0.010765
     5  N   -0.308037
     6  C    0.160822
 Electronic spatial extent (au):  <R**2>=            490.9557
 Charge=              0.0000 electrons
 Dipole moment (field-independent basis, Debye):
    X=              4.2480    Y=             -1.4165    Z=             -0.0275  Tot=              4.4781
 Quadrupole moment (field-independent basis, Debye-Ang):
   XX=            -34.5203   YY=            -34.3224   ZZ=            -38.5659
   XY=              4.7628   XZ=             -0.1620   YZ=              0.0158
 Traceless Quadrupole moment (field-independent basis, Debye-Ang):
   XX=              1.2825   YY=              1.4805   ZZ=             -2.7630
   XY=              4.7628   XZ=             -0.1620   YZ=              0.0158
 Octapole moment (field-independent basis, Debye-Ang**2):
  XXX=             15.5629  YYY=             -0.2825  ZZZ=              0.7296  XYY=              7.2267
  XXY=            -11.3675  XXZ=             -0.5303  XZZ=              4.7186  YZZ=              0.7855
  YYZ=             -0.7764  XYZ=             -0.0236
 Hexadecapole moment (field-independent basis, Debye-Ang**3):
 XXXX=           -417.5068 YYYY=           -174.9196 ZZZZ=            -50.5770 XXXY=             26.8241
 XXXZ=             -1.6988 YYYX=              8.4790 YYYZ=              0.2747 ZZZX=              1.6521
 ZZZY=             -0.0643 XXYY=           -107.7964 XXZZ=            -82.3011 YYZZ=            -45.2425
 XXYZ=             -0.1228 YYXZ=             -2.0089 ZZXY=             -0.1965
 N-N= 2.267085192108D+02 E-N=-1.069142162091D+03  KE= 2.631540790576D+02
 Calling FoFJK, ICntrl=      2127 FMM=F ISym2X=0 I1Cent= 0 IOpClX= 0 NMat=1 NMatS=1 NMatT=0.
 ***** Axes restored to original set *****
 -------------------------------------------------------------------
 Center     Atomic                   Forces (Hartrees/Bohr)
 Number     Number              X              Y              Z
 -------------------------------------------------------------------
      1        6           0.002073477   -0.000234508   -0.004947730
      2        7           0.004857106    0.030932004    0.009922388
      3        6           0.021943559    0.040770019   -0.001359881
      4        6           0.026134089   -0.036444760   -0.016311412
      5        7           0.008593596   -0.034181459   -0.008997249
      6        6          -0.071975827   -0.000297733    0.025540792
      7        1           0.005977096   -0.001725731   -0.000378523
      8        1          -0.001133474   -0.001211899   -0.001438166
      9        1          -0.000188737    0.001242382   -0.001556718
     10        1           0.001950253    0.000171049   -0.000448987
     11        1          -0.000130627    0.000275997    0.000293138
     12        1           0.001899490    0.000704639   -0.000317652
 -------------------------------------------------------------------
 Cartesian Forces:  Max     0.071975827 RMS     0.018813934

 GradGradGradGradGradGradGradGradGradGradGradGradGradGradGradGradGradGrad
 Berny optimization.
 FormGI is forming the generalized inverse of G from B-inverse, IUseBI=4.
 Internal  Forces:  Max     0.049214443 RMS     0.012970134
 Search for a local minimum.
 Step number   1 out of a maximum of   63
 All quantities printed in internal units (Hartrees-Bohrs-Radians)
 Mixed Optimization -- RFO/linear search
 Second derivative matrix not updated -- first step.
 ITU=  0
     Eigenvalues ---    0.01162   0.01806   0.02213   0.02215   0.02347
     Eigenvalues ---    0.02447   0.02619   0.07816   0.07910   0.16000
     Eigenvalues ---    0.16000   0.16000   0.16000   0.16000   0.16000
     Eigenvalues ---    0.22677   0.23425   0.25000   0.34397   0.34402
     Eigenvalues ---    0.34440   0.35722   0.35755   0.36238   0.39582
     Eigenvalues ---    0.44364   0.46463   0.50947   0.51040   0.60626
 RFO step:  Lambda=-2.44254357D-02 EMin= 1.16233966D-02
 Linear search not attempted -- first point.
 Iteration  1 RMS(Cart)=  0.04543581 RMS(Int)=  0.00141079
 Iteration  2 RMS(Cart)=  0.00170260 RMS(Int)=  0.00032077
 Iteration  3 RMS(Cart)=  0.00000055 RMS(Int)=  0.00032077
 Variable       Old X    -DE/DX   Delta X   Delta X   Delta X     New X
                                 (Linear)    (Quad)   (Total)
    R1        2.72125   0.00954   0.00000   0.02270   0.02270   2.74395
    R2        2.06594   0.00003   0.00000   0.00007   0.00007   2.06601
    R3        2.06657  -0.00206   0.00000  -0.00560  -0.00560   2.06097
    R4        2.06666  -0.00164   0.00000  -0.00445  -0.00445   2.06221
    R5        2.59349  -0.00790   0.00000  -0.01004  -0.00986   2.58363
    R6        2.48404   0.04752   0.00000   0.07526   0.07468   2.55871
    R7        2.59822  -0.00254   0.00000  -0.00547  -0.00478   2.59344
    R8        2.04466   0.00142   0.00000   0.00371   0.00371   2.04836
    R9        2.58234   0.00990   0.00000   0.01296   0.01321   2.59555
   R10        2.03711   0.00038   0.00000   0.00098   0.00098   2.03809
   R11        2.58366  -0.04921   0.00000  -0.09356  -0.09413   2.48953
   R12        2.04519  -0.00072   0.00000  -0.00188  -0.00188   2.04331
    A1        1.88450   0.00924   0.00000   0.05198   0.05183   1.93633
    A2        1.91024  -0.00081   0.00000  -0.00528  -0.00538   1.90486
    A3        1.90764  -0.00063   0.00000  -0.00437  -0.00448   1.90316
    A4        1.92788  -0.00363   0.00000  -0.01775  -0.01789   1.90999
    A5        1.92899  -0.00372   0.00000  -0.01837  -0.01853   1.91046
    A6        1.90438  -0.00036   0.00000  -0.00570  -0.00575   1.89863
    A7        2.21121  -0.00482   0.00000  -0.02582  -0.02568   2.18554
    A8        2.24363  -0.00539   0.00000  -0.02788  -0.02774   2.21590
    A9        1.82834   0.01021   0.00000   0.05371   0.05340   1.88173
   A10        1.94033  -0.03345   0.00000  -0.12794  -0.12708   1.81324
   A11        2.08432   0.01528   0.00000   0.05615   0.05572   2.14004
   A12        2.25854   0.01817   0.00000   0.07179   0.07136   2.32990
   A13        1.82964   0.03457   0.00000   0.12981   0.13064   1.96028
   A14        2.28877  -0.01732   0.00000  -0.06511  -0.06553   2.22324
   A15        2.16478  -0.01725   0.00000  -0.06469  -0.06511   2.09967
   A16        1.87528  -0.01413   0.00000  -0.07096  -0.07140   1.80388
   A17        1.95120   0.00280   0.00000   0.01539   0.01444   1.96564
   A18        2.18424  -0.00335   0.00000  -0.01827  -0.01780   2.16644
   A19        2.14775   0.00055   0.00000   0.00289   0.00336   2.15110
    D1       -1.57262   0.00038   0.00000   0.00971   0.00963  -1.56300
    D2        1.57082  -0.00006   0.00000  -0.00043  -0.00033   1.57049
    D3        0.52671   0.00105   0.00000   0.01627   0.01621   0.54292
    D4       -2.61303   0.00061   0.00000   0.00612   0.00625  -2.60678
    D5        2.61140  -0.00026   0.00000   0.00352   0.00338   2.61479
    D6       -0.52834  -0.00069   0.00000  -0.00663  -0.00657  -0.53491
    D7       -3.14048  -0.00057   0.00000  -0.01253  -0.01243   3.13028
    D8        0.00151  -0.00042   0.00000  -0.00971  -0.00976  -0.00825
    D9       -0.00038  -0.00023   0.00000  -0.00438  -0.00413  -0.00451
   D10       -3.14158  -0.00008   0.00000  -0.00156  -0.00146   3.14015
   D11        3.14080   0.00054   0.00000   0.01156   0.01180  -3.13059
   D12       -0.00052   0.00041   0.00000   0.00873   0.00887   0.00835
   D13        0.00074   0.00019   0.00000   0.00319   0.00330   0.00405
   D14       -3.14058   0.00006   0.00000   0.00036   0.00038  -3.14020
   D15       -0.00012   0.00020   0.00000   0.00389   0.00385   0.00373
   D16       -3.14098  -0.00001   0.00000  -0.00046  -0.00052  -3.14150
   D17        3.14103   0.00003   0.00000   0.00070   0.00074  -3.14142
   D18        0.00017  -0.00018   0.00000  -0.00365  -0.00363  -0.00346
   D19        0.00056  -0.00008   0.00000  -0.00183  -0.00195  -0.00140
   D20        3.14148   0.00011   0.00000   0.00211   0.00206  -3.13965
   D21       -0.00085  -0.00005   0.00000  -0.00082  -0.00079  -0.00163
   D22        3.14048   0.00007   0.00000   0.00194   0.00210  -3.14060
         Item               Value     Threshold  Converged?
 Maximum Force            0.049214     0.000450     NO 
 RMS     Force            0.012970     0.000300     NO 
 Maximum Displacement     0.128544     0.001800     NO 
 RMS     Displacement     0.045453     0.001200     NO 
 Predicted change in Energy=-1.318680D-02
 GradGradGradGradGradGradGradGradGradGradGradGradGradGradGradGradGradGrad

                          Input orientation:                          
 ---------------------------------------------------------------------
 Center     Atomic      Atomic             Coordinates (Angstroms)
 Number     Number       Type             X           Y           Z
 ---------------------------------------------------------------------
      1          6           0        3.622147   -2.403290   -1.705241
      2          7           0        2.335981   -1.998870   -1.166142
      3          6           0        1.989457   -0.720210   -0.828243
      4          6           0        0.694758   -0.835177   -0.387801
      5          7           0        0.239613   -2.130080   -0.438658
      6          6           0        1.270963   -2.796610   -0.915741
      7          1           0        3.622859   -2.348583   -2.797155
      8          1           0        4.398258   -1.747743   -1.308557
      9          1           0        3.833313   -3.427201   -1.392367
     10          1           0        2.670505    0.116599   -0.932487
     11          1           0        0.053199   -0.046623   -0.027569
     12          1           0        1.258747   -3.864013   -1.087941
 ---------------------------------------------------------------------
                    Distance matrix (angstroms):
                    1          2          3          4          5
     1  C    0.000000
     2  N    1.452036   0.000000
     3  C    2.503510   1.367196   0.000000
     4  C    3.572707   2.157223   1.372390   0.000000
     5  N    3.622211   2.222882   2.280672   1.373505   0.000000
     6  C    2.511190   1.354014   2.198937   2.111386   1.317404
     7  H    1.093284   2.106788   3.032526   4.082788   4.129964
     8  H    1.090618   2.082386   2.662489   3.923835   4.265821
     9  H    1.091272   2.081660   3.323529   4.192645   3.937862
    10  H    2.802252   2.154462   1.083947   2.259676   3.346740
    11  H    4.594112   3.212276   2.200885   1.078510   2.131793
    12  H    2.846125   2.155297   3.238036   3.159450   2.113463
                    6          7          8          9         10
     6  C    0.000000
     7  H    3.044973   0.000000
     8  H    3.321806   1.782745   0.000000
     9  H    2.681502   1.783575   1.773913   0.000000
    10  H    3.231993   3.234360   2.569500   3.757942   0.000000
    11  H    3.135958   5.070710   4.838831   5.251690   2.774132
    12  H    1.081273   3.287394   3.792598   2.629043   4.226404
                   11         12
    11  H    0.000000
    12  H    4.141280   0.000000
 Stoichiometry    C4H6N2
 Framework group  C1[X(C4H6N2)]
 Deg. of freedom    30
 Full point group                 C1      NOp   1
 Largest Abelian subgroup         C1      NOp   1
 Largest concise Abelian subgroup C1      NOp   1
                         Standard orientation:                         
 ---------------------------------------------------------------------
 Center     Atomic      Atomic             Coordinates (Angstroms)
 Number     Number       Type             X           Y           Z
 ---------------------------------------------------------------------
      1          6           0        2.049967   -0.006716    0.005170
      2          7           0        0.597954   -0.004875   -0.002857
      3          6           0       -0.191996   -1.120762   -0.003080
      4          6           0       -1.469721   -0.619930    0.003077
      5          7           0       -1.491590    0.753401    0.002301
      6          6           0       -0.214826    1.078057   -0.002590
      7          1           0        2.435100   -0.011388    1.028361
      8          1           0        2.409358   -0.891307   -0.521884
      9          1           0        2.410036    0.882592   -0.514788
     10          1           0        0.215631   -2.125142   -0.004638
     11          1           0       -2.392099   -1.178856    0.005000
     12          1           0        0.136887    2.100528   -0.003620
 ---------------------------------------------------------------------
 Rotational constants (GHZ):      9.1753416      3.6521894      2.6565251
 Standard basis: 6-31+G(d) (6D, 7F)
 There are   126 symmetry adapted cartesian basis functions of A   symmetry.
 There are   126 symmetry adapted basis functions of A   symmetry.
   126 basis functions,   216 primitive gaussians,   126 cartesian basis functions
    22 alpha electrons       22 beta electrons
       nuclear repulsion energy       226.8699925833 Hartrees.
 NAtoms=   12 NActive=   12 NUniq=   12 SFac= 1.00D+00 NAtFMM=   60 NAOKFM=F Big=F
 Integral buffers will be    131072 words long.
 Raffenetti 2 integral format.
 Two-electron integral symmetry is turned on.
 One-electron integrals computed using PRISM.
 NBasis=   126 RedAO= T EigKep=  5.74D-05  NBF=   126
 NBsUse=   126 1.00D-06 EigRej= -1.00D+00 NBFU=   126
 Initial guess from the checkpoint file:  "/srv/scratch/z5358697/gauss/Gau-4057975.chk"
 B after Tr=     0.000000    0.000000    0.000000
         Rot=    0.999831   -0.000249   -0.000637   -0.018379 Ang=  -2.11 deg.
 ExpMin= 4.38D-02 ExpMax= 4.17D+03 ExpMxC= 6.27D+02 IAcc=2 IRadAn=         4 AccDes= 0.00D+00
 Harris functional with IExCor= 1009 and IRadAn=       4 diagonalized for initial guess.
 HarFok:  IExCor= 1009 AccDes= 0.00D+00 IRadAn=         4 IDoV= 1 UseB2=F ITyADJ=14
 ICtDFT=  3500011 ScaDFX=  1.000000  1.000000  1.000000  1.000000
 FoFCou: FMM=F IPFlag=           0 FMFlag=      100000 FMFlg1=           0
         NFxFlg=           0 DoJE=T BraDBF=F KetDBF=T FulRan=T
         wScrn=  0.000000 ICntrl=     500 IOpCl=  0 I1Cent=   200000004 NGrid=           0
         NMat0=    1 NMatS0=      1 NMatT0=    0 NMatD0=    1 NMtDS0=    0 NMtDT0=    0
 Petite list used in FoFCou.
 Keep R1 ints in memory in canonical form, NReq=33104011.
 Requested convergence on RMS density matrix=1.00D-08 within 128 cycles.
 Requested convergence on MAX density matrix=1.00D-06.
 Requested convergence on             energy=1.00D-06.
 No special actions if energy rises.
 SCF Done:  E(RM062X) =  -265.418798788     A.U. after   12 cycles
            NFock= 12  Conv=0.41D-08     -V/T= 2.0085
 Calling FoFJK, ICntrl=      2127 FMM=F ISym2X=0 I1Cent= 0 IOpClX= 0 NMat=1 NMatS=1 NMatT=0.
 ***** Axes restored to original set *****
 -------------------------------------------------------------------
 Center     Atomic                   Forces (Hartrees/Bohr)
 Number     Number              X              Y              Z
 -------------------------------------------------------------------
      1        6          -0.002027207   -0.002370123   -0.000510459
      2        7           0.015464613   -0.006125742   -0.004042191
      3        6          -0.008867906   -0.001312693    0.001638777
      4        6          -0.010099780    0.008710301    0.004827512
      5        7           0.012222421    0.006912987   -0.003286205
      6        6          -0.010262809   -0.004255618    0.002264744
      7        1           0.000391146    0.000102319   -0.000221732
      8        1           0.000457559    0.000078337    0.000288403
      9        1           0.000620410   -0.000474209   -0.000560357
     10        1          -0.002120290   -0.002646330    0.000403966
     11        1          -0.000847557    0.002196938    0.000895540
     12        1           0.005069399   -0.000816167   -0.001697999
 -------------------------------------------------------------------
 Cartesian Forces:  Max     0.015464613 RMS     0.005197400

 GradGradGradGradGradGradGradGradGradGradGradGradGradGradGradGradGradGrad
 Berny optimization.
 Using GEDIIS/GDIIS optimizer.
 FormGI is forming the generalized inverse of G from B-inverse, IUseBI=4.
 Internal  Forces:  Max     0.010329910 RMS     0.003539608
 Search for a local minimum.
 Step number   2 out of a maximum of   63
 All quantities printed in internal units (Hartrees-Bohrs-Radians)
 Mixed Optimization -- RFO/linear search
 Update second derivatives using D2CorX and points    1    2
 DE= -9.80D-03 DEPred=-1.32D-02 R= 7.43D-01
 TightC=F SS=  1.41D+00  RLast= 2.82D-01 DXNew= 5.0454D-01 8.4640D-01
 Trust test= 7.43D-01 RLast= 2.82D-01 DXMaxT set to 5.05D-01
 ITU=  1  0
 Use linear search instead of GDIIS.
     Eigenvalues ---    0.01162   0.01825   0.02215   0.02224   0.02346
     Eigenvalues ---    0.02469   0.02615   0.07586   0.07833   0.15592
     Eigenvalues ---    0.16000   0.16000   0.16000   0.16000   0.16090
     Eigenvalues ---    0.23401   0.24833   0.30961   0.34399   0.34420
     Eigenvalues ---    0.34442   0.35724   0.35916   0.36295   0.39463
     Eigenvalues ---    0.43919   0.45349   0.50781   0.53021   0.59437
 RFO step:  Lambda=-1.10037355D-03 EMin= 1.16199207D-02
 Quartic linear search produced a step of -0.16806.
 Iteration  1 RMS(Cart)=  0.01699544 RMS(Int)=  0.00015958
 Iteration  2 RMS(Cart)=  0.00016363 RMS(Int)=  0.00007739
 Iteration  3 RMS(Cart)=  0.00000002 RMS(Int)=  0.00007739
 Variable       Old X    -DE/DX   Delta X   Delta X   Delta X     New X
                                 (Linear)    (Quad)   (Total)
    R1        2.74395   0.00062  -0.00381   0.00646   0.00264   2.74659
    R2        2.06601   0.00023  -0.00001   0.00057   0.00056   2.06657
    R3        2.06097   0.00048   0.00094  -0.00013   0.00081   2.06178
    R4        2.06221   0.00040   0.00075  -0.00006   0.00069   2.06290
    R5        2.58363   0.01009   0.00166   0.01483   0.01645   2.60008
    R6        2.55871   0.00094  -0.01255   0.01814   0.00569   2.56440
    R7        2.59344   0.00090   0.00080   0.00024   0.00092   2.59436
    R8        2.04836  -0.00342  -0.00062  -0.00708  -0.00770   2.04066
    R9        2.59555  -0.00260  -0.00222  -0.00169  -0.00395   2.59160
   R10        2.03809   0.00241  -0.00016   0.00574   0.00557   2.04366
   R11        2.48953   0.00199   0.01582  -0.01808  -0.00216   2.48737
   R12        2.04331   0.00102   0.00032   0.00194   0.00226   2.04557
    A1        1.93633   0.00025  -0.00871   0.01393   0.00524   1.94157
    A2        1.90486  -0.00008   0.00090  -0.00200  -0.00108   1.90378
    A3        1.90316   0.00113   0.00075   0.00504   0.00580   1.90896
    A4        1.90999  -0.00026   0.00301  -0.00636  -0.00332   1.90667
    A5        1.91046  -0.00063   0.00311  -0.00735  -0.00423   1.90624
    A6        1.89863  -0.00042   0.00097  -0.00352  -0.00255   1.89608
    A7        2.18554   0.00651   0.00432   0.01465   0.01887   2.20441
    A8        2.21590   0.00020   0.00466  -0.00674  -0.00216   2.21373
    A9        1.88173  -0.00671  -0.00897  -0.00805  -0.01703   1.86470
   A10        1.81324   0.00863   0.02136   0.00380   0.02501   1.83826
   A11        2.14004  -0.00431  -0.00936  -0.00378  -0.01307   2.12696
   A12        2.32990  -0.00432  -0.01199  -0.00001  -0.01193   2.31797
   A13        1.96028  -0.01016  -0.02196  -0.00761  -0.02971   1.93057
   A14        2.22324   0.00437   0.01101   0.00008   0.01116   2.23439
   A15        2.09967   0.00579   0.01094   0.00753   0.01854   2.11820
   A16        1.80388   0.01033   0.01200   0.01597   0.02806   1.83194
   A17        1.96564  -0.00209  -0.00243  -0.00407  -0.00633   1.95930
   A18        2.16644  -0.00438   0.00299  -0.02857  -0.02567   2.14077
   A19        2.15110   0.00647  -0.00056   0.03265   0.03200   2.18311
    D1       -1.56300   0.00061  -0.00162   0.03327   0.03175  -1.53125
    D2        1.57049   0.00011   0.00006   0.00801   0.00798   1.57847
    D3        0.54292   0.00040  -0.00272   0.03286   0.03021   0.57314
    D4       -2.60678  -0.00010  -0.00105   0.00759   0.00645  -2.60033
    D5        2.61479   0.00051  -0.00057   0.03038   0.02989   2.64468
    D6       -0.53491   0.00000   0.00110   0.00511   0.00613  -0.52879
    D7        3.13028  -0.00021   0.00209  -0.01391  -0.01186   3.11842
    D8       -0.00825  -0.00033   0.00164  -0.01789  -0.01627  -0.02452
    D9       -0.00451   0.00020   0.00069   0.00732   0.00798   0.00348
   D10        3.14015   0.00008   0.00025   0.00334   0.00358  -3.13946
   D11       -3.13059   0.00016  -0.00198   0.01387   0.01173  -3.11886
   D12        0.00835   0.00035  -0.00149   0.01795   0.01625   0.02461
   D13        0.00405  -0.00022  -0.00056  -0.00772  -0.00815  -0.00410
   D14       -3.14020  -0.00003  -0.00006  -0.00364  -0.00362   3.13936
   D15        0.00373  -0.00016  -0.00065  -0.00497  -0.00560  -0.00187
   D16       -3.14150  -0.00021   0.00009  -0.00818  -0.00808   3.13360
   D17       -3.14142  -0.00001  -0.00012  -0.00035  -0.00049   3.14128
   D18       -0.00346  -0.00007   0.00061  -0.00357  -0.00297  -0.00643
   D19       -0.00140   0.00005   0.00033   0.00055   0.00086  -0.00053
   D20       -3.13965   0.00010  -0.00035   0.00352   0.00316  -3.13648
   D21       -0.00163   0.00009   0.00013   0.00436   0.00450   0.00287
   D22       -3.14060  -0.00007  -0.00035   0.00043  -0.00005  -3.14065
         Item               Value     Threshold  Converged?
 Maximum Force            0.010330     0.000450     NO 
 RMS     Force            0.003540     0.000300     NO 
 Maximum Displacement     0.049508     0.001800     NO 
 RMS     Displacement     0.016981     0.001200     NO 
 Predicted change in Energy=-9.839703D-04
 GradGradGradGradGradGradGradGradGradGradGradGradGradGradGradGradGradGrad

                          Input orientation:                          
 ---------------------------------------------------------------------
 Center     Atomic      Atomic             Coordinates (Angstroms)
 Number     Number       Type             X           Y           Z
 ---------------------------------------------------------------------
      1          6           0        3.626077   -2.412560   -1.708241
      2          7           0        2.344192   -2.001655   -1.160154
      3          6           0        1.974456   -0.719127   -0.826197
      4          6           0        0.678847   -0.818750   -0.383180
      5          7           0        0.248109   -2.119563   -0.439153
      6          6           0        1.273069   -2.796909   -0.911594
      7          1           0        3.630716   -2.343867   -2.799653
      8          1           0        4.409351   -1.769477   -1.304122
      9          1           0        3.833103   -3.442673   -1.412132
     10          1           0        2.651540    0.115364   -0.932529
     11          1           0        0.035395   -0.027766   -0.022811
     12          1           0        1.284945   -3.864817   -1.088134
 ---------------------------------------------------------------------
                    Distance matrix (angstroms):
                    1          2          3          4          5
     1  C    0.000000
     2  N    1.453435   0.000000
     3  C    2.524593   1.375903   0.000000
     4  C    3.603080   2.185481   1.372877   0.000000
     5  N    3.620373   2.219754   2.256390   1.371416   0.000000
     6  C    2.513765   1.357024   2.194633   2.132003   1.316261
     7  H    1.093581   2.111921   3.045900   4.108388   4.130896
     8  H    1.091048   2.083150   2.694506   3.958368   4.264583
     9  H    1.091637   2.087315   3.348969   4.230018   3.943285
    10  H    2.818129   2.151290   1.079873   2.250749   3.318855
    11  H    4.628273   3.243506   2.209834   1.081458   2.143408
    12  H    2.823912   2.144426   3.231006   3.184783   2.131225
                    6          7          8          9         10
     6  C    0.000000
     7  H    3.054261   0.000000
     8  H    3.323546   1.781237   0.000000
     9  H    2.687252   1.781445   1.772938   0.000000
    10  H    3.222105   3.239252   2.603960   3.779648   0.000000
    11  H    3.160685   5.099167   4.879222   5.292862   2.773498
    12  H    1.082467   3.277991   3.768157   2.603131   4.211133
                   11         12
    11  H    0.000000
    12  H    4.173637   0.000000
 Stoichiometry    C4H6N2
 Framework group  C1[X(C4H6N2)]
 Deg. of freedom    30
 Full point group                 C1      NOp   1
 Largest Abelian subgroup         C1      NOp   1
 Largest concise Abelian subgroup C1      NOp   1
                         Standard orientation:                         
 ---------------------------------------------------------------------
 Center     Atomic      Atomic             Coordinates (Angstroms)
 Number     Number       Type             X           Y           Z
 ---------------------------------------------------------------------
      1          6           0        2.058595   -0.027893    0.007841
      2          7           0        0.605355   -0.012307   -0.010111
      3          6           0       -0.221260   -1.112199   -0.002704
      4          6           0       -1.497682   -0.606741    0.004400
      5          7           0       -1.474002    0.764471    0.003956
      6          6           0       -0.196706    1.082297   -0.002660
      7          1           0        2.441937   -0.056254    1.031641
      8          1           0        2.412523   -0.906793   -0.533136
      9          1           0        2.436566    0.865523   -0.492776
     10          1           0        0.169361   -2.118945   -0.004439
     11          1           0       -2.430694   -1.153585    0.004588
     12          1           0        0.193152    2.092121   -0.004061
 ---------------------------------------------------------------------
 Rotational constants (GHZ):      9.2074112      3.6198623      2.6419829
 Standard basis: 6-31+G(d) (6D, 7F)
 There are   126 symmetry adapted cartesian basis functions of A   symmetry.
 There are   126 symmetry adapted basis functions of A   symmetry.
   126 basis functions,   216 primitive gaussians,   126 cartesian basis functions
    22 alpha electrons       22 beta electrons
       nuclear repulsion energy       226.4593490975 Hartrees.
 NAtoms=   12 NActive=   12 NUniq=   12 SFac= 1.00D+00 NAtFMM=   60 NAOKFM=F Big=F
 Integral buffers will be    131072 words long.
 Raffenetti 2 integral format.
 Two-electron integral symmetry is turned on.
 One-electron integrals computed using PRISM.
 NBasis=   126 RedAO= T EigKep=  5.70D-05  NBF=   126
 NBsUse=   126 1.00D-06 EigRej= -1.00D+00 NBFU=   126
 Initial guess from the checkpoint file:  "/srv/scratch/z5358697/gauss/Gau-4057975.chk"
 B after Tr=     0.000000    0.000000    0.000000
         Rot=    0.999975   -0.000862    0.000100    0.006984 Ang=  -0.81 deg.
 ExpMin= 4.38D-02 ExpMax= 4.17D+03 ExpMxC= 6.27D+02 IAcc=2 IRadAn=         4 AccDes= 0.00D+00
 Harris functional with IExCor= 1009 and IRadAn=       4 diagonalized for initial guess.
 HarFok:  IExCor= 1009 AccDes= 0.00D+00 IRadAn=         4 IDoV= 1 UseB2=F ITyADJ=14
 ICtDFT=  3500011 ScaDFX=  1.000000  1.000000  1.000000  1.000000
 FoFCou: FMM=F IPFlag=           0 FMFlag=      100000 FMFlg1=           0
         NFxFlg=           0 DoJE=T BraDBF=F KetDBF=T FulRan=T
         wScrn=  0.000000 ICntrl=     500 IOpCl=  0 I1Cent=   200000004 NGrid=           0
         NMat0=    1 NMatS0=      1 NMatT0=    0 NMatD0=    1 NMtDS0=    0 NMtDT0=    0
 Petite list used in FoFCou.
 Keep R1 ints in memory in canonical form, NReq=33104011.
 Requested convergence on RMS density matrix=1.00D-08 within 128 cycles.
 Requested convergence on MAX density matrix=1.00D-06.
 Requested convergence on             energy=1.00D-06.
 No special actions if energy rises.
 SCF Done:  E(RM062X) =  -265.419875642     A.U. after   11 cycles
            NFock= 11  Conv=0.40D-08     -V/T= 2.0087
 Calling FoFJK, ICntrl=      2127 FMM=F ISym2X=0 I1Cent= 0 IOpClX= 0 NMat=1 NMatS=1 NMatT=0.
 ***** Axes restored to original set *****
 -------------------------------------------------------------------
 Center     Atomic                   Forces (Hartrees/Bohr)
 Number     Number              X              Y              Z
 -------------------------------------------------------------------
      1        6          -0.001608056    0.000266341    0.000198184
      2        7           0.005882125    0.001105889   -0.001166028
      3        6          -0.001747519   -0.001965199   -0.000112152
      4        6          -0.000590346    0.000482852    0.000003004
      5        7           0.002477295   -0.000438127   -0.001084785
      6        6          -0.006139734    0.000659156    0.002273365
      7        1          -0.000348720    0.000364844   -0.000028937
      8        1           0.000414678   -0.000014662    0.000249059
      9        1          -0.000393860   -0.000180892    0.000022715
     10        1           0.000201199   -0.000035151    0.000081236
     11        1           0.000316113   -0.000251463   -0.000141797
     12        1           0.001536825    0.000006412   -0.000293865
 -------------------------------------------------------------------
 Cartesian Forces:  Max     0.006139734 RMS     0.001679540

 GradGradGradGradGradGradGradGradGradGradGradGradGradGradGradGradGradGrad
 Berny optimization.
 Using GEDIIS/GDIIS optimizer.
 FormGI is forming the generalized inverse of G from B-inverse, IUseBI=4.
 Internal  Forces:  Max     0.002373349 RMS     0.000741245
 Search for a local minimum.
 Step number   3 out of a maximum of   63
 All quantities printed in internal units (Hartrees-Bohrs-Radians)
 Mixed Optimization -- En-DIIS/RFO-DIIS
 Update second derivatives using D2CorX and points    1    2    3
 DE= -1.08D-03 DEPred=-9.84D-04 R= 1.09D+00
 TightC=F SS=  1.41D+00  RLast= 1.00D-01 DXNew= 8.4853D-01 3.0051D-01
 Trust test= 1.09D+00 RLast= 1.00D-01 DXMaxT set to 5.05D-01
 ITU=  1  1  0
 Use linear search instead of GDIIS.
     Eigenvalues ---    0.01122   0.01785   0.02213   0.02222   0.02346
     Eigenvalues ---    0.02463   0.02594   0.07546   0.07809   0.14025
     Eigenvalues ---    0.16000   0.16000   0.16000   0.16031   0.16190
     Eigenvalues ---    0.23394   0.24652   0.29228   0.34395   0.34401
     Eigenvalues ---    0.34439   0.35720   0.35825   0.36417   0.40095
     Eigenvalues ---    0.43099   0.45035   0.50792   0.55503   0.61141
 RFO step:  Lambda=-1.56021453D-04 EMin= 1.12190321D-02
 Quartic linear search produced a step of  0.13143.
 Iteration  1 RMS(Cart)=  0.01331161 RMS(Int)=  0.00013176
 Iteration  2 RMS(Cart)=  0.00014440 RMS(Int)=  0.00002154
 Iteration  3 RMS(Cart)=  0.00000002 RMS(Int)=  0.00002154
 Variable       Old X    -DE/DX   Delta X   Delta X   Delta X     New X
                                 (Linear)    (Quad)   (Total)
    R1        2.74659  -0.00200   0.00035  -0.00559  -0.00524   2.74136
    R2        2.06657   0.00005   0.00007   0.00016   0.00024   2.06681
    R3        2.06178   0.00038   0.00011   0.00116   0.00127   2.06305
    R4        2.06290   0.00010   0.00009   0.00023   0.00032   2.06322
    R5        2.60008  -0.00098   0.00216  -0.00287  -0.00070   2.59938
    R6        2.56440   0.00230   0.00075   0.00545   0.00620   2.57061
    R7        2.59436  -0.00027   0.00012  -0.00090  -0.00078   2.59358
    R8        2.04066   0.00009  -0.00101   0.00065  -0.00036   2.04031
    R9        2.59160  -0.00051  -0.00052  -0.00103  -0.00155   2.59005
   R10        2.04366  -0.00042   0.00073  -0.00155  -0.00081   2.04284
   R11        2.48737  -0.00237  -0.00028  -0.00686  -0.00714   2.48023
   R12        2.04557   0.00006   0.00030   0.00008   0.00037   2.04594
    A1        1.94157  -0.00065   0.00069  -0.00431  -0.00362   1.93794
    A2        1.90378   0.00046  -0.00014   0.00389   0.00375   1.90753
    A3        1.90896  -0.00047   0.00076  -0.00397  -0.00321   1.90574
    A4        1.90667   0.00016  -0.00044   0.00147   0.00103   1.90770
    A5        1.90624   0.00041  -0.00056   0.00170   0.00114   1.90737
    A6        1.89608   0.00010  -0.00033   0.00135   0.00102   1.89710
    A7        2.20441   0.00139   0.00248   0.00489   0.00732   2.21173
    A8        2.21373   0.00003  -0.00028  -0.00072  -0.00105   2.21269
    A9        1.86470  -0.00142  -0.00224  -0.00443  -0.00669   1.85801
   A10        1.83826   0.00085   0.00329   0.00147   0.00476   1.84302
   A11        2.12696  -0.00056  -0.00172  -0.00183  -0.00356   2.12341
   A12        2.31797  -0.00029  -0.00157   0.00037  -0.00120   2.31676
   A13        1.93057  -0.00028  -0.00390   0.00102  -0.00288   1.92769
   A14        2.23439   0.00006   0.00147  -0.00100   0.00047   2.23486
   A15        2.11820   0.00022   0.00244  -0.00005   0.00239   2.12059
   A16        1.83194   0.00031   0.00369  -0.00174   0.00195   1.83388
   A17        1.95930   0.00054  -0.00083   0.00369   0.00287   1.96217
   A18        2.14077  -0.00185  -0.00337  -0.01246  -0.01584   2.12494
   A19        2.18311   0.00131   0.00421   0.00877   0.01297   2.19607
    D1       -1.53125   0.00023   0.00417   0.02667   0.03088  -1.50037
    D2        1.57847   0.00001   0.00105   0.01421   0.01524   1.59371
    D3        0.57314   0.00032   0.00397   0.02833   0.03233   0.60546
    D4       -2.60033   0.00011   0.00085   0.01586   0.01668  -2.58365
    D5        2.64468   0.00044   0.00393   0.02993   0.03388   2.67856
    D6       -0.52879   0.00023   0.00081   0.01746   0.01824  -0.51055
    D7        3.11842  -0.00029  -0.00156  -0.01512  -0.01670   3.10172
    D8       -0.02452  -0.00022  -0.00214  -0.01242  -0.01458  -0.03910
    D9        0.00348  -0.00012   0.00105  -0.00471  -0.00367  -0.00020
   D10       -3.13946  -0.00005   0.00047  -0.00202  -0.00155  -3.14101
   D11       -3.11886   0.00024   0.00154   0.01388   0.01535  -3.10351
   D12        0.02461   0.00025   0.00214   0.01339   0.01546   0.04007
   D13       -0.00410   0.00010  -0.00107   0.00352   0.00248  -0.00162
   D14        3.13936   0.00011  -0.00048   0.00303   0.00259  -3.14124
   D15       -0.00187   0.00010  -0.00074   0.00446   0.00373   0.00186
   D16        3.13360   0.00003  -0.00106   0.00126   0.00021   3.13381
   D17        3.14128   0.00002  -0.00006   0.00134   0.00127  -3.14063
   D18       -0.00643  -0.00004  -0.00039  -0.00186  -0.00225  -0.00868
   D19       -0.00053  -0.00004   0.00011  -0.00238  -0.00227  -0.00280
   D20       -3.13648   0.00002   0.00042   0.00057   0.00100  -3.13549
   D21        0.00287  -0.00004   0.00059  -0.00074  -0.00016   0.00271
   D22       -3.14065  -0.00005  -0.00001  -0.00026  -0.00031  -3.14096
         Item               Value     Threshold  Converged?
 Maximum Force            0.002373     0.000450     NO 
 RMS     Force            0.000741     0.000300     NO 
 Maximum Displacement     0.038870     0.001800     NO 
 RMS     Displacement     0.013326     0.001200     NO 
 Predicted change in Energy=-9.010462D-05
 GradGradGradGradGradGradGradGradGradGradGradGradGradGradGradGradGradGrad

                          Input orientation:                          
 ---------------------------------------------------------------------
 Center     Atomic      Atomic             Coordinates (Angstroms)
 Number     Number       Type             X           Y           Z
 ---------------------------------------------------------------------
      1          6           0        3.624894   -2.413257   -1.709194
      2          7           0        2.350202   -2.000372   -1.153221
      3          6           0        1.972539   -0.719209   -0.824465
      4          6           0        0.674738   -0.817355   -0.388870
      5          7           0        0.249812   -2.119429   -0.439554
      6          6           0        1.275300   -2.795374   -0.902241
      7          1           0        3.625274   -2.323654   -2.799224
      8          1           0        4.418405   -1.787975   -1.295415
      9          1           0        3.817555   -3.451755   -1.432701
     10          1           0        2.648481    0.115913   -0.931185
     11          1           0        0.028920   -0.025776   -0.035401
     12          1           0        1.303679   -3.863556   -1.076430
 ---------------------------------------------------------------------
                    Distance matrix (angstroms):
                    1          2          3          4          5
     1  C    0.000000
     2  N    1.450663   0.000000
     3  C    2.526425   1.375532   0.000000
     4  C    3.604661   2.188821   1.372466   0.000000
     5  N    3.617942   2.221516   2.253123   1.370594   0.000000
     6  C    2.513519   1.360306   2.191495   2.129973   1.312481
     7  H    1.093707   2.107047   3.034048   4.096877   4.123529
     8  H    1.091719   2.083938   2.710409   3.972275   4.268434
     9  H    1.091808   2.082727   3.352737   4.231660   3.935762
    10  H    2.820529   2.148705   1.079683   2.249612   3.315429
    11  H    4.629544   3.246059   2.209327   1.081027   2.143715
    12  H    2.809234   2.138355   3.224558   3.185537   2.135000
                    6          7          8          9         10
     6  C    0.000000
     7  H    3.056704   0.000000
     8  H    3.323935   1.782540   0.000000
     9  H    2.678672   1.782405   1.774270   0.000000
    10  H    3.219014   3.224155   2.624897   3.787679   0.000000
    11  H    3.158409   5.084557   4.894953   5.295615   2.772112
    12  H    1.082664   3.275533   3.749334   2.572174   4.203066
                   11         12
    11  H    0.000000
    12  H    4.175800   0.000000
 Stoichiometry    C4H6N2
 Framework group  C1[X(C4H6N2)]
 Deg. of freedom    30
 Full point group                 C1      NOp   1
 Largest Abelian subgroup         C1      NOp   1
 Largest concise Abelian subgroup C1      NOp   1
                         Standard orientation:                         
 ---------------------------------------------------------------------
 Center     Atomic      Atomic             Coordinates (Angstroms)
 Number     Number       Type             X           Y           Z
 ---------------------------------------------------------------------
      1          6           0        2.058263   -0.029249    0.012594
      2          7           0        0.607950   -0.015936   -0.016370
      3          6           0       -0.224970   -1.110581   -0.007207
      4          6           0       -1.500322   -0.603735    0.008458
      5          7           0       -1.471068    0.766546    0.006747
      6          6           0       -0.196813    1.080733   -0.006159
      7          1           0        2.429957   -0.080844    1.039908
      8          1           0        2.422295   -0.893251   -0.546719
      9          1           0        2.435063    0.878949   -0.462004
     10          1           0        0.163130   -2.118089   -0.011901
     11          1           0       -2.433878   -1.148781    0.012612
     12          1           0        0.208308    2.084734   -0.010647
 ---------------------------------------------------------------------
 Rotational constants (GHZ):      9.2271724      3.6190112      2.6433805
 Standard basis: 6-31+G(d) (6D, 7F)
 There are   126 symmetry adapted cartesian basis functions of A   symmetry.
 There are   126 symmetry adapted basis functions of A   symmetry.
   126 basis functions,   216 primitive gaussians,   126 cartesian basis functions
    22 alpha electrons       22 beta electrons
       nuclear repulsion energy       226.5447256075 Hartrees.
 NAtoms=   12 NActive=   12 NUniq=   12 SFac= 1.00D+00 NAtFMM=   60 NAOKFM=F Big=F
 Integral buffers will be    131072 words long.
 Raffenetti 2 integral format.
 Two-electron integral symmetry is turned on.
 One-electron integrals computed using PRISM.
 NBasis=   126 RedAO= T EigKep=  5.68D-05  NBF=   126
 NBsUse=   126 1.00D-06 EigRej= -1.00D+00 NBFU=   126
 Initial guess from the checkpoint file:  "/srv/scratch/z5358697/gauss/Gau-4057975.chk"
 B after Tr=     0.000000    0.000000    0.000000
         Rot=    0.999999   -0.001134    0.000208    0.000780 Ang=  -0.16 deg.
 ExpMin= 4.38D-02 ExpMax= 4.17D+03 ExpMxC= 6.27D+02 IAcc=2 IRadAn=         4 AccDes= 0.00D+00
 Harris functional with IExCor= 1009 and IRadAn=       4 diagonalized for initial guess.
 HarFok:  IExCor= 1009 AccDes= 0.00D+00 IRadAn=         4 IDoV= 1 UseB2=F ITyADJ=14
 ICtDFT=  3500011 ScaDFX=  1.000000  1.000000  1.000000  1.000000
 FoFCou: FMM=F IPFlag=           0 FMFlag=      100000 FMFlg1=           0
         NFxFlg=           0 DoJE=T BraDBF=F KetDBF=T FulRan=T
         wScrn=  0.000000 ICntrl=     500 IOpCl=  0 I1Cent=   200000004 NGrid=           0
         NMat0=    1 NMatS0=      1 NMatT0=    0 NMatD0=    1 NMtDS0=    0 NMtDT0=    0
 Petite list used in FoFCou.
 Keep R1 ints in memory in canonical form, NReq=33104011.
 Requested convergence on RMS density matrix=1.00D-08 within 128 cycles.
 Requested convergence on MAX density matrix=1.00D-06.
 Requested convergence on             energy=1.00D-06.
 No special actions if energy rises.
 SCF Done:  E(RM062X) =  -265.419988151     A.U. after   10 cycles
            NFock= 10  Conv=0.67D-08     -V/T= 2.0086
 Calling FoFJK, ICntrl=      2127 FMM=F ISym2X=0 I1Cent= 0 IOpClX= 0 NMat=1 NMatS=1 NMatT=0.
 ***** Axes restored to original set *****
 -------------------------------------------------------------------
 Center     Atomic                   Forces (Hartrees/Bohr)
 Number     Number              X              Y              Z
 -------------------------------------------------------------------
      1        6          -0.000585941    0.000247454   -0.000017940
      2        7           0.000690475    0.001195290    0.001053953
      3        6          -0.000082045   -0.000497192   -0.001034488
      4        6           0.000626565    0.000534442    0.000125464
      5        7          -0.000459221   -0.000522585   -0.000057075
      6        6          -0.000647569   -0.000972888   -0.000142643
      7        1           0.000107498    0.000199753   -0.000004139
      8        1           0.000110683   -0.000217250    0.000131497
      9        1          -0.000119440   -0.000067647   -0.000200218
     10        1           0.000164299    0.000359357    0.000065517
     11        1           0.000120107   -0.000131655   -0.000029675
     12        1           0.000074590   -0.000127079    0.000109747
 -------------------------------------------------------------------
 Cartesian Forces:  Max     0.001195290 RMS     0.000463280

 GradGradGradGradGradGradGradGradGradGradGradGradGradGradGradGradGradGrad
 Berny optimization.
 Using GEDIIS/GDIIS optimizer.
 FormGI is forming the generalized inverse of G from B-inverse, IUseBI=4.
 Internal  Forces:  Max     0.000951471 RMS     0.000268216
 Search for a local minimum.
 Step number   4 out of a maximum of   63
 All quantities printed in internal units (Hartrees-Bohrs-Radians)
 Mixed Optimization -- En-DIIS/RFO-DIIS
 Swapping is turned off.
 Update second derivatives using D2CorX and points    1    2    3    4
 DE= -1.13D-04 DEPred=-9.01D-05 R= 1.25D+00
 TightC=F SS=  1.41D+00  RLast= 7.59D-02 DXNew= 8.4853D-01 2.2762D-01
 Trust test= 1.25D+00 RLast= 7.59D-02 DXMaxT set to 5.05D-01
 ITU=  1  1  1  0
     Eigenvalues ---    0.00711   0.01701   0.02203   0.02274   0.02347
     Eigenvalues ---    0.02517   0.02602   0.07564   0.07810   0.14712
     Eigenvalues ---    0.15999   0.16000   0.16026   0.16103   0.16469
     Eigenvalues ---    0.24532   0.25029   0.30226   0.34399   0.34425
     Eigenvalues ---    0.34442   0.35701   0.36085   0.36705   0.40079
     Eigenvalues ---    0.44776   0.46940   0.51427   0.55389   0.58525
 En-DIIS/RFO-DIIS IScMMF=        0 using points:     4    3
 RFO step:  Lambda=-1.05441471D-05.
 DidBck=F Rises=F RFO-DIIS coefs:    1.29693   -0.29693
 Iteration  1 RMS(Cart)=  0.01471088 RMS(Int)=  0.00018431
 Iteration  2 RMS(Cart)=  0.00019411 RMS(Int)=  0.00002039
 Iteration  3 RMS(Cart)=  0.00000003 RMS(Int)=  0.00002039
 Variable       Old X    -DE/DX   Delta X   Delta X   Delta X     New X
                                 (Linear)    (Quad)   (Total)
    R1        2.74136  -0.00044  -0.00156  -0.00126  -0.00281   2.73854
    R2        2.06681   0.00002   0.00007   0.00013   0.00020   2.06701
    R3        2.06305   0.00000   0.00038   0.00008   0.00045   2.06350
    R4        2.06322  -0.00001   0.00010   0.00000   0.00009   2.06331
    R5        2.59938  -0.00066  -0.00021  -0.00074  -0.00094   2.59844
    R6        2.57061   0.00095   0.00184   0.00285   0.00470   2.57530
    R7        2.59358  -0.00016  -0.00023  -0.00055  -0.00079   2.59279
    R8        2.04031   0.00037  -0.00011   0.00083   0.00072   2.04103
    R9        2.59005   0.00079  -0.00046   0.00169   0.00122   2.59127
   R10        2.04284  -0.00018  -0.00024  -0.00027  -0.00052   2.04233
   R11        2.48023   0.00000  -0.00212  -0.00055  -0.00267   2.47756
   R12        2.04594   0.00011   0.00011   0.00054   0.00065   2.04659
    A1        1.93794   0.00002  -0.00108   0.00053  -0.00055   1.93740
    A2        1.90753   0.00017   0.00111   0.00154   0.00265   1.91018
    A3        1.90574  -0.00005  -0.00095  -0.00021  -0.00117   1.90457
    A4        1.90770  -0.00006   0.00031  -0.00053  -0.00022   1.90748
    A5        1.90737  -0.00002   0.00034  -0.00081  -0.00047   1.90690
    A6        1.89710  -0.00006   0.00030  -0.00054  -0.00024   1.89686
    A7        2.21173  -0.00014   0.00217   0.00040   0.00251   2.21423
    A8        2.21269  -0.00034  -0.00031  -0.00216  -0.00253   2.21016
    A9        1.85801   0.00047  -0.00199   0.00126  -0.00076   1.85725
   A10        1.84302  -0.00018   0.00141  -0.00027   0.00114   1.84416
   A11        2.12341   0.00022  -0.00106   0.00110   0.00003   2.12344
   A12        2.31676  -0.00004  -0.00036  -0.00082  -0.00119   2.31557
   A13        1.92769   0.00033  -0.00086   0.00004  -0.00083   1.92686
   A14        2.23486  -0.00017   0.00014  -0.00029  -0.00015   2.23471
   A15        2.12059  -0.00016   0.00071   0.00029   0.00100   2.12159
   A16        1.83388  -0.00024   0.00058   0.00091   0.00148   1.83537
   A17        1.96217  -0.00039   0.00085  -0.00194  -0.00108   1.96109
   A18        2.12494   0.00016  -0.00470  -0.00152  -0.00623   2.11871
   A19        2.19607   0.00022   0.00385   0.00344   0.00728   2.20336
    D1       -1.50037   0.00029   0.00917   0.03429   0.04347  -1.45689
    D2        1.59371   0.00010   0.00452   0.01851   0.02303   1.61674
    D3        0.60546   0.00034   0.00960   0.03498   0.04459   0.65005
    D4       -2.58365   0.00015   0.00495   0.01920   0.02415  -2.55950
    D5        2.67856   0.00035   0.01006   0.03510   0.04517   2.72373
    D6       -0.51055   0.00015   0.00541   0.01932   0.02473  -0.48582
    D7        3.10172  -0.00001  -0.00496  -0.00258  -0.00758   3.09414
    D8       -0.03910  -0.00013  -0.00433  -0.00961  -0.01397  -0.05307
    D9       -0.00020   0.00017  -0.00109   0.01067   0.00958   0.00938
   D10       -3.14101   0.00005  -0.00046   0.00365   0.00319  -3.13782
   D11       -3.10351   0.00005   0.00456   0.00514   0.00966  -3.09385
   D12        0.04007   0.00017   0.00459   0.01135   0.01588   0.05595
   D13       -0.00162  -0.00012   0.00074  -0.00804  -0.00730  -0.00892
   D14       -3.14124  -0.00001   0.00077  -0.00184  -0.00107   3.14088
   D15        0.00186  -0.00016   0.00111  -0.01009  -0.00898  -0.00712
   D16        3.13381  -0.00009   0.00006  -0.00553  -0.00546   3.12834
   D17       -3.14063  -0.00003   0.00038  -0.00195  -0.00158   3.14097
   D18       -0.00868   0.00005  -0.00067   0.00261   0.00193  -0.00675
   D19       -0.00280   0.00009  -0.00067   0.00531   0.00463   0.00183
   D20       -3.13549   0.00002   0.00030   0.00110   0.00139  -3.13410
   D21        0.00271   0.00002  -0.00005   0.00178   0.00173   0.00444
   D22       -3.14096  -0.00010  -0.00009  -0.00473  -0.00488   3.13735
         Item               Value     Threshold  Converged?
 Maximum Force            0.000951     0.000450     NO 
 RMS     Force            0.000268     0.000300     YES
 Maximum Displacement     0.050691     0.001800     NO 
 RMS     Displacement     0.014717     0.001200     NO 
 Predicted change in Energy=-3.611731D-05
 GradGradGradGradGradGradGradGradGradGradGradGradGradGradGradGradGradGrad

                          Input orientation:                          
 ---------------------------------------------------------------------
 Center     Atomic      Atomic             Coordinates (Angstroms)
 Number     Number       Type             X           Y           Z
 ---------------------------------------------------------------------
      1          6           0        3.623806   -2.413168   -1.708223
      2          7           0        2.353633   -1.999463   -1.146426
      3          6           0        1.969608   -0.717433   -0.830763
      4          6           0        0.673651   -0.816563   -0.391236
      5          7           0        0.251574   -2.120402   -0.437657
      6          6           0        1.277198   -2.796671   -0.895538
      7          1           0        3.627977   -2.296829   -2.795824
      8          1           0        4.425533   -1.809569   -1.277786
      9          1           0        3.801601   -3.460857   -1.457450
     10          1           0        2.642747    0.119797   -0.942447
     11          1           0        0.026844   -0.024784   -0.040872
     12          1           0        1.315629   -3.865858   -1.063678
 ---------------------------------------------------------------------
                    Distance matrix (angstroms):
                    1          2          3          4          5
     1  C    0.000000
     2  N    1.449174   0.000000
     3  C    2.526227   1.375034   0.000000
     4  C    3.603750   2.189042   1.372047   0.000000
     5  N    3.615522   2.221628   2.252663   1.371240   0.000000
     6  C    2.512788   1.362791   2.192455   2.130591   1.311068
     7  H    1.093813   2.105443   3.017639   4.086719   4.122156
     8  H    1.091959   2.084726   2.724730   3.981036   4.269000
     9  H    1.091857   2.080630   3.357873   4.232396   3.929312
    10  H    2.822198   2.148594   1.080067   2.248986   3.315269
    11  H    4.628453   3.245853   2.208625   1.080754   2.144658
    12  H    2.802397   2.137225   3.224053   3.187870   2.137927
                    6          7          8          9         10
     6  C    0.000000
     7  H    3.063836   0.000000
     8  H    3.321520   1.782683   0.000000
     9  H    2.670113   1.782233   1.774351   0.000000
    10  H    3.220669   3.200901   2.648250   3.798586   0.000000
    11  H    3.158671   5.071500   4.905494   5.297366   2.770684
    12  H    1.083009   3.287725   3.734390   2.549341   4.202545
                   11         12
    11  H    0.000000
    12  H    4.178630   0.000000
 Stoichiometry    C4H6N2
 Framework group  C1[X(C4H6N2)]
 Deg. of freedom    30
 Full point group                 C1      NOp   1
 Largest Abelian subgroup         C1      NOp   1
 Largest concise Abelian subgroup C1      NOp   1
                         Standard orientation:                         
 ---------------------------------------------------------------------
 Center     Atomic      Atomic             Coordinates (Angstroms)
 Number     Number       Type             X           Y           Z
 ---------------------------------------------------------------------
      1          6           0        2.057026   -0.030059    0.014301
      2          7           0        0.608365   -0.018085   -0.022336
      3          6           0       -0.226329   -1.110664   -0.005753
      4          6           0       -1.500896   -0.602912    0.007690
      5          7           0       -1.469321    0.767965    0.008960
      6          6           0       -0.196403    1.081586   -0.005833
      7          1           0        2.422553   -0.114535    1.041764
      8          1           0        2.428509   -0.873573   -0.571240
      9          1           0        2.433667    0.894898   -0.427003
     10          1           0        0.159869   -2.119314   -0.010322
     11          1           0       -2.434586   -1.147190    0.011263
     12          1           0        0.216298    2.082851   -0.013258
 ---------------------------------------------------------------------
 Rotational constants (GHZ):      9.2202708      3.6216468      2.6443291
 Standard basis: 6-31+G(d) (6D, 7F)
 There are   126 symmetry adapted cartesian basis functions of A   symmetry.
 There are   126 symmetry adapted basis functions of A   symmetry.
   126 basis functions,   216 primitive gaussians,   126 cartesian basis functions
    22 alpha electrons       22 beta electrons
       nuclear repulsion energy       226.5564716961 Hartrees.
 NAtoms=   12 NActive=   12 NUniq=   12 SFac= 1.00D+00 NAtFMM=   60 NAOKFM=F Big=F
 Integral buffers will be    131072 words long.
 Raffenetti 2 integral format.
 Two-electron integral symmetry is turned on.
 One-electron integrals computed using PRISM.
 NBasis=   126 RedAO= T EigKep=  5.66D-05  NBF=   126
 NBsUse=   126 1.00D-06 EigRej= -1.00D+00 NBFU=   126
 Initial guess from the checkpoint file:  "/srv/scratch/z5358697/gauss/Gau-4057975.chk"
 B after Tr=     0.000000    0.000000    0.000000
         Rot=    0.999999   -0.001550    0.000129    0.000368 Ang=  -0.18 deg.
 ExpMin= 4.38D-02 ExpMax= 4.17D+03 ExpMxC= 6.27D+02 IAcc=2 IRadAn=         4 AccDes= 0.00D+00
 Harris functional with IExCor= 1009 and IRadAn=       4 diagonalized for initial guess.
 HarFok:  IExCor= 1009 AccDes= 0.00D+00 IRadAn=         4 IDoV= 1 UseB2=F ITyADJ=14
 ICtDFT=  3500011 ScaDFX=  1.000000  1.000000  1.000000  1.000000
 FoFCou: FMM=F IPFlag=           0 FMFlag=      100000 FMFlg1=           0
         NFxFlg=           0 DoJE=T BraDBF=F KetDBF=T FulRan=T
         wScrn=  0.000000 ICntrl=     500 IOpCl=  0 I1Cent=   200000004 NGrid=           0
         NMat0=    1 NMatS0=      1 NMatT0=    0 NMatD0=    1 NMtDS0=    0 NMtDT0=    0
 Petite list used in FoFCou.
 Keep R1 ints in memory in canonical form, NReq=33104011.
 Requested convergence on RMS density matrix=1.00D-08 within 128 cycles.
 Requested convergence on MAX density matrix=1.00D-06.
 Requested convergence on             energy=1.00D-06.
 No special actions if energy rises.
 SCF Done:  E(RM062X) =  -265.420035252     A.U. after   10 cycles
            NFock= 10  Conv=0.59D-08     -V/T= 2.0086
 Calling FoFJK, ICntrl=      2127 FMM=F ISym2X=0 I1Cent= 0 IOpClX= 0 NMat=1 NMatS=1 NMatT=0.
 ***** Axes restored to original set *****
 -------------------------------------------------------------------
 Center     Atomic                   Forces (Hartrees/Bohr)
 Number     Number              X              Y              Z
 -------------------------------------------------------------------
      1        6           0.000188442    0.000256398   -0.000272452
      2        7          -0.001744902    0.000296946    0.000476103
      3        6           0.000916961   -0.000152104   -0.000153121
      4        6           0.000350127   -0.000034734   -0.000679016
      5        7          -0.001464496   -0.000224766    0.000717016
      6        6           0.002270279   -0.000187162   -0.000316425
      7        1           0.000205127    0.000118392    0.000001076
      8        1           0.000037240   -0.000218032    0.000134533
      9        1          -0.000102878    0.000005350   -0.000224115
     10        1           0.000046555    0.000160563    0.000142408
     11        1          -0.000095911   -0.000078421   -0.000066264
     12        1          -0.000606543    0.000057569    0.000240258
 -------------------------------------------------------------------
 Cartesian Forces:  Max     0.002270279 RMS     0.000616595

 GradGradGradGradGradGradGradGradGradGradGradGradGradGradGradGradGradGrad
 Berny optimization.
 Using GEDIIS/GDIIS optimizer.
 FormGI is forming the generalized inverse of G from B-inverse, IUseBI=4.
 Internal  Forces:  Max     0.000831424 RMS     0.000293909
 Search for a local minimum.
 Step number   5 out of a maximum of   63
 All quantities printed in internal units (Hartrees-Bohrs-Radians)
 Mixed Optimization -- En-DIIS/RFO-DIIS
 Swapping is turned off.
 Update second derivatives using D2CorX and points    1    2    3    4    5
 DE= -4.71D-05 DEPred=-3.61D-05 R= 1.30D+00
 TightC=F SS=  1.41D+00  RLast= 9.34D-02 DXNew= 8.4853D-01 2.8027D-01
 Trust test= 1.30D+00 RLast= 9.34D-02 DXMaxT set to 5.05D-01
 ITU=  1  1  1  1  0
     Eigenvalues ---    0.00265   0.01787   0.02209   0.02346   0.02417
     Eigenvalues ---    0.02559   0.03268   0.07559   0.07812   0.15797
     Eigenvalues ---    0.16000   0.16003   0.16038   0.16286   0.18181
     Eigenvalues ---    0.25067   0.25347   0.31870   0.34405   0.34437
     Eigenvalues ---    0.34477   0.35819   0.36027   0.36561   0.41337
     Eigenvalues ---    0.44758   0.49708   0.51744   0.56242   0.61511
 En-DIIS/RFO-DIIS IScMMF=        0 using points:     5    4    3
 RFO step:  Lambda=-1.08354363D-05.
 DidBck=F Rises=F RFO-DIIS coefs:    1.15066    0.15611   -0.30677
 Iteration  1 RMS(Cart)=  0.02146128 RMS(Int)=  0.00037409
 Iteration  2 RMS(Cart)=  0.00039985 RMS(Int)=  0.00002738
 Iteration  3 RMS(Cart)=  0.00000012 RMS(Int)=  0.00002738
 Variable       Old X    -DE/DX   Delta X   Delta X   Delta X     New X
                                 (Linear)    (Quad)   (Total)
    R1        2.73854   0.00038  -0.00203  -0.00013  -0.00216   2.73638
    R2        2.06701   0.00002   0.00010   0.00016   0.00026   2.06727
    R3        2.06350  -0.00004   0.00046   0.00005   0.00050   2.06401
    R4        2.06331  -0.00008   0.00011  -0.00016  -0.00005   2.06327
    R5        2.59844  -0.00055  -0.00036  -0.00105  -0.00139   2.59705
    R6        2.57530  -0.00042   0.00261   0.00172   0.00434   2.57964
    R7        2.59279   0.00016  -0.00036  -0.00006  -0.00042   2.59237
[...]
 Alpha virt. eigenvalues --    2.64087   2.74857   2.76807   2.77917   2.87014
 Alpha virt. eigenvalues --    3.05076   3.06854   3.15450   4.12505   4.20801
 Alpha virt. eigenvalues --    4.29777   4.38617   4.45315   4.51260
          Condensed to atoms (all electrons):
               1          2          3          4          5          6
     1  C    5.332457   0.188422  -0.090700  -0.015576   0.029167  -0.132971
     2  N    0.188422   6.915191   0.419318  -0.193877  -0.019973   0.211635
     3  C   -0.090700   0.419318   5.252763   0.511160  -0.125338  -0.184288
     4  C   -0.015576  -0.193877   0.511160   5.188771   0.445406  -0.093991
     5  N    0.029167  -0.019973  -0.125338   0.445406   6.632131   0.405754
     6  C   -0.132971   0.211635  -0.184288  -0.093991   0.405754   5.352948
     7  H    0.394307  -0.040162  -0.005674   0.001541  -0.000263  -0.006836
     8  H    0.394137  -0.040550  -0.005556   0.001240  -0.000255  -0.006865
     9  H    0.386765  -0.047994   0.002641  -0.001378   0.002798   0.010218
    10  H   -0.010329  -0.053301   0.379301  -0.024186   0.007717   0.017943
    11  H   -0.002829  -0.005539  -0.057780   0.392151  -0.057472   0.031462
    12  H   -0.014011  -0.095016   0.016840   0.007561  -0.038500   0.424553
               7          8          9         10         11         12
     1  C    0.394307   0.394137   0.386765  -0.010329  -0.002829  -0.014011
     2  N   -0.040162  -0.040550  -0.047994  -0.053301  -0.005539  -0.095016
     3  C   -0.005674  -0.005556   0.002641   0.379301  -0.057780   0.016840
     4  C    0.001541   0.001240  -0.001378  -0.024186   0.392151   0.007561
     5  N   -0.000263  -0.000255   0.002798   0.007717  -0.057472  -0.038500
     6  C   -0.006836  -0.006865   0.010218   0.017943   0.031462   0.424553
     7  H    0.479574  -0.036084  -0.023776   0.000115  -0.000004  -0.000090
     8  H   -0.036084   0.479883  -0.024087   0.000091  -0.000004  -0.000087
     9  H   -0.023776  -0.024087   0.471885  -0.000005   0.000003   0.002485
    10  H    0.000115   0.000091  -0.000005   0.457385   0.000408  -0.000045
    11  H   -0.000004  -0.000004   0.000003   0.000408   0.492154  -0.000011
    12  H   -0.000090  -0.000087   0.002485  -0.000045  -0.000011   0.485379
 Mulliken charges:
               1
     1  C   -0.458839
     2  N   -0.238155
     3  C   -0.112687
     4  C   -0.218823
     5  N   -0.281173
     6  C   -0.029563
     7  H    0.237353
     8  H    0.238138
     9  H    0.220444
    10  H    0.224904
    11  H    0.207460
    12  H    0.210941
 Sum of Mulliken charges =   0.00000
 Mulliken charges with hydrogens summed into heavy atoms:
               1
     1  C    0.237096
     2  N   -0.238155
     3  C    0.112217
     4  C   -0.011363
     5  N   -0.281173
     6  C    0.181378
 Electronic spatial extent (au):  <R**2>=            490.2076
 Charge=              0.0000 electrons
 Dipole moment (field-independent basis, Debye):
    X=              4.1204    Y=             -1.2702    Z=              0.0011  Tot=              4.3117
 Quadrupole moment (field-independent basis, Debye-Ang):
   XX=            -35.3349   YY=            -33.6031   ZZ=            -38.5817
   XY=              4.1964   XZ=              0.0031   YZ=              0.0003
 Traceless Quadrupole moment (field-independent basis, Debye-Ang):
   XX=              0.5050   YY=              2.2368   ZZ=             -2.7418
   XY=              4.1964   XZ=              0.0031   YZ=              0.0003
 Octapole moment (field-independent basis, Debye-Ang**2):
  XXX=             16.5612  YYY=             -0.2568  ZZZ=             -0.0426  XYY=              6.9110
  XXY=             -9.6759  XXZ=              0.0133  XZZ=              4.2783  YZZ=              0.4026
  YYZ=              0.0549  XYZ=             -0.0056
 Hexadecapole moment (field-independent basis, Debye-Ang**3):
 XXXX=           -418.5481 YYYY=           -175.8934 ZZZZ=            -50.3634 XXXY=             24.0455
 XXXZ=              0.0489 YYYX=              8.1045 YYYZ=             -0.0049 ZZZX=             -0.1086
 ZZZY=             -0.0007 XXYY=           -107.9612 XXZZ=            -81.4890 YYZZ=            -45.7139
 XXYZ=              0.0028 YYXZ=              0.1202 ZZXY=             -2.2761
 N-N= 2.265622169790D+02 E-N=-1.068896411105D+03  KE= 2.631532713398D+02
 1\1\GINC-KATANA1\FOpt\RM062X\6-31+G(d)\C4H6N2\Z5358697\20-Mar-2025\0\\
 #m062X/6-31+G(d) OPT Freq=noraman\\1-methylimidazole\\0,1\C,3.62630253
 57,-2.4075195522,-1.7069661549\N,2.3462947596,-1.9960508709,-1.1660910
 735\C,1.9361828135,-0.7077464281,-0.9191192628\C,0.666100201,-0.816948
 1559,-0.410858043\N,0.2883297173,-2.1335316555,-0.3397979195\C,1.31633
 21466,-2.8075644445,-0.7986844089\H,3.7820549181,-1.9668336741,-2.6950
 756393\H,4.4386186094,-2.1047730886,-1.0409899469\H,3.6326224382,-3.49
 49753418,-1.8004763737\H,2.5718396947,0.1412515427,-1.1243061027\H,0.0
 051793058,-0.0226829003,-0.09383191\H,1.3799428601,-3.8844254307,-0.89
 17031648\\Version=ES64L-G09RevD.01\State=1-A\HF=-265.4203029\RMSD=4.97
 2e-09\RMSF=2.596e-06\Dipole=1.5723892,0.0020288,-0.6365821\Quadrupole=
 -1.4608674,3.2849411,-1.8240737,-1.9404357,-0.3562812,1.1165624\PG=C01
  [X(C4H6N2)]\\@


 IT IS IMPOSSIBLE TO MEDITATE ON TIME AND THE MYSTERY 
 OF NATURE WITHOUT AN OVERWHELMING EMOTION AT THE
 LIMITATIONS OF HUMAN INTELLIGENCE.

                                         -- ALFRED NORTH WHITEHEAD
 Job cpu time:       0 days  0 hours  5 minutes 27.8 seconds.
 File lengths (MBytes):  RWF=    132 Int=      0 D2E=      0 Chk=      3 Scr=      2
 Normal termination of Gaussian 09 at Thu Mar 20 23:42:37 2025.
 Link1:  Proceeding to internal job step number  2.
 ---------------------------------------------------------------------
 #N Geom=AllCheck Guess=TCheck SCRF=Check GenChk RM062X/6-31+G(d) Freq
 ---------------------------------------------------------------------
 1/10=4,29=7,30=1,38=1,40=1/1,3;
 2/12=2,40=1/2;
 3/5=1,6=6,7=11,11=2,14=-4,16=1,25=1,30=1,70=2,71=2,74=-55,116=1,140=1/1,2,3;
 4/5=101/1;
 5/5=2,98=1/2;
 8/6=4,10=90,11=11/1;
 11/6=1,8=1,9=11,15=111,16=1/1,2,10;
 10/6=1/2;
 6/7=2,8=2,9=2,10=2,18=1,28=1/1;
 7/8=1,10=1,25=1/1,2,3,16;
 1/10=4,30=1/3;
 99//99;
 Structure from the checkpoint file:  "/srv/scratch/z5358697/gauss/Gau-4057975.chk"
 -----------------
 1-methylimidazole
 -----------------
 Charge =  0 Multiplicity = 1
 Redundant internal coordinates found in file.
 C,0,3.6263025357,-2.4075195522,-1.7069661549
 N,0,2.3462947596,-1.9960508709,-1.1660910735
 C,0,1.9361828135,-0.7077464281,-0.9191192628
 C,0,0.666100201,-0.8169481559,-0.410858043
 N,0,0.2883297173,-2.1335316555,-0.3397979195
 C,0,1.3163321466,-2.8075644445,-0.7986844089
 H,0,3.7820549181,-1.9668336741,-2.6950756393
 H,0,4.4386186094,-2.1047730886,-1.0409899469
 H,0,3.6326224382,-3.4949753418,-1.8004763737
 H,0,2.5718396947,0.1412515427,-1.1243061027
 H,0,0.0051793058,-0.0226829003,-0.09383191
 H,0,1.3799428601,-3.8844254307,-0.8917031648
 Recover connectivity data from disk.

 GradGradGradGradGradGradGradGradGradGradGradGradGradGradGradGradGradGrad
 Berny optimization.
 Initialization pass.
                           ----------------------------
                           !    Initial Parameters    !
                           ! (Angstroms and Degrees)  !
 --------------------------                            --------------------------
 ! Name  Definition              Value          Derivative Info.                !
 --------------------------------------------------------------------------------
 ! R1    R(1,2)                  1.4492         calculate D2E/DX2 analytically  !
 ! R2    R(1,7)                  1.0931         calculate D2E/DX2 analytically  !
 ! R3    R(1,8)                  1.0932         calculate D2E/DX2 analytically  !
 ! R4    R(1,9)                  1.0915         calculate D2E/DX2 analytically  !
 ! R5    R(2,3)                  1.3744         calculate D2E/DX2 analytically  !
 ! R6    R(2,6)                  1.3618         calculate D2E/DX2 analytically  !
 ! R7    R(3,4)                  1.3724         calculate D2E/DX2 analytically  !
 ! R8    R(3,10)                 1.0803         calculate D2E/DX2 analytically  !
 ! R9    R(4,5)                  1.3716         calculate D2E/DX2 analytically  !
 ! R10   R(4,11)                 1.0808         calculate D2E/DX2 analytically  !
 ! R11   R(5,6)                  1.3121         calculate D2E/DX2 analytically  !
 ! R12   R(6,12)                 1.0827         calculate D2E/DX2 analytically  !
 ! A1    A(2,1,7)              110.4115         calculate D2E/DX2 analytically  !
 ! A2    A(2,1,8)              110.5065         calculate D2E/DX2 analytically  !
 ! A3    A(2,1,9)              108.6606         calculate D2E/DX2 analytically  !
 ! A4    A(7,1,8)              109.4616         calculate D2E/DX2 analytically  !
 ! A5    A(7,1,9)              108.8687         calculate D2E/DX2 analytically  !
 ! A6    A(8,1,9)              108.8934         calculate D2E/DX2 analytically  !
 ! A7    A(1,2,3)              126.6383         calculate D2E/DX2 analytically  !
 ! A8    A(1,2,6)              126.8363         calculate D2E/DX2 analytically  !
 ! A9    A(3,2,6)              106.5251         calculate D2E/DX2 analytically  !
 ! A10   A(2,3,4)              105.5526         calculate D2E/DX2 analytically  !
 ! A11   A(2,3,10)             121.8018         calculate D2E/DX2 analytically  !
 ! A12   A(4,3,10)             132.6456         calculate D2E/DX2 analytically  !
 ! A13   A(3,4,5)              110.5166         calculate D2E/DX2 analytically  !
 ! A14   A(3,4,11)             128.0307         calculate D2E/DX2 analytically  !
 ! A15   A(5,4,11)             121.4528         calculate D2E/DX2 analytically  !
 ! A16   A(4,5,6)              105.0224         calculate D2E/DX2 analytically  !
 ! A17   A(2,6,5)              112.3834         calculate D2E/DX2 analytically  !
 ! A18   A(2,6,12)             121.6738         calculate D2E/DX2 analytically  !
 ! A19   A(5,6,12)             125.9428         calculate D2E/DX2 analytically  !
 ! D1    D(7,1,2,3)            -59.5538         calculate D2E/DX2 analytically  !
 ! D2    D(7,1,2,6)            120.6888         calculate D2E/DX2 analytically  !
 ! D3    D(8,1,2,3)             61.693          calculate D2E/DX2 analytically  !
 ! D4    D(8,1,2,6)           -118.0643         calculate D2E/DX2 analytically  !
 ! D5    D(9,1,2,3)           -178.8869         calculate D2E/DX2 analytically  !
 ! D6    D(9,1,2,6)              1.3557         calculate D2E/DX2 analytically  !
 ! D7    D(1,2,3,4)           -179.8175         calculate D2E/DX2 analytically  !
 ! D8    D(1,2,3,10)             0.2134         calculate D2E/DX2 analytically  !
 ! D9    D(6,2,3,4)             -0.02           calculate D2E/DX2 analytically  !
 ! D10   D(6,2,3,10)          -179.9891         calculate D2E/DX2 analytically  !
 ! D11   D(1,2,6,5)            179.8204         calculate D2E/DX2 analytically  !
 ! D12   D(1,2,6,12)            -0.1983         calculate D2E/DX2 analytically  !
 ! D13   D(3,2,6,5)              0.0234         calculate D2E/DX2 analytically  !
 ! D14   D(3,2,6,12)          -179.9953         calculate D2E/DX2 analytically  !
 ! D15   D(2,3,4,5)              0.011          calculate D2E/DX2 analytically  !
 ! D16   D(2,3,4,11)          -179.954          calculate D2E/DX2 analytically  !
 ! D17   D(10,3,4,5)           179.9754         calculate D2E/DX2 analytically  !
 ! D18   D(10,3,4,11)            0.0103         calculate D2E/DX2 analytically  !
 ! D19   D(3,4,5,6)              0.0028         calculate D2E/DX2 analytically  !
 ! D20   D(11,4,5,6)           179.9705         calculate D2E/DX2 analytically  !
 ! D21   D(4,5,6,2)             -0.0163         calculate D2E/DX2 analytically  !
 ! D22   D(4,5,6,12)          -179.9966         calculate D2E/DX2 analytically  !
 --------------------------------------------------------------------------------
 Trust Radius=3.00D-01 FncErr=1.00D-07 GrdErr=1.00D-07
 Number of steps in this run=      2 maximum allowed number of steps=      2.
 GradGradGradGradGradGradGradGradGradGradGradGradGradGradGradGradGradGrad

                          Input orientation:                          
 ---------------------------------------------------------------------
 Center     Atomic      Atomic             Coordinates (Angstroms)
 Number     Number       Type             X           Y           Z
 ---------------------------------------------------------------------
      1          6           0        3.626303   -2.407520   -1.706966
      2          7           0        2.346295   -1.996051   -1.166091
      3          6           0        1.936183   -0.707746   -0.919119
      4          6           0        0.666100   -0.816948   -0.410858
      5          7           0        0.288330   -2.133532   -0.339798
      6          6           0        1.316332   -2.807564   -0.798684
      7          1           0        3.782055   -1.966834   -2.695076
      8          1           0        4.438619   -2.104773   -1.040990
      9          1           0        3.632622   -3.494975   -1.800476
     10          1           0        2.571840    0.141252   -1.124306
     11          1           0        0.005179   -0.022683   -0.093832
     12          1           0        1.379943   -3.884425   -0.891703
 ---------------------------------------------------------------------
                    Distance matrix (angstroms):
                    1          2          3          4          5
     1  C    0.000000
     2  N    1.449232   0.000000
     3  C    2.523180   1.374378   0.000000
     4  C    3.601751   2.187170   1.372357   0.000000
     5  N    3.617496   2.221909   2.254750   1.371551   0.000000
     6  C    2.514155   1.361751   2.192705   2.129733   1.312130
     7  H    1.093080   2.097631   2.854219   4.031012   4.216780
     8  H    1.093178   2.098878   2.868575   4.035772   4.209204
     9  H    1.091487   2.074574   3.379844   4.231208   3.895049
    10  H    2.819152   2.149576   1.080259   2.249222   3.317305
    11  H    4.626249   3.244186   2.208888   1.080823   2.143911
    12  H    2.809277   2.138944   3.225127   3.185938   2.135848
                    6          7          8          9         10
     6  C    0.000000
     7  H    3.222253   0.000000
     8  H    3.209564   1.784966   0.000000
     9  H    2.615592   1.777035   1.777389   0.000000
    10  H    3.221466   2.894125   2.921717   3.847676   0.000000
    11  H    3.157769   4.981062   4.988747   5.303564   2.770649
    12  H    1.082741   3.563629   3.541885   2.460103   4.204854
                   11         12
    11  H    0.000000
    12  H    4.176078   0.000000
 Stoichiometry    C4H6N2
 Framework group  C1[X(C4H6N2)]
 Deg. of freedom    30
 Full point group                 C1      NOp   1
 Largest Abelian subgroup         C1      NOp   1
 Largest concise Abelian subgroup C1      NOp   1
                         Standard orientation:                         
 ---------------------------------------------------------------------
 Center     Atomic      Atomic             Coordinates (Angstroms)
 Number     Number       Type             X           Y           Z
 ---------------------------------------------------------------------
      1          6           0        2.056928   -0.030135   -0.000975
      2          7           0        0.607765   -0.016265    0.001418
      3          6           0       -0.222931   -1.111189    0.000434
      4          6           0       -1.498614   -0.605229   -0.000618
      5          7           0       -1.471861    0.766061   -0.000553
      6          6           0       -0.198181    1.081376    0.000460
      7          1           0        2.434602   -0.554761    0.880475
      8          1           0        2.433747   -0.517383   -0.904100
      9          1           0        2.416077    1.000343    0.020729
     10          1           0        0.164399   -2.119620    0.001069
     11          1           0       -2.431458   -1.151106   -0.000896
     12          1           0        0.208088    2.085007    0.000864
 ---------------------------------------------------------------------
 Rotational constants (GHZ):      9.2193211      3.6225242      2.6443519
 Standard basis: 6-31+G(d) (6D, 7F)
 There are   126 symmetry adapted cartesian basis functions of A   symmetry.
 There are   126 symmetry adapted basis functions of A   symmetry.
   126 basis functions,   216 primitive gaussians,   126 cartesian basis functions
    22 alpha electrons       22 beta electrons
       nuclear repulsion energy       226.5622169790 Hartrees.
 NAtoms=   12 NActive=   12 NUniq=   12 SFac= 1.00D+00 NAtFMM=   60 NAOKFM=F Big=F
 Integral buffers will be    131072 words long.
 Raffenetti 2 integral format.
 Two-electron integral symmetry is turned on.
 One-electron integrals computed using PRISM.
 NBasis=   126 RedAO= T EigKep=  5.57D-05  NBF=   126
 NBsUse=   126 1.00D-06 EigRej= -1.00D+00 NBFU=   126
 Initial guess from the checkpoint file:  "/srv/scratch/z5358697/gauss/Gau-4057975.chk"
 B after Tr=     0.000000    0.000000    0.000000
         Rot=    1.000000    0.000000    0.000000    0.000000 Ang=   0.00 deg.
 Keep R1 ints in memory in canonical form, NReq=33104011.
 Requested convergence on RMS density matrix=1.00D-08 within 128 cycles.
 Requested convergence on MAX density matrix=1.00D-06.
 Requested convergence on             energy=1.00D-06.
 No special actions if energy rises.
 SCF Done:  E(RM062X) =  -265.420302907     A.U. after    1 cycles
            NFock=  1  Conv=0.12D-08     -V/T= 2.0086
 DoSCS=F DFT=T ScalE2(SS,OS)=  1.000000  1.000000
 Range of M.O.s used for correlation:     1   126
 NBasis=   126 NAE=    22 NBE=    22 NFC=     0 NFV=     0
 NROrb=    126 NOA=    22 NOB=    22 NVA=   104 NVB=   104

 **** Warning!!: The largest alpha MO coefficient is  0.43303508D+02

 Symmetrizing basis deriv contribution to polar:
 IMax=3 JMax=2 DiffMx= 0.00D+00
 G2DrvN: will do    13 centers at a time, making    1 passes.
 Calling FoFCou, ICntrl=  3107 FMM=F I1Cent=   0 AccDes= 0.00D+00.
 End of G2Drv F.D. properties file   721 does not exist.
 End of G2Drv F.D. properties file   722 does not exist.
 End of G2Drv F.D. properties file   788 does not exist.
          IDoAtm=111111111111
          Differentiating once with respect to electric field.
                with respect to dipole field.
          Differentiating once with respect to nuclear coordinates.
 Keep R1 ints in memory in canonical form, NReq=33040129.
 CalDSu would require      161709 more words of memory to run efficiently.
 CalDSu:  MaxMB=  32 is small; additional memory will improve performance.
 CalDSu would require      152658 more words of memory to run efficiently.
 CalDSu:  MaxMB=  33 is small; additional memory will improve performance.
          There are    39 degrees of freedom in the 1st order CPHF.  IDoFFX=6 NUNeed=     3.
     39 vectors produced by pass  0 Test12= 5.87D-15 2.56D-09 XBig12= 3.87D+01 2.82D+00.
 AX will form    20 AO Fock derivatives at one time.
 CalDSu would require      153198 more words of memory to run efficiently.
 CalDSu:  MaxMB=  33 is small; additional memory will improve performance.
 CalDSu would require      152658 more words of memory to run efficiently.
 CalDSu:  MaxMB=  33 is small; additional memory will improve performance.
     36 vectors produced by pass  1 Test12= 5.87D-15 2.56D-09 XBig12= 6.93D+00 5.67D-01.
 Not enough memory to run CalDSu, short by      180220 words.
 Error termination via Lnk1e in /apps/z_install_tree/linux-rocky8-ivybridge/gcc-12.2.0/gaussian-09-D.01-wczn3gur5lpur3omlkzwa2l5ecyxp5ef/g09/l1002.exe at Thu Mar 20 23:43:42 2025.
 Job cpu time:       0 days  0 hours  1 minutes  3.5 seconds.
 File lengths (MBytes):  RWF=    132 Int=      0 D2E=      0 Chk=      3 Scr=      2
