 Entering Gaussian System, Link 0=g09
 Initial command:
 /apps/z_install_tree/linux-rocky8-ivybridge/gcc-12.2.0/gaussian-09-D.01-wczn3gur5lpur3omlkzwa2l5ecyxp5ef/g09/l1.exe "/srv/scratch/z5358697/gauss/Gau-1773748.inp" -scrdir="/srv/scratch/z5358697/gauss/"
 Entering Link 1 = /apps/z_install_tree/linux-rocky8-ivybridge/gcc-12.2.0/gaussian-09-D.01-wczn3gur5lpur3omlkzwa2l5ecyxp5ef/g09/l1.exe PID=   1773749.
  
 Copyright (c) 1988,1990,1992,1993,1995,1998,2003,2009,2013,
            Gaussian, Inc.  All Rights Reserved.
  
 This is part of the Gaussian(R) 09 program.  It is based on
 the Gaussian(R) 03 system (copyright 2003, Gaussian, Inc.),
 the Gaussian(R) 98 system (copyright 1998, Gaussian, Inc.),
 the Gaussian(R) 94 system (copyright 1995, Gaussian, Inc.),
 the Gaussian 92(TM) system (copyright 1992, Gaussian, Inc.),
 the Gaussian 90(TM) system (copyright 1990, Gaussian, Inc.),
 the Gaussian 88(TM) system (copyright 1988, Gaussian, Inc.),
 the Gaussian 86(TM) system (copyright 1986, Carnegie Mellon
 University), and the Gaussian 82(TM) system (copyright 1983,
 Carnegie Mellon University). Gaussian is a federally registered
 trademark of Gaussian, Inc.
  
 This software contains proprietary and confidential information,
 including trade secrets, belonging to Gaussian, Inc.
  
 This software is provided under written license and may be
 used, copied, transmitted, or stored only in accord with that
 written license.
  
 The following legend is applicable only to US Government
 contracts under FAR:
  
                    RESTRICTED RIGHTS LEGEND
  
 Use, reproduction and disclosure by the US Government is
 subject to restrictions as set forth in subparagraphs (a)
 and (c) of the Commercial Computer Software - Restricted
 Rights clause in FAR 52.227-19.
  
 Gaussian, Inc.
 340 Quinnipiac St., Bldg. 40, Wallingford CT 06492
  
  
 ---------------------------------------------------------------
 Warning -- This program may not be used in any manner that
 competes with the business of Gaussian, Inc. or will provide
 assistance to any competitor of Gaussian, Inc.  The licensee
 of this program is prohibited from giving any competitor of
 Gaussian, Inc. access to this program.  By using this program,
 the user acknowledges that Gaussian, Inc. is engaged in the
 business of creating and licensing software in the field of
 computational chemistry and represents and warrants to the
 licensee that it is not a competitor of Gaussian, Inc. and that
 it will not use this program in any manner prohibited above.
 ---------------------------------------------------------------
  

 Cite this work as:
 Gaussian 09, Revision D.01,
 M. J. Frisch, G. W. Trucks, H. B. Schlegel, G. E. Scuseria, 
 M. A. Robb, J. R. Cheeseman, G. Scalmani, V. Barone, B. Mennucci, 
 G. A. Petersson, H. Nakatsuji, M. Caricato, X. Li, H. P. Hratchian, 
 A. F. Izmaylov, J. Bloino, G. Zheng, J. L. Sonnenberg, M. Hada, 
 M. Ehara, K. Toyota, R. Fukuda, J. Hasegawa, M. Ishida, T. Nakajima, 
 Y. Honda, O. Kitao, H. Nakai, T. Vreven, J. A. Montgomery, Jr., 
 J. E. Peralta, F. Ogliaro, M. Bearpark, J. J. Heyd, E. Brothers, 
 K. N. Kudin, V. N. Staroverov, T. Keith, R. Kobayashi, J. Normand, 
 K. Raghavachari, A. Rendell, J. C. Burant, S. S. Iyengar, J. Tomasi, 
 M. Cossi, N. Rega, J. M. Millam, M. Klene, J. E. Knox, J. B. Cross, 
 V. Bakken, C. Adamo, J. Jaramillo, R. Gomperts, R. E. Stratmann, 
 O. Yazyev, A. J. Austin, R. Cammi, C. Pomelli, J. W. Ochterski, 
 R. L. Martin, K. Morokuma, V. G. Zakrzewski, G. A. Voth, 
 P. Salvador, J. J. Dannenberg, S. Dapprich, A. D. Daniels, 
 O. Farkas, J. B. Foresman, J. V. Ortiz, J. Cioslowski, 
 and D. J. Fox, Gaussian, Inc., Wallingford CT, 2013.
 
 ******************************************
 Gaussian 09:  ES64L-G09RevD.01 24-Apr-2013
                13-Mar-2025 
 ******************************************
 ---------------------------------
 #m062X/6-31+G(d) OPT Freq=noraman
 ---------------------------------
 1/14=-1,18=20,19=15,26=3,38=1/1,3;
 2/9=110,12=2,17=6,18=5,40=1/2;
 3/5=1,6=6,7=11,11=2,16=1,25=1,30=1,71=1,74=-55/1,2,3;
 4//1;
 5/5=2,38=5/2;
 6/7=2,8=2,9=2,10=2,28=1/1;
 7//1,2,3,16;
 1/14=-1,18=20,19=15,26=3/3(2);
 2/9=110/2;
 99//99;
 2/9=110/2;
 3/5=1,6=6,7=11,11=2,16=1,25=1,30=1,71=1,74=-55/1,2,3;
 4/5=5,16=3,69=1/1;
 5/5=2,38=5/2;
 7//1,2,3,16;
 1/14=-1,18=20,19=15,26=3/3(-5);
 2/9=110/2;
 6/7=2,8=2,9=2,10=2,19=2,28=1/1;
 99/9=1/99;
 -------
 ammonia
 -------
 Symbolic Z-matrix:
 Charge =  0 Multiplicity = 1
 N                    -0.1928   -0.0275   -0.2222 
 H                    -0.6347    0.2631    0.6488 
 H                     0.5328    0.662    -0.4131 
 H                     0.2947   -0.8976   -0.0135 
 

 GradGradGradGradGradGradGradGradGradGradGradGradGradGradGradGradGradGrad
 Berny optimization.
 Initialization pass.
                           ----------------------------
                           !    Initial Parameters    !
                           ! (Angstroms and Degrees)  !
 --------------------------                            --------------------------
 ! Name  Definition              Value          Derivative Info.                !
 --------------------------------------------------------------------------------
 ! R1    R(1,2)                  1.019          estimate D2E/DX2                !
 ! R2    R(1,3)                  1.019          estimate D2E/DX2                !
 ! R3    R(1,4)                  1.019          estimate D2E/DX2                !
 ! A1    A(2,1,3)              106.0194         estimate D2E/DX2                !
 ! A2    A(2,1,4)              106.0171         estimate D2E/DX2                !
 ! A3    A(3,1,4)              105.9911         estimate D2E/DX2                !
 ! D1    D(2,1,4,3)           -112.3915         estimate D2E/DX2                !
 --------------------------------------------------------------------------------
 Trust Radius=3.00D-01 FncErr=1.00D-07 GrdErr=1.00D-06
 Number of steps in this run=     20 maximum allowed number of steps=    100.
 GradGradGradGradGradGradGradGradGradGradGradGradGradGradGradGradGradGrad

                          Input orientation:                          
 ---------------------------------------------------------------------
 Center     Atomic      Atomic             Coordinates (Angstroms)
 Number     Number       Type             X           Y           Z
 ---------------------------------------------------------------------
      1          7           0       -0.192800   -0.027500   -0.222200
      2          1           0       -0.634700    0.263100    0.648800
      3          1           0        0.532800    0.662000   -0.413100
      4          1           0        0.294700   -0.897600   -0.013500
 ---------------------------------------------------------------------
                    Distance matrix (angstroms):
                    1          2          3          4
     1  N    0.000000
     2  H    1.019002   0.000000
     3  H    1.018994   1.627823   0.000000
     4  H    1.018963   1.627775   1.627490   0.000000
 Stoichiometry    H3N
 Framework group  C1[X(H3N)]
 Deg. of freedom     6
 Full point group                 C1      NOp   1
 Largest Abelian subgroup         C1      NOp   1
 Largest concise Abelian subgroup C1      NOp   1
                         Standard orientation:                         
 ---------------------------------------------------------------------
 Center     Atomic      Atomic             Coordinates (Angstroms)
 Number     Number       Type             X           Y           Z
 ---------------------------------------------------------------------
      1          7           0        0.000041   -0.000002   -0.118187
      2          1           0        0.937604   -0.063848    0.275849
      3          1           0       -0.524255   -0.779934    0.275728
      4          1           0       -0.413633    0.843793    0.275732
 ---------------------------------------------------------------------
 Rotational constants (GHZ):    293.7150444    293.5986673    189.2715925
 Standard basis: 6-31+G(d) (6D, 7F)
 There are    25 symmetry adapted cartesian basis functions of A   symmetry.
 There are    25 symmetry adapted basis functions of A   symmetry.
    25 basis functions,    44 primitive gaussians,    25 cartesian basis functions
     5 alpha electrons        5 beta electrons
       nuclear repulsion energy        11.8809874067 Hartrees.
 NAtoms=    4 NActive=    4 NUniq=    4 SFac= 1.00D+00 NAtFMM=   60 NAOKFM=F Big=F
 Integral buffers will be    131072 words long.
 Raffenetti 2 integral format.
 Two-electron integral symmetry is turned on.
 One-electron integrals computed using PRISM.
 NBasis=    25 RedAO= T EigKep=  1.48D-02  NBF=    25
 NBsUse=    25 1.00D-06 EigRej= -1.00D+00 NBFU=    25
 ExpMin= 6.39D-02 ExpMax= 4.17D+03 ExpMxC= 6.27D+02 IAcc=2 IRadAn=         4 AccDes= 0.00D+00
 Harris functional with IExCor= 1009 and IRadAn=       4 diagonalized for initial guess.
 HarFok:  IExCor= 1009 AccDes= 0.00D+00 IRadAn=         4 IDoV= 1 UseB2=F ITyADJ=14
 ICtDFT=  3500011 ScaDFX=  1.000000  1.000000  1.000000  1.000000
 FoFCou: FMM=F IPFlag=           0 FMFlag=      100000 FMFlg1=           0
         NFxFlg=           0 DoJE=T BraDBF=F KetDBF=T FulRan=T
         wScrn=  0.000000 ICntrl=     500 IOpCl=  0 I1Cent=   200000004 NGrid=           0
         NMat0=    1 NMatS0=      1 NMatT0=    0 NMatD0=    1 NMtDS0=    0 NMtDT0=    0
 Petite list used in FoFCou.
 Keep R1 ints in memory in canonical form, NReq=934140.
 Requested convergence on RMS density matrix=1.00D-08 within 128 cycles.
 Requested convergence on MAX density matrix=1.00D-06.
 Requested convergence on             energy=1.00D-06.
 No special actions if energy rises.
 Integral accuracy reduced to 1.0D-05 until final iterations.
 Initial convergence to 1.0D-05 achieved.  Increase integral accuracy.
 SCF Done:  E(RM062X) =  -56.5198970334     A.U. after   13 cycles
            NFock= 13  Conv=0.23D-08     -V/T= 2.0091

 **********************************************************************

            Population analysis using the SCF density.

 **********************************************************************

 Orbital symmetries:
       Occupied  (A) (A) (A) (A) (A)
       Virtual   (A) (A) (A) (A) (A) (A) (A) (A) (A) (A) (A) (A)
                 (A) (A) (A) (A) (A) (A) (A) (A)
 The electronic state is 1-A.
 Alpha  occ. eigenvalues --  -14.74531  -0.95864  -0.53251  -0.53244  -0.33746
 Alpha virt. eigenvalues --    0.05016   0.10892   0.10893   0.14533   0.24162
 Alpha virt. eigenvalues --    0.24167   0.29455   0.89853   0.89858   0.95558
 Alpha virt. eigenvalues --    1.01027   1.01041   1.17304   1.20220   1.71920
 Alpha virt. eigenvalues --    1.71924   1.98904   2.50641   2.50647   3.76013
          Condensed to atoms (all electrons):
               1          2          3          4
     1  N    7.165623   0.318093   0.318078   0.318069
     2  H    0.318093   0.371507  -0.031451  -0.031448
     3  H    0.318078  -0.031451   0.371576  -0.031478
     4  H    0.318069  -0.031448  -0.031478   0.371570
 Mulliken charges:
               1
     1  N   -1.119862
     2  H    0.373299
     3  H    0.373275
     4  H    0.373288
 Sum of Mulliken charges =   0.00000
 Mulliken charges with hydrogens summed into heavy atoms:
               1
     1  N    0.000000
 Electronic spatial extent (au):  <R**2>=             27.1909
 Charge=              0.0000 electrons
 Dipole moment (field-independent basis, Debye):
    X=             -0.0004    Y=              0.0001    Z=              1.9648  Tot=              1.9648
 Quadrupole moment (field-independent basis, Debye-Ang):
   XX=             -6.3144   YY=             -6.3160   ZZ=             -9.6512
   XY=              0.0000   XZ=              0.0001   YZ=              0.0000
 Traceless Quadrupole moment (field-independent basis, Debye-Ang):
   XX=              1.1128   YY=              1.1112   ZZ=             -2.2240
   XY=              0.0000   XZ=              0.0001   YZ=              0.0000
 Octapole moment (field-independent basis, Debye-Ang**2):
  XXX=              0.8995  YYY=              0.1863  ZZZ=              1.9384  XYY=             -0.9001
  XXY=             -0.1862  XXZ=              1.0065  XZZ=             -0.0002  YZZ=              0.0001
  YYZ=              1.0060  XYZ=              0.0000
 Hexadecapole moment (field-independent basis, Debye-Ang**3):
 XXXX=            -10.2876 YYYY=            -10.2883 ZZZZ=            -14.1569 XXXY=              0.0000
 XXXZ=              0.3386 YYYX=             -0.0001 YYYZ=              0.0700 ZZZX=              0.0003
 ZZZY=              0.0000 XXYY=             -3.4290 XXZZ=             -4.1101 YYZZ=             -4.1102
 XXYZ=             -0.0700 YYXZ=             -0.3382 ZZXY=              0.0000
 N-N= 1.188098740671D+01 E-N=-1.554247699834D+02  KE= 5.600818465143D+01
 Calling FoFJK, ICntrl=      2127 FMM=F ISym2X=0 I1Cent= 0 IOpClX= 0 NMat=1 NMatS=1 NMatT=0.
 ***** Axes restored to original set *****
 -------------------------------------------------------------------
 Center     Atomic                   Forces (Hartrees/Bohr)
 Number     Number              X              Y              Z
 -------------------------------------------------------------------
      1        7           0.004315060    0.000614303    0.004925981
      2        1          -0.001358419   -0.000207629   -0.001644326
      3        1          -0.001471690   -0.000167674   -0.001662155
      4        1          -0.001484951   -0.000239000   -0.001619500
 -------------------------------------------------------------------
 Cartesian Forces:  Max     0.004925981 RMS     0.002192722

 GradGradGradGradGradGradGradGradGradGradGradGradGradGradGradGradGradGrad
 Berny optimization.
 FormGI is forming the generalized inverse of G from B-inverse, IUseBI=4.
 Internal  Forces:  Max     0.002619167 RMS     0.001722247
 Search for a local minimum.
 Step number   1 out of a maximum of   20
 All quantities printed in internal units (Hartrees-Bohrs-Radians)
 Mixed Optimization -- RFO/linear search
 Second derivative matrix not updated -- first step.
 The second derivative matrix:
                          R1        R2        R3        A1        A2
           R1           0.44498
           R2           0.00000   0.44499
           R3           0.00000   0.00000   0.44504
           A1           0.00000   0.00000   0.00000   0.16000
           A2           0.00000   0.00000   0.00000   0.00000   0.16000
           A3           0.00000   0.00000   0.00000   0.00000   0.00000
           D1           0.00000   0.00000   0.00000   0.00000   0.00000
                          A3        D1
           A3           0.16000
           D1           0.00000   0.00778
 ITU=  0
     Eigenvalues ---    0.06559   0.16000   0.16000   0.44498   0.44499
     Eigenvalues ---    0.44504
 RFO step:  Lambda=-2.19861767D-04 EMin= 6.55937966D-02
 Linear search not attempted -- first point.
 Iteration  1 RMS(Cart)=  0.01341272 RMS(Int)=  0.00040130
 Iteration  2 RMS(Cart)=  0.00022461 RMS(Int)=  0.00031955
 Iteration  3 RMS(Cart)=  0.00000005 RMS(Int)=  0.00031955
 Variable       Old X    -DE/DX   Delta X   Delta X   Delta X     New X
                                 (Linear)    (Quad)   (Total)
    R1        1.92563  -0.00089   0.00000  -0.00199  -0.00199   1.92364
    R2        1.92562  -0.00084   0.00000  -0.00189  -0.00189   1.92373
    R3        1.92556  -0.00083   0.00000  -0.00187  -0.00187   1.92369
    A1        1.85039   0.00051   0.00000   0.01932   0.01874   1.86912
    A2        1.85035   0.00232   0.00000   0.02064   0.02040   1.87074
    A3        1.84989   0.00246   0.00000   0.02152   0.02128   1.87117
    D1       -1.96160  -0.00262   0.00000  -0.03980  -0.04030  -2.00190
         Item               Value     Threshold  Converged?
 Maximum Force            0.002619     0.000450     NO 
 RMS     Force            0.001722     0.000300     NO 
 Maximum Displacement     0.018687     0.001800     NO 
 RMS     Displacement     0.013349     0.001200     NO 
 Predicted change in Energy=-1.133619D-04
 GradGradGradGradGradGradGradGradGradGradGradGradGradGradGradGradGradGrad

                          Input orientation:                          
 ---------------------------------------------------------------------
 Center     Atomic      Atomic             Coordinates (Angstroms)
 Number     Number       Type             X           Y           Z
 ---------------------------------------------------------------------
      1          7           0       -0.183974   -0.026553   -0.212311
      2          1           0       -0.641799    0.264660    0.648972
      3          1           0        0.532585    0.666271   -0.419304
      4          1           0        0.293188   -0.904378   -0.017357
 ---------------------------------------------------------------------
                    Distance matrix (angstroms):
                    1          2          3          4
     1  N    0.000000
     2  H    1.017948   0.000000
     3  H    1.017992   1.637585   0.000000
     4  H    1.017972   1.638549   1.638844   0.000000
 Stoichiometry    H3N
 Framework group  C1[X(H3N)]
 Deg. of freedom     6
 Full point group                 C1      NOp   1
 Largest Abelian subgroup         C1      NOp   1
 Largest concise Abelian subgroup C1      NOp   1
                         Standard orientation:                         
 ---------------------------------------------------------------------
 Center     Atomic      Atomic             Coordinates (Angstroms)
 Number     Number       Type             X           Y           Z
 ---------------------------------------------------------------------
      1          7           0       -0.000160   -0.000046   -0.112873
      2          1           0        0.378206    0.866929    0.263175
      3          1           0        0.562844   -0.760214    0.263263
      4          1           0       -0.939930   -0.106395    0.263676
 ---------------------------------------------------------------------
 Rotational constants (GHZ):    296.7053581    296.2684829    186.8233963
 Standard basis: 6-31+G(d) (6D, 7F)
 There are    25 symmetry adapted cartesian basis functions of A   symmetry.
 There are    25 symmetry adapted basis functions of A   symmetry.
    25 basis functions,    44 primitive gaussians,    25 cartesian basis functions
     5 alpha electrons        5 beta electrons
       nuclear repulsion energy        11.8855407688 Hartrees.
 NAtoms=    4 NActive=    4 NUniq=    4 SFac= 1.00D+00 NAtFMM=   60 NAOKFM=F Big=F
 Integral buffers will be    131072 words long.
 Raffenetti 2 integral format.
 Two-electron integral symmetry is turned on.
 One-electron integrals computed using PRISM.
 NBasis=    25 RedAO= T EigKep=  1.53D-02  NBF=    25
 NBsUse=    25 1.00D-06 EigRej= -1.00D+00 NBFU=    25
 Initial guess from the checkpoint file:  "/srv/scratch/z5358697/gauss/Gau-1773749.chk"
 B after Tr=     0.000000    0.000000    0.000000
         Rot=    0.817324   -0.000053   -0.000313   -0.576178 Ang= -70.36 deg.
 Keep R1 ints in memory in canonical form, NReq=934140.
 Requested convergence on RMS density matrix=1.00D-08 within 128 cycles.
 Requested convergence on MAX density matrix=1.00D-06.
 Requested convergence on             energy=1.00D-06.
 No special actions if energy rises.
 SCF Done:  E(RM062X) =  -56.5200372518     A.U. after    8 cycles
            NFock=  8  Conv=0.37D-08     -V/T= 2.0092
 Calling FoFJK, ICntrl=      2127 FMM=F ISym2X=0 I1Cent= 0 IOpClX= 0 NMat=1 NMatS=1 NMatT=0.
 ***** Axes restored to original set *****
 -------------------------------------------------------------------
 Center     Atomic                   Forces (Hartrees/Bohr)
 Number     Number              X              Y              Z
 -------------------------------------------------------------------
      1        7           0.001704816    0.000440016    0.002039937
      2        1          -0.000016979   -0.000450216   -0.001141514
      3        1          -0.000943211   -0.000833965   -0.000322576
      4        1          -0.000744626    0.000844165   -0.000575846
 -------------------------------------------------------------------
 Cartesian Forces:  Max     0.002039937 RMS     0.001002300

 GradGradGradGradGradGradGradGradGradGradGradGradGradGradGradGradGradGrad
 Berny optimization.
 Using GEDIIS/GDIIS optimizer.
 FormGI is forming the generalized inverse of G from B-inverse, IUseBI=4.
 Internal  Forces:  Max     0.001188313 RMS     0.000841046
 Search for a local minimum.
 Step number   2 out of a maximum of   20
 All quantities printed in internal units (Hartrees-Bohrs-Radians)
 Mixed Optimization -- En-DIIS/RFO-DIIS
 Update second derivatives using D2CorX and points    1    2
 DE= -1.40D-04 DEPred=-1.13D-04 R= 1.24D+00
 TightC=F SS=  1.41D+00  RLast= 5.34D-02 DXNew= 5.0454D-01 1.6030D-01
 Trust test= 1.24D+00 RLast= 5.34D-02 DXMaxT set to 3.00D-01
 The second derivative matrix:
                          R1        R2        R3        A1        A2
           R1           0.44154
           R2          -0.00311   0.44229
           R3          -0.00302  -0.00259   0.44256
           A1           0.01275   0.01228   0.01220   0.11802
           A2           0.01595   0.01663   0.01690  -0.04361   0.13152
           A3           0.01684   0.01767   0.01798  -0.04530  -0.02790
           D1          -0.00367  -0.00497  -0.00537   0.00202  -0.01691
                          A3        D1
           A3           0.13294
           D1          -0.01947   0.02917
 ITU=  1  0
 Use linear search instead of GDIIS.
     Eigenvalues ---    0.04827   0.15945   0.16176   0.44069   0.44501
     Eigenvalues ---    0.44524
 RFO step:  Lambda=-1.22316055D-05 EMin= 4.82665366D-02
 Quartic linear search produced a step of  0.36352.
 Iteration  1 RMS(Cart)=  0.00480484 RMS(Int)=  0.00016662
 Iteration  2 RMS(Cart)=  0.00003956 RMS(Int)=  0.00016136
 Iteration  3 RMS(Cart)=  0.00000000 RMS(Int)=  0.00016136
 Variable       Old X    -DE/DX   Delta X   Delta X   Delta X     New X
                                 (Linear)    (Quad)   (Total)
    R1        1.92364  -0.00109  -0.00072  -0.00273  -0.00345   1.92019
    R2        1.92373  -0.00116  -0.00069  -0.00298  -0.00367   1.92006
    R3        1.92369  -0.00119  -0.00068  -0.00306  -0.00375   1.91994
    A1        1.86912   0.00030   0.00681   0.00275   0.00927   1.87839
    A2        1.87074   0.00046   0.00741  -0.00010   0.00719   1.87793
    A3        1.87117   0.00037   0.00774  -0.00119   0.00642   1.87759
    D1       -2.00190  -0.00075  -0.01465  -0.00255  -0.01745  -2.01936
         Item               Value     Threshold  Converged?
 Maximum Force            0.001188     0.000450     NO 
 RMS     Force            0.000841     0.000300     NO 
 Maximum Displacement     0.008091     0.001800     NO 
 RMS     Displacement     0.004799     0.001200     NO 
 Predicted change in Energy=-1.734746D-05
 GradGradGradGradGradGradGradGradGradGradGradGradGradGradGradGradGradGrad

                          Input orientation:                          
 ---------------------------------------------------------------------
 Center     Atomic      Atomic             Coordinates (Angstroms)
 Number     Number       Type             X           Y           Z
 ---------------------------------------------------------------------
      1          7           0       -0.180483   -0.025695   -0.208030
      2          1           0       -0.644058    0.264316    0.648414
      3          1           0        0.532256    0.666245   -0.421527
      4          1           0        0.292285   -0.904865   -0.018857
 ---------------------------------------------------------------------
                    Distance matrix (angstroms):
                    1          2          3          4
     1  N    0.000000
     2  H    1.016122   0.000000
     3  H    1.016051   1.640134   0.000000
     4  H    1.015990   1.639809   1.639547   0.000000
 Stoichiometry    H3N
 Framework group  C1[X(H3N)]
 Deg. of freedom     6
 Full point group                 C1      NOp   1
 Largest Abelian subgroup         C1      NOp   1
 Largest concise Abelian subgroup C1      NOp   1
                         Standard orientation:                         
 ---------------------------------------------------------------------
 Center     Atomic      Atomic             Coordinates (Angstroms)
 Number     Number       Type             X           Y           Z
 ---------------------------------------------------------------------
      1          7           0        0.000025   -0.000036   -0.110642
      2          1           0        0.906685   -0.272813    0.258228
      3          1           0       -0.689864   -0.648407    0.258176
      4          1           0       -0.216998    0.921469    0.258092
 ---------------------------------------------------------------------
 Rotational constants (GHZ):    298.5629367    298.3652420    186.4809363
 Standard basis: 6-31+G(d) (6D, 7F)
 There are    25 symmetry adapted cartesian basis functions of A   symmetry.
 There are    25 symmetry adapted basis functions of A   symmetry.
    25 basis functions,    44 primitive gaussians,    25 cartesian basis functions
     5 alpha electrons        5 beta electrons
       nuclear repulsion energy        11.9052381164 Hartrees.
 NAtoms=    4 NActive=    4 NUniq=    4 SFac= 1.00D+00 NAtFMM=   60 NAOKFM=F Big=F
 Integral buffers will be    131072 words long.
 Raffenetti 2 integral format.
 Two-electron integral symmetry is turned on.
 One-electron integrals computed using PRISM.
 NBasis=    25 RedAO= T EigKep=  1.54D-02  NBF=    25
 NBsUse=    25 1.00D-06 EigRej= -1.00D+00 NBFU=    25
 Initial guess from the checkpoint file:  "/srv/scratch/z5358697/gauss/Gau-1773749.chk"
 B after Tr=     0.000000    0.000000    0.000000
         Rot=    0.747657    0.000131    0.000307    0.664085 Ang=  83.22 deg.
 Keep R1 ints in memory in canonical form, NReq=934140.
 Requested convergence on RMS density matrix=1.00D-08 within 128 cycles.
 Requested convergence on MAX density matrix=1.00D-06.
 Requested convergence on             energy=1.00D-06.
 No special actions if energy rises.
 SCF Done:  E(RM062X) =  -56.5200571084     A.U. after    8 cycles
            NFock=  8  Conv=0.41D-08     -V/T= 2.0091
 Calling FoFJK, ICntrl=      2127 FMM=F ISym2X=0 I1Cent= 0 IOpClX= 0 NMat=1 NMatS=1 NMatT=0.
 ***** Axes restored to original set *****
 -------------------------------------------------------------------
 Center     Atomic                   Forces (Hartrees/Bohr)
 Number     Number              X              Y              Z
 -------------------------------------------------------------------
      1        7          -0.000000193    0.000018426    0.000095420
      2        1          -0.000011773    0.000041677   -0.000025514
      3        1           0.000000627    0.000105213   -0.000022761
      4        1           0.000011339   -0.000165315   -0.000047145
 -------------------------------------------------------------------
 Cartesian Forces:  Max     0.000165315 RMS     0.000066608

 GradGradGradGradGradGradGradGradGradGradGradGradGradGradGradGradGradGrad
 Berny optimization.
 Using GEDIIS/GDIIS optimizer.
 FormGI is forming the generalized inverse of G from B-inverse, IUseBI=4.
 Internal  Forces:  Max     0.000146117 RMS     0.000091286
 Search for a local minimum.
 Step number   3 out of a maximum of   20
 All quantities printed in internal units (Hartrees-Bohrs-Radians)
 Mixed Optimization -- En-DIIS/RFO-DIIS
 Swapping is turned off.
 Update second derivatives using D2CorX and points    1    2    3
 DE= -1.99D-05 DEPred=-1.73D-05 R= 1.14D+00
 TightC=F SS=  1.41D+00  RLast= 2.29D-02 DXNew= 5.0454D-01 6.8589D-02
 Trust test= 1.14D+00 RLast= 2.29D-02 DXMaxT set to 3.00D-01
 The second derivative matrix:
                          R1        R2        R3        A1        A2
           R1           0.44132
           R2          -0.00112   0.44694
           R3           0.00083   0.00425   0.45184
           A1           0.01185   0.01051   0.00972   0.11868
           A2           0.01913   0.01879   0.01810  -0.04408   0.12794
           A3           0.02058   0.02059   0.02012  -0.04603  -0.03157
           D1          -0.00351  -0.00283  -0.00154   0.00106  -0.01456
                          A3        D1
           A3           0.12926
           D1          -0.01663   0.02990
 ITU=  1  1  0
     Eigenvalues ---    0.04642   0.15699   0.16047   0.44243   0.44500
     Eigenvalues ---    0.45780
 En-DIIS/RFO-DIIS IScMMF=        0 using points:     3    2
 RFO step:  Lambda=-1.24111721D-07.
 DidBck=F Rises=F RFO-DIIS coefs:    1.03642   -0.03642
 Iteration  1 RMS(Cart)=  0.00058576 RMS(Int)=  0.00000217
 Iteration  2 RMS(Cart)=  0.00000032 RMS(Int)=  0.00000214
 Variable       Old X    -DE/DX   Delta X   Delta X   Delta X     New X
                                 (Linear)    (Quad)   (Total)
    R1        1.92019  -0.00001  -0.00013   0.00000  -0.00012   1.92007
    R2        1.92006   0.00007  -0.00013   0.00020   0.00007   1.92013
    R3        1.91994   0.00015  -0.00014   0.00037   0.00023   1.92018
    A1        1.87839  -0.00005   0.00034  -0.00016   0.00018   1.87857
    A2        1.87793   0.00010   0.00026   0.00065   0.00091   1.87885
    A3        1.87759   0.00012   0.00023   0.00078   0.00101   1.87860
    D1       -2.01936  -0.00005  -0.00064  -0.00054  -0.00118  -2.02054
         Item               Value     Threshold  Converged?
 Maximum Force            0.000146     0.000450     YES
 RMS     Force            0.000091     0.000300     YES
 Maximum Displacement     0.000903     0.001800     YES
 RMS     Displacement     0.000586     0.001200     YES
 Predicted change in Energy=-1.565021D-07
 Optimization completed.
    -- Stationary point found.
                           ----------------------------
                           !   Optimized Parameters   !
                           ! (Angstroms and Degrees)  !
 --------------------------                            --------------------------
 ! Name  Definition              Value          Derivative Info.                !
 --------------------------------------------------------------------------------
 ! R1    R(1,2)                  1.0161         -DE/DX =    0.0                 !
 ! R2    R(1,3)                  1.0161         -DE/DX =    0.0001              !
 ! R3    R(1,4)                  1.016          -DE/DX =    0.0001              !
 ! A1    A(2,1,3)              107.6239         -DE/DX =   -0.0001              !
 ! A2    A(2,1,4)              107.5976         -DE/DX =    0.0001              !
 ! A3    A(3,1,4)              107.5781         -DE/DX =    0.0001              !
 ! D1    D(2,1,4,3)           -115.7006         -DE/DX =   -0.0001              !
 --------------------------------------------------------------------------------
 GradGradGradGradGradGradGradGradGradGradGradGradGradGradGradGradGradGrad

                          Input orientation:                          
 ---------------------------------------------------------------------
 Center     Atomic      Atomic             Coordinates (Angstroms)
 Number     Number       Type             X           Y           Z
 ---------------------------------------------------------------------
      1          7           0       -0.180483   -0.025695   -0.208030
      2          1           0       -0.644058    0.264316    0.648414
      3          1           0        0.532256    0.666245   -0.421527
      4          1           0        0.292285   -0.904865   -0.018857
 ---------------------------------------------------------------------
                    Distance matrix (angstroms):
                    1          2          3          4
     1  N    0.000000
     2  H    1.016122   0.000000
     3  H    1.016051   1.640134   0.000000
     4  H    1.015990   1.639809   1.639547   0.000000
 Stoichiometry    H3N
 Framework group  C1[X(H3N)]
 Deg. of freedom     6
 Full point group                 C1      NOp   1
 Largest Abelian subgroup         C1      NOp   1
 Largest concise Abelian subgroup C1      NOp   1
                         Standard orientation:                         
 ---------------------------------------------------------------------
 Center     Atomic      Atomic             Coordinates (Angstroms)
 Number     Number       Type             X           Y           Z
 ---------------------------------------------------------------------
      1          7           0        0.000025   -0.000036   -0.110642
      2          1           0        0.906685   -0.272813    0.258228
      3          1           0       -0.689864   -0.648407    0.258176
      4          1           0       -0.216998    0.921469    0.258092
 ---------------------------------------------------------------------
 Rotational constants (GHZ):    298.5629367    298.3652420    186.4809363

 **********************************************************************

            Population analysis using the SCF density.

 **********************************************************************

 Orbital symmetries:
       Occupied  (A) (A) (A) (A) (A)
       Virtual   (A) (A) (A) (A) (A) (A) (A) (A) (A) (A) (A) (A)
                 (A) (A) (A) (A) (A) (A) (A) (A)
 The electronic state is 1-A.
 Alpha  occ. eigenvalues --  -14.74347  -0.95708  -0.53555  -0.53546  -0.33328
 Alpha virt. eigenvalues --    0.05202   0.10817   0.10819   0.14548   0.24436
 Alpha virt. eigenvalues --    0.24440   0.29127   0.89796   0.89803   0.95324
 Alpha virt. eigenvalues --    1.01698   1.01709   1.16125   1.18910   1.72026
 Alpha virt. eigenvalues --    1.72032   2.01505   2.50711   2.50725   3.75525
          Condensed to atoms (all electrons):
               1          2          3          4
     1  N    7.163123   0.320201   0.320195   0.320170
     2  H    0.320201   0.364878  -0.029816  -0.029844
     3  H    0.320195  -0.029816   0.364921  -0.029853
     4  H    0.320170  -0.029844  -0.029853   0.364972
 Mulliken charges:
               1
     1  N   -1.123689
     2  H    0.374580
     3  H    0.374553
     4  H    0.374556
 Sum of Mulliken charges =   0.00000
 Mulliken charges with hydrogens summed into heavy atoms:
               1
     1  N    0.000000
 Electronic spatial extent (au):  <R**2>=             27.1432
 Charge=              0.0000 electrons
 Dipole moment (field-independent basis, Debye):
    X=             -0.0003    Y=              0.0005    Z=              1.8663  Tot=              1.8663
 Quadrupole moment (field-independent basis, Debye-Ang):
   XX=             -6.2417   YY=             -6.2442   ZZ=             -9.7346
   XY=              0.0000   XZ=              0.0001   YZ=             -0.0001
 Traceless Quadrupole moment (field-independent basis, Debye-Ang):
   XX=              1.1652   YY=              1.1626   ZZ=             -2.3278
   XY=              0.0000   XZ=              0.0001   YZ=             -0.0001
 Octapole moment (field-independent basis, Debye-Ang**2):
  XXX=              0.6150  YYY=              0.7407  ZZZ=              1.8226  XYY=             -0.6154
  XXY=             -0.7401  XXZ=              0.9638  XZZ=             -0.0002  YZZ=              0.0003
  YYZ=              0.9630  XYZ=              0.0000
 Hexadecapole moment (field-independent basis, Debye-Ang**3):
 XXXX=            -10.2009 YYYY=            -10.2016 ZZZZ=            -14.1519 XXXY=              0.0003
 XXXZ=              0.2148 YYYX=             -0.0002 YYYZ=              0.2581 ZZZX=              0.0001
 ZZZY=             -0.0001 XXYY=             -3.4005 XXZZ=             -4.1315 YYZZ=             -4.1314
 XXYZ=             -0.2582 YYXZ=             -0.2145 ZZXY=              0.0000
 N-N= 1.190523811639D+01 E-N=-1.554785091052D+02  KE= 5.601103044130D+01
 1\1\GINC-KATANA2\FOpt\RM062X\6-31+G(d)\H3N1\Z5358697\13-Mar-2025\0\\#m
 062X/6-31+G(d) OPT Freq=noraman\\ammonia\\0,1\N,-0.1804834903,-0.02569
 54948,-0.208029853\H,-0.6440584096,0.264315784,0.6484141553\H,0.532256
 4272,0.6662445506,-0.4215273719\H,0.2922854727,-0.9048648398,-0.018856
 9304\\Version=ES64L-G09RevD.01\State=1-A\HF=-56.5200571\RMSD=4.089e-09
 \RMSF=6.661e-05\Dipole=0.4790646,0.068256,0.5522439\Quadrupole=-0.2387
 653,0.8418307,-0.6030655,-0.1577279,-1.2742296,-0.1819371\PG=C01 [X(H3
 N1)]\\@


 IT'S WHAT YOU LEARN AFTER YOU KNOW IT ALL
 THAT COUNTS.
 Job cpu time:       0 days  0 hours  0 minutes  5.0 seconds.
 File lengths (MBytes):  RWF=    132 Int=      0 D2E=      0 Chk=      2 Scr=      2
 Normal termination of Gaussian 09 at Thu Mar 13 14:54:16 2025.
 Link1:  Proceeding to internal job step number  2.
 ---------------------------------------------------------------------
 #N Geom=AllCheck Guess=TCheck SCRF=Check GenChk RM062X/6-31+G(d) Freq
 ---------------------------------------------------------------------
 1/10=4,29=7,30=1,38=1,40=1/1,3;
 2/12=2,40=1/2;
 3/5=1,6=6,7=11,11=2,14=-4,16=1,25=1,30=1,70=2,71=2,74=-55,116=1,140=1/1,2,3;
 4/5=101/1;
 5/5=2,98=1/2;
 8/6=4,10=90,11=11/1;
 11/6=1,8=1,9=11,15=111,16=1/1,2,10;
 10/6=1/2;
 6/7=2,8=2,9=2,10=2,18=1,28=1/1;
 7/8=1,10=1,25=1/1,2,3,16;
 1/10=4,30=1/3;
 99//99;
 Structure from the checkpoint file:  "/srv/scratch/z5358697/gauss/Gau-1773749.chk"
 -------
 ammonia
 -------
 Charge =  0 Multiplicity = 1
 Redundant internal coordinates found in file.
 N,0,-0.1804834903,-0.0256954948,-0.208029853
 H,0,-0.6440584096,0.264315784,0.6484141553
 H,0,0.5322564272,0.6662445506,-0.4215273719
 H,0,0.2922854727,-0.9048648398,-0.0188569304
 Recover connectivity data from disk.

 GradGradGradGradGradGradGradGradGradGradGradGradGradGradGradGradGradGrad
 Berny optimization.
 Initialization pass.
                           ----------------------------
                           !    Initial Parameters    !
                           ! (Angstroms and Degrees)  !
 --------------------------                            --------------------------
 ! Name  Definition              Value          Derivative Info.                !
 --------------------------------------------------------------------------------
 ! R1    R(1,2)                  1.0161         calculate D2E/DX2 analytically  !
 ! R2    R(1,3)                  1.0161         calculate D2E/DX2 analytically  !
 ! R3    R(1,4)                  1.016          calculate D2E/DX2 analytically  !
 ! A1    A(2,1,3)              107.6239         calculate D2E/DX2 analytically  !
 ! A2    A(2,1,4)              107.5976         calculate D2E/DX2 analytically  !
 ! A3    A(3,1,4)              107.5781         calculate D2E/DX2 analytically  !
 ! D1    D(2,1,4,3)           -115.7006         calculate D2E/DX2 analytically  !
 --------------------------------------------------------------------------------
 Trust Radius=3.00D-01 FncErr=1.00D-07 GrdErr=1.00D-07
 Number of steps in this run=      2 maximum allowed number of steps=      2.
 GradGradGradGradGradGradGradGradGradGradGradGradGradGradGradGradGradGrad

                          Input orientation:                          
 ---------------------------------------------------------------------
 Center     Atomic      Atomic             Coordinates (Angstroms)
 Number     Number       Type             X           Y           Z
 ---------------------------------------------------------------------
      1          7           0       -0.180483   -0.025695   -0.208030
      2          1           0       -0.644058    0.264316    0.648414
      3          1           0        0.532256    0.666245   -0.421527
      4          1           0        0.292285   -0.904865   -0.018857
 ---------------------------------------------------------------------
                    Distance matrix (angstroms):
                    1          2          3          4
     1  N    0.000000
     2  H    1.016122   0.000000
     3  H    1.016051   1.640134   0.000000
     4  H    1.015990   1.639809   1.639547   0.000000
 Stoichiometry    H3N
 Framework group  C1[X(H3N)]
 Deg. of freedom     6
 Full point group                 C1      NOp   1
 Largest Abelian subgroup         C1      NOp   1
 Largest concise Abelian subgroup C1      NOp   1
                         Standard orientation:                         
 ---------------------------------------------------------------------
 Center     Atomic      Atomic             Coordinates (Angstroms)
 Number     Number       Type             X           Y           Z
 ---------------------------------------------------------------------
      1          7           0        0.000025   -0.000036   -0.110642
      2          1           0        0.906685   -0.272813    0.258228
      3          1           0       -0.689864   -0.648407    0.258176
      4          1           0       -0.216998    0.921469    0.258092
 ---------------------------------------------------------------------
 Rotational constants (GHZ):    298.5629367    298.3652420    186.4809363
 Standard basis: 6-31+G(d) (6D, 7F)
 There are    25 symmetry adapted cartesian basis functions of A   symmetry.
 There are    25 symmetry adapted basis functions of A   symmetry.
    25 basis functions,    44 primitive gaussians,    25 cartesian basis functions
     5 alpha electrons        5 beta electrons
       nuclear repulsion energy        11.9052381164 Hartrees.
 NAtoms=    4 NActive=    4 NUniq=    4 SFac= 1.00D+00 NAtFMM=   60 NAOKFM=F Big=F
 Integral buffers will be    131072 words long.
 Raffenetti 2 integral format.
 Two-electron integral symmetry is turned on.
 One-electron integrals computed using PRISM.
 NBasis=    25 RedAO= T EigKep=  1.54D-02  NBF=    25
 NBsUse=    25 1.00D-06 EigRej= -1.00D+00 NBFU=    25
 Initial guess from the checkpoint file:  "/srv/scratch/z5358697/gauss/Gau-1773749.chk"
 B after Tr=     0.000000    0.000000    0.000000
         Rot=    1.000000    0.000000    0.000000    0.000000 Ang=   0.00 deg.
 Keep R1 ints in memory in canonical form, NReq=934140.
 Requested convergence on RMS density matrix=1.00D-08 within 128 cycles.
 Requested convergence on MAX density matrix=1.00D-06.
 Requested convergence on             energy=1.00D-06.
 No special actions if energy rises.
 SCF Done:  E(RM062X) =  -56.5200571084     A.U. after    1 cycles
            NFock=  1  Conv=0.90D-09     -V/T= 2.0091
 DoSCS=F DFT=T ScalE2(SS,OS)=  1.000000  1.000000
 Range of M.O.s used for correlation:     1    25
 NBasis=    25 NAE=     5 NBE=     5 NFC=     0 NFV=     0
 NROrb=     25 NOA=     5 NOB=     5 NVA=    20 NVB=    20
 Symmetrizing basis deriv contribution to polar:
 IMax=3 JMax=2 DiffMx= 0.00D+00
 G2DrvN: will do     5 centers at a time, making    1 passes.
 Calling FoFCou, ICntrl=  3107 FMM=F I1Cent=   0 AccDes= 0.00D+00.
 End of G2Drv F.D. properties file   721 does not exist.
 End of G2Drv F.D. properties file   722 does not exist.
 End of G2Drv F.D. properties file   788 does not exist.
          IDoAtm=1111
          Differentiating once with respect to electric field.
                with respect to dipole field.
          Differentiating once with respect to nuclear coordinates.
 Keep R1 ints in memory in canonical form, NReq=913001.
          There are    15 degrees of freedom in the 1st order CPHF.  IDoFFX=6 NUNeed=     3.
     12 vectors produced by pass  0 Test12= 6.67D-16 6.67D-09 XBig12= 4.37D+00 1.75D+00.
 AX will form    12 AO Fock derivatives at one time.
     12 vectors produced by pass  1 Test12= 6.67D-16 6.67D-09 XBig12= 2.80D-01 2.61D-01.
     12 vectors produced by pass  2 Test12= 6.67D-16 6.67D-09 XBig12= 4.27D-03 3.17D-02.
     12 vectors produced by pass  3 Test12= 6.67D-16 6.67D-09 XBig12= 3.20D-06 8.59D-04.
     12 vectors produced by pass  4 Test12= 6.67D-16 6.67D-09 XBig12= 5.97D-09 4.44D-05.
      8 vectors produced by pass  5 Test12= 6.67D-16 6.67D-09 XBig12= 4.17D-12 1.12D-06.
      1 vectors produced by pass  6 Test12= 6.67D-16 6.67D-09 XBig12= 4.69D-15 3.25D-08.
 InvSVY:  IOpt=1 It=  1 EMax= 1.11D-15
 Solved reduced A of dimension    69 with    12 vectors.
 Isotropic polarizability for W=    0.000000       10.29 Bohr**3.
 End of Minotr F.D. properties file   721 does not exist.
 End of Minotr F.D. properties file   722 does not exist.
 End of Minotr F.D. properties file   788 does not exist.

 **********************************************************************

            Population analysis using the SCF density.

 **********************************************************************

 Orbital symmetries:
       Occupied  (A) (A) (A) (A) (A)
       Virtual   (A) (A) (A) (A) (A) (A) (A) (A) (A) (A) (A) (A)
                 (A) (A) (A) (A) (A) (A) (A) (A)
 The electronic state is 1-A.
 Alpha  occ. eigenvalues --  -14.74347  -0.95708  -0.53555  -0.53546  -0.33328
 Alpha virt. eigenvalues --    0.05202   0.10817   0.10819   0.14548   0.24436
 Alpha virt. eigenvalues --    0.24440   0.29127   0.89796   0.89803   0.95324
 Alpha virt. eigenvalues --    1.01698   1.01709   1.16125   1.18910   1.72026
 Alpha virt. eigenvalues --    1.72032   2.01505   2.50711   2.50725   3.75525
          Condensed to atoms (all electrons):
               1          2          3          4
     1  N    7.163123   0.320201   0.320195   0.320170
     2  H    0.320201   0.364878  -0.029816  -0.029844
     3  H    0.320195  -0.029816   0.364921  -0.029853
     4  H    0.320170  -0.029844  -0.029853   0.364972
 Mulliken charges:
               1
     1  N   -1.123689
     2  H    0.374580
     3  H    0.374553
     4  H    0.374556
 Sum of Mulliken charges =   0.00000
 Mulliken charges with hydrogens summed into heavy atoms:
               1
     1  N    0.000000
 APT charges:
               1
     1  N   -0.556276
     2  H    0.185550
     3  H    0.185094
     4  H    0.185632
 Sum of APT charges =   0.00000
 APT charges with hydrogens summed into heavy atoms:
               1
     1  N    0.000000
 Electronic spatial extent (au):  <R**2>=             27.1432
 Charge=              0.0000 electrons
 Dipole moment (field-independent basis, Debye):
    X=             -0.0003    Y=              0.0005    Z=              1.8663  Tot=              1.8663
 Quadrupole moment (field-independent basis, Debye-Ang):
   XX=             -6.2417   YY=             -6.2442   ZZ=             -9.7346
   XY=              0.0000   XZ=              0.0001   YZ=             -0.0001
 Traceless Quadrupole moment (field-independent basis, Debye-Ang):
   XX=              1.1652   YY=              1.1626   ZZ=             -2.3278
   XY=              0.0000   XZ=              0.0001   YZ=             -0.0001
 Octapole moment (field-independent basis, Debye-Ang**2):
  XXX=              0.6150  YYY=              0.7407  ZZZ=              1.8226  XYY=             -0.6154
  XXY=             -0.7401  XXZ=              0.9638  XZZ=             -0.0002  YZZ=              0.0003
  YYZ=              0.9630  XYZ=              0.0000
 Hexadecapole moment (field-independent basis, Debye-Ang**3):
 XXXX=            -10.2009 YYYY=            -10.2016 ZZZZ=            -14.1519 XXXY=              0.0003
 XXXZ=              0.2148 YYYX=             -0.0002 YYYZ=              0.2581 ZZZX=              0.0001
 ZZZY=             -0.0001 XXYY=             -3.4005 XXZZ=             -4.1315 YYZZ=             -4.1314
 XXYZ=             -0.2582 YYXZ=             -0.2145 ZZXY=              0.0000
 N-N= 1.190523811639D+01 E-N=-1.554785090337D+02  KE= 5.601103040749D+01
  Exact polarizability:   9.920   0.001   9.915   0.005   0.002  11.024
 Approx polarizability:   9.935   0.000   9.930   0.000   0.000   9.749
 Calling FoFJK, ICntrl=    100127 FMM=F ISym2X=0 I1Cent= 0 IOpClX= 0 NMat=1 NMatS=1 NMatT=0.
 Full mass-weighted force constant matrix:
 Low frequencies ---  -84.3635  -38.0357   -0.0006   -0.0004    0.0023  134.1692
 Low frequencies --- 1089.6252 1719.0452 1720.5370
 Diagonal vibrational polarizability:
        0.3041713       0.3061007       5.6759655
 Harmonic frequencies (cm**-1), IR intensities (KM/Mole), Raman scattering
 activities (A**4/AMU), depolarization ratios for plane and unpolarized
 incident light, reduced masses (AMU), force constants (mDyne/A),
 and normal coordinates:
                      1                      2                      3
                      A                      A                      A
 Frequencies --   1089.6150              1719.0449              1720.5358
 Red. masses --      1.1822                 1.0671                 1.0670
 Frc consts  --      0.8270                 1.8580                 1.8611
 IR Inten    --    250.3668                32.1835                32.2050
  Atom  AN      X      Y      Z        X      Y      Z        X      Y      Z
     1   7     0.00   0.00   0.12    -0.03   0.06   0.00    -0.06  -0.03   0.00
     2   1     0.19  -0.06  -0.54    -0.25  -0.51   0.16     0.05   0.53   0.18
     3   1    -0.15  -0.14  -0.54     0.53  -0.50   0.07     0.06  -0.26  -0.23
     4   1    -0.04   0.20  -0.54     0.13   0.17  -0.24     0.73   0.14   0.06
                      4                      5                      6
                      A                      A                      A
 Frequencies --   3505.6892              3642.7831              3650.2540
 Red. masses --      1.0256                 1.0911                 1.0911
 Frc consts  --      7.4264                 8.5307                 8.5654
 IR Inten    --      0.4470                 5.9902                 6.0819
  Atom  AN      X      Y      Z        X      Y      Z        X      Y      Z
     1   7     0.00   0.00  -0.04    -0.06   0.06   0.00     0.06   0.06   0.00
     2   1     0.54  -0.16   0.18     0.64  -0.18   0.25    -0.33   0.12  -0.13
     3   1    -0.38  -0.36   0.16     0.00   0.02  -0.01    -0.57  -0.53   0.29
     4   1    -0.13   0.55   0.17     0.14  -0.64  -0.25     0.10  -0.36  -0.14

 -------------------
 - Thermochemistry -
 -------------------
 Temperature   298.150 Kelvin.  Pressure   1.00000 Atm.
 Atom     1 has atomic number  7 and mass  14.00307
 Atom     2 has atomic number  1 and mass   1.00783
 Atom     3 has atomic number  1 and mass   1.00783
 Atom     4 has atomic number  1 and mass   1.00783
 Molecular mass:    17.02655 amu.
 Principal axes and moments of inertia in atomic units:
                           1         2         3
     Eigenvalues --     6.04476   6.04876   9.67789
           X            1.00000   0.00000   0.00001
           Y            0.00000   1.00000  -0.00002
           Z           -0.00001   0.00002   1.00000
 This molecule is an asymmetric top.
 Rotational symmetry number  1.
 Rotational temperatures (Kelvin)     14.32874    14.31926     8.94966
 Rotational constants (GHZ):         298.56294   298.36524   186.48094
 Zero-point vibrational energy      91681.3 (Joules/Mol)
                                   21.91236 (Kcal/Mol)
 Vibrational temperatures:   1567.71  2473.32  2475.46  5043.90  5241.15
          (Kelvin)           5251.89
 
 Zero-point correction=                           0.034920 (Hartree/Particle)
 Thermal correction to Energy=                    0.037782
 Thermal correction to Enthalpy=                  0.038726
 Thermal correction to Gibbs Free Energy=         0.015849
 Sum of electronic and zero-point Energies=            -56.485138
 Sum of electronic and thermal Energies=               -56.482275
 Sum of electronic and thermal Enthalpies=             -56.481331
 Sum of electronic and thermal Free Energies=          -56.504208
 
                     E (Thermal)             CV                S
                      KCal/Mol        Cal/Mol-Kelvin    Cal/Mol-Kelvin
 Total                   23.709              6.319             48.149
 Electronic               0.000              0.000              0.000
 Translational            0.889              2.981             34.441
 Rotational               0.889              2.981             13.634
 Vibrational             21.931              0.357              0.074
                       Q            Log10(Q)             Ln(Q)
 Total Bot       0.512899D-07         -7.289968        -16.785772
 Total V=0       0.591408D+09          8.771887         20.198017
 Vib (Bot)       0.872222D-16        -16.059373        -36.978073
 Vib (V=0)       0.100573D+01          0.002483          0.005716
 Electronic      0.100000D+01          0.000000          0.000000
 Translational   0.276150D+07          6.441145         14.831285
 Rotational      0.212941D+03          2.328260          5.361016
 ***** Axes restored to original set *****
 -------------------------------------------------------------------
 Center     Atomic                   Forces (Hartrees/Bohr)
 Number     Number              X              Y              Z
 -------------------------------------------------------------------
      1        7          -0.000000192    0.000018425    0.000095421
      2        1          -0.000011774    0.000041677   -0.000025514
      3        1           0.000000627    0.000105213   -0.000022761
      4        1           0.000011338   -0.000165315   -0.000047146
 -------------------------------------------------------------------
 Cartesian Forces:  Max     0.000165315 RMS     0.000066608
 FormGI is forming the generalized inverse of G from B-inverse, IUseBI=4.

 GradGradGradGradGradGradGradGradGradGradGradGradGradGradGradGradGradGrad
 Berny optimization.
 Internal  Forces:  Max     0.000146117 RMS     0.000091286
 Search for a local minimum.
 Step number   1 out of a maximum of    2
 All quantities printed in internal units (Hartrees-Bohrs-Radians)
 Second derivative matrix not updated -- analytic derivatives used.
 The second derivative matrix:
                          R1        R2        R3        A1        A2
           R1           0.46187
           R2          -0.00256   0.46460
           R3          -0.00258  -0.00251   0.46214
           A1           0.00736   0.00744  -0.00788   0.05795
           A2           0.01805  -0.00296   0.02056  -0.04520   0.13800
           A3          -0.00283   0.01769   0.02028  -0.04523  -0.02288
           D1          -0.01624  -0.01609  -0.01142  -0.02184  -0.00543
                          A3        D1
           A3           0.13776
           D1          -0.00532   0.03084
 ITU=  0
     Eigenvalues ---    0.04444   0.15412   0.15935   0.46143   0.46608
     Eigenvalues ---    0.46773
 Angle between quadratic step and forces=  45.77 degrees.
 Linear search not attempted -- first point.
 Iteration  1 RMS(Cart)=  0.00058589 RMS(Int)=  0.00000064
 Iteration  2 RMS(Cart)=  0.00000032 RMS(Int)=  0.00000054
 Variable       Old X    -DE/DX   Delta X   Delta X   Delta X     New X
                                 (Linear)    (Quad)   (Total)
    R1        1.92019  -0.00001   0.00000  -0.00009  -0.00009   1.92010
    R2        1.92006   0.00007   0.00000   0.00008   0.00008   1.92014
    R3        1.91994   0.00015   0.00000   0.00020   0.00020   1.92015
    A1        1.87839  -0.00005   0.00000   0.00019   0.00019   1.87858
    A2        1.87793   0.00010   0.00000   0.00092   0.00092   1.87885
    A3        1.87759   0.00012   0.00000   0.00102   0.00102   1.87861
    D1       -2.01936  -0.00005   0.00000  -0.00120  -0.00120  -2.02056
         Item               Value     Threshold  Converged?
 Maximum Force            0.000146     0.000450     YES
 RMS     Force            0.000091     0.000300     YES
 Maximum Displacement     0.000889     0.001800     YES
 RMS     Displacement     0.000586     0.001200     YES
 Predicted change in Energy=-1.555386D-07
 Optimization completed.
    -- Stationary point found.
                           ----------------------------
                           !   Optimized Parameters   !
                           ! (Angstroms and Degrees)  !
 --------------------------                            --------------------------
 ! Name  Definition              Value          Derivative Info.                !
 --------------------------------------------------------------------------------
 ! R1    R(1,2)                  1.0161         -DE/DX =    0.0                 !
 ! R2    R(1,3)                  1.0161         -DE/DX =    0.0001              !
 ! R3    R(1,4)                  1.016          -DE/DX =    0.0001              !
 ! A1    A(2,1,3)              107.6239         -DE/DX =   -0.0001              !
 ! A2    A(2,1,4)              107.5976         -DE/DX =    0.0001              !
 ! A3    A(3,1,4)              107.5781         -DE/DX =    0.0001              !
 ! D1    D(2,1,4,3)           -115.7006         -DE/DX =   -0.0001              !
 --------------------------------------------------------------------------------
 GradGradGradGradGradGradGradGradGradGradGradGradGradGradGradGradGradGrad

 1\1\GINC-KATANA2\Freq\RM062X\6-31+G(d)\H3N1\Z5358697\13-Mar-2025\0\\#N
  Geom=AllCheck Guess=TCheck SCRF=Check GenChk RM062X/6-31+G(d) Freq\\a
 mmonia\\0,1\N,-0.1804834903,-0.0256954948,-0.208029853\H,-0.6440584096
 ,0.264315784,0.6484141553\H,0.5322564272,0.6662445506,-0.4215273719\H,
 0.2922854727,-0.9048648398,-0.0188569304\\Version=ES64L-G09RevD.01\Sta
 te=1-A\HF=-56.5200571\RMSD=8.971e-10\RMSF=6.661e-05\ZeroPoint=0.034919
 6\Thermal=0.037782\Dipole=0.4790646,0.068256,0.5522439\DipoleDeriv=-0.
 5816065,-0.0172644,-0.1392268,-0.0176759,-0.4645026,-0.0197126,-0.1393
 015,-0.0183291,-0.6227181,0.2941019,0.0033572,0.065707,0.0149262,0.190
 5419,-0.0442486,0.1114138,-0.0516237,0.0720047,0.1123752,-0.1074952,0.
 0598002,-0.0879249,0.13941,-0.0086231,0.0252352,-0.0362021,0.3034964,0
 .1751294,0.1214024,0.0137196,0.0906747,0.1345507,0.0725843,0.0026526,0
 .1061549,0.247217\Polar=10.3852078,0.0663485,9.9243838,0.5407801,0.076
 056,10.5494559\PG=C01 [X(H3N1)]\NImag=0\\0.48226896,-0.02653574,0.6694
 6162,-0.22202609,-0.03191644,0.41674770,-0.10253572,0.04054389,0.13576
 973,0.12612252,0.05452810,-0.09699241,-0.08616674,-0.05559539,0.095053
 78,0.19044383,-0.09436930,-0.32257425,-0.17810908,0.09422639,0.3252159
 6,-0.24449266,-0.19548550,0.09353502,-0.01392131,-0.01518192,-0.002755
 06,0.24449498,-0.17220730,-0.23850139,0.06044353,0.01074189,0.01026253
 ,-0.00577352,0.19252334,0.25085298,0.05269665,0.02774980,-0.04123339,0
 .02557749,0.02747046,-0.00847264,-0.08250963,-0.06081414,0.05317757,-0
 .13524057,0.18147736,-0.00727866,-0.00966548,0.01624921,-0.00957969,0.
 01391899,-0.03105793,0.00423548,0.13098707,0.14421494,-0.33396782,0.05
 763965,0.00430961,-0.00832390,0.00591643,0.01814408,-0.02261413,0.0055
 9388,-0.16666863,0.36490585,-0.02111439,0.09853594,-0.05294005,0.01676
 186,-0.03553010,0.00583094,-0.00827034,0.00614413,-0.00347154,0.012622
 87,-0.06914996,0.05058066\\0.00000019,-0.00001842,-0.00009542,0.000011
 77,-0.00004168,0.00002551,-0.00000063,-0.00010521,0.00002276,-0.000011
 34,0.00016531,0.00004715\\\@


 HE THAT WALD REACHE THE SWEITE ROSE
 SULD NOW AND THEN BE SCRATCHED WT THE SCHARPE BREERES.
 -- PROVERBS AND REASONS OF THE YEAR 1585
           AS REPRINTED IN PAISLEY MAGAZINE 1828.
 Job cpu time:       0 days  0 hours  0 minutes  2.9 seconds.
 File lengths (MBytes):  RWF=    132 Int=      0 D2E=      0 Chk=      2 Scr=      2
 Normal termination of Gaussian 09 at Thu Mar 13 14:54:21 2025.
