 Entering Gaussian System, Link 0=g09
 Initial command:
 /apps/z_install_tree/linux-rocky8-ivybridge/gcc-12.2.0/gaussian-09-D.01-wczn3gur5lpur3omlkzwa2l5ecyxp5ef/g09/l1.exe "/srv/scratch/z5358697/gauss/Gau-1701748.inp" -scrdir="/srv/scratch/z5358697/gauss/"
 Entering Link 1 = /apps/z_install_tree/linux-rocky8-ivybridge/gcc-12.2.0/gaussian-09-D.01-wczn3gur5lpur3omlkzwa2l5ecyxp5ef/g09/l1.exe PID=   1701768.
  
 Copyright (c) 1988,1990,1992,1993,1995,1998,2003,2009,2013,
            Gaussian, Inc.  All Rights Reserved.
  
 This is part of the Gaussian(R) 09 program.  It is based on
 the Gaussian(R) 03 system (copyright 2003, Gaussian, Inc.),
 the Gaussian(R) 98 system (copyright 1998, Gaussian, Inc.),
 the Gaussian(R) 94 system (copyright 1995, Gaussian, Inc.),
 the Gaussian 92(TM) system (copyright 1992, Gaussian, Inc.),
 the Gaussian 90(TM) system (copyright 1990, Gaussian, Inc.),
 the Gaussian 88(TM) system (copyright 1988, Gaussian, Inc.),
 the Gaussian 86(TM) system (copyright 1986, Carnegie Mellon
 University), and the Gaussian 82(TM) system (copyright 1983,
 Carnegie Mellon University). Gaussian is a federally registered
 trademark of Gaussian, Inc.
  
 This software contains proprietary and confidential information,
 including trade secrets, belonging to Gaussian, Inc.
  
 This software is provided under written license and may be
 used, copied, transmitted, or stored only in accord with that
 written license.
  
 The following legend is applicable only to US Government
 contracts under FAR:
  
                    RESTRICTED RIGHTS LEGEND
  
 Use, reproduction and disclosure by the US Government is
 subject to restrictions as set forth in subparagraphs (a)
 and (c) of the Commercial Computer Software - Restricted
 Rights clause in FAR 52.227-19.
  
 Gaussian, Inc.
 340 Quinnipiac St., Bldg. 40, Wallingford CT 06492
  
  
 ---------------------------------------------------------------
 Warning -- This program may not be used in any manner that
 competes with the business of Gaussian, Inc. or will provide
 assistance to any competitor of Gaussian, Inc.  The licensee
 of this program is prohibited from giving any competitor of
 Gaussian, Inc. access to this program.  By using this program,
 the user acknowledges that Gaussian, Inc. is engaged in the
 business of creating and licensing software in the field of
 computational chemistry and represents and warrants to the
 licensee that it is not a competitor of Gaussian, Inc. and that
 it will not use this program in any manner prohibited above.
 ---------------------------------------------------------------
  

 Cite this work as:
 Gaussian 09, Revision D.01,
 M. J. Frisch, G. W. Trucks, H. B. Schlegel, G. E. Scuseria, 
 M. A. Robb, J. R. Cheeseman, G. Scalmani, V. Barone, B. Mennucci, 
 G. A. Petersson, H. Nakatsuji, M. Caricato, X. Li, H. P. Hratchian, 
 A. F. Izmaylov, J. Bloino, G. Zheng, J. L. Sonnenberg, M. Hada, 
 M. Ehara, K. Toyota, R. Fukuda, J. Hasegawa, M. Ishida, T. Nakajima, 
 Y. Honda, O. Kitao, H. Nakai, T. Vreven, J. A. Montgomery, Jr., 
 J. E. Peralta, F. Ogliaro, M. Bearpark, J. J. Heyd, E. Brothers, 
 K. N. Kudin, V. N. Staroverov, T. Keith, R. Kobayashi, J. Normand, 
 K. Raghavachari, A. Rendell, J. C. Burant, S. S. Iyengar, J. Tomasi, 
 M. Cossi, N. Rega, J. M. Millam, M. Klene, J. E. Knox, J. B. Cross, 
 V. Bakken, C. Adamo, J. Jaramillo, R. Gomperts, R. E. Stratmann, 
 O. Yazyev, A. J. Austin, R. Cammi, C. Pomelli, J. W. Ochterski, 
 R. L. Martin, K. Morokuma, V. G. Zakrzewski, G. A. Voth, 
 P. Salvador, J. J. Dannenberg, S. Dapprich, A. D. Daniels, 
 O. Farkas, J. B. Foresman, J. V. Ortiz, J. Cioslowski, 
 and D. J. Fox, Gaussian, Inc., Wallingford CT, 2013.
 
 ******************************************
 Gaussian 09:  ES64L-G09RevD.01 24-Apr-2013
                20-Mar-2025 
 ******************************************
 ---------------------------------
 #m062X/6-31+G(d) OPT Freq=noraman
 ---------------------------------
 1/14=-1,18=20,19=15,26=3,38=1/1,3;
 2/9=110,12=2,17=6,18=5,40=1/2;
 3/5=1,6=6,7=11,11=2,16=1,25=1,30=1,71=1,74=-55/1,2,3;
 4//1;
 5/5=2,38=5/2;
 6/7=2,8=2,9=2,10=2,28=1/1;
 7//1,2,3,16;
 1/14=-1,18=20,19=15,26=3/3(2);
 2/9=110/2;
 99//99;
 2/9=110/2;
 3/5=1,6=6,7=11,11=2,16=1,25=1,30=1,71=1,74=-55/1,2,3;
 4/5=5,16=3,69=1/1;
 5/5=2,38=5/2;
 7//1,2,3,16;
 1/14=-1,18=20,19=15,26=3/3(-5);
 2/9=110/2;
 6/7=2,8=2,9=2,10=2,19=2,28=1/1;
 99/9=1/99;
 -------------------
 N-methylmethanamine
 -------------------
 Symbolic Z-matrix:
 Charge =  0 Multiplicity = 1
 C                     1.0277    0.1348    0.351 
 N                     1.0302    0.2824    1.8002 
 C                     2.3857    0.4585    2.3034 
 H                     0.0049    0.0037   -0.0116 
 H                     1.6192   -0.7372    0.0589 
 H                     1.457     1.0232   -0.1201 
 H                     0.6209   -0.5503    2.2229 
 H                     2.3534    0.5655    3.3843 
 H                     2.8201    1.3502    1.8591 
 H                     2.9824   -0.4102    2.0381 
 

 GradGradGradGradGradGradGradGradGradGradGradGradGradGradGradGradGradGrad
 Berny optimization.
 Initialization pass.
                           ----------------------------
                           !    Initial Parameters    !
                           ! (Angstroms and Degrees)  !
 --------------------------                            --------------------------
 ! Name  Definition              Value          Derivative Info.                !
 --------------------------------------------------------------------------------
 ! R1    R(1,2)                  1.4567         estimate D2E/DX2                !
 ! R2    R(1,4)                  1.0931         estimate D2E/DX2                !
 ! R3    R(1,5)                  1.0934         estimate D2E/DX2                !
 ! R4    R(1,6)                  1.0934         estimate D2E/DX2                !
 ! R5    R(2,3)                  1.4566         estimate D2E/DX2                !
 ! R6    R(2,7)                  1.0196         estimate D2E/DX2                !
 ! R7    R(3,8)                  1.0867         estimate D2E/DX2                !
 ! R8    R(3,9)                  1.0868         estimate D2E/DX2                !
 ! R9    R(3,10)                 1.0868         estimate D2E/DX2                !
 ! A1    A(2,1,4)              110.1073         estimate D2E/DX2                !
 ! A2    A(2,1,5)              110.2211         estimate D2E/DX2                !
 ! A3    A(2,1,6)              110.2211         estimate D2E/DX2                !
 ! A4    A(4,1,5)              108.779          estimate D2E/DX2                !
 ! A5    A(4,1,6)              108.779          estimate D2E/DX2                !
 ! A6    A(5,1,6)              108.692          estimate D2E/DX2                !
 ! A7    A(1,2,3)              110.949          estimate D2E/DX2                !
 ! A8    A(1,2,7)              109.208          estimate D2E/DX2                !
 ! A9    A(3,2,7)              109.2136         estimate D2E/DX2                !
 ! A10   A(2,3,8)              109.1401         estimate D2E/DX2                !
 ! A11   A(2,3,9)              109.2639         estimate D2E/DX2                !
 ! A12   A(2,3,10)             109.2677         estimate D2E/DX2                !
 ! A13   A(8,3,9)              109.7382         estimate D2E/DX2                !
 ! A14   A(8,3,10)             109.746          estimate D2E/DX2                !
 ! A15   A(9,3,10)             109.668          estimate D2E/DX2                !
 ! D1    D(4,1,2,3)           -179.9978         estimate D2E/DX2                !
 ! D2    D(4,1,2,7)             59.5686         estimate D2E/DX2                !
 ! D3    D(5,1,2,3)             59.9903         estimate D2E/DX2                !
 ! D4    D(5,1,2,7)            -60.4432         estimate D2E/DX2                !
 ! D5    D(6,1,2,3)            -59.9861         estimate D2E/DX2                !
 ! D6    D(6,1,2,7)            179.5804         estimate D2E/DX2                !
 ! D7    D(1,2,3,8)            179.9967         estimate D2E/DX2                !
 ! D8    D(1,2,3,9)             59.9978         estimate D2E/DX2                !
 ! D9    D(1,2,3,10)           -59.9926         estimate D2E/DX2                !
 ! D10   D(7,2,3,8)            -59.5731         estimate D2E/DX2                !
 ! D11   D(7,2,3,9)           -179.572          estimate D2E/DX2                !
 ! D12   D(7,2,3,10)            60.4376         estimate D2E/DX2                !
 --------------------------------------------------------------------------------
 Trust Radius=3.00D-01 FncErr=1.00D-07 GrdErr=1.00D-06
 Number of steps in this run=     46 maximum allowed number of steps=    100.
 GradGradGradGradGradGradGradGradGradGradGradGradGradGradGradGradGradGrad

                          Input orientation:                          
 ---------------------------------------------------------------------
 Center     Atomic      Atomic             Coordinates (Angstroms)
 Number     Number       Type             X           Y           Z
 ---------------------------------------------------------------------
      1          6           0        1.027700    0.134800    0.351000
      2          7           0        1.030200    0.282400    1.800200
      3          6           0        2.385700    0.458500    2.303400
      4          1           0        0.004900    0.003700   -0.011600
      5          1           0        1.619200   -0.737200    0.058900
      6          1           0        1.457000    1.023200   -0.120100
      7          1           0        0.620900   -0.550300    2.222900
      8          1           0        2.353400    0.565500    3.384300
      9          1           0        2.820100    1.350200    1.859100
     10          1           0        2.982400   -0.410200    2.038100
 ---------------------------------------------------------------------
                    Distance matrix (angstroms):
                    1          2          3          4          5
     1  C    0.000000
     2  N    1.456699   0.000000
     3  C    2.400169   1.456572   0.000000
     4  H    1.093063   2.100365   3.351757   0.000000
     5  H    1.093425   2.102054   2.656125   1.777602   0.000000
     6  H    1.093384   2.102022   2.656073   1.777568   1.776896
     7  H    2.034418   1.019603   2.034374   2.383141   2.390488
     8  H    3.338247   2.083357   1.086663   4.166918   3.646143
     9  H    2.638989   2.085044   1.086846   3.638397   3.006679
    10  H    2.638974   2.085036   1.086773   3.638419   2.425382
                    6          7          8          9         10
     6  H    0.000000
     7  H    2.943572   0.000000
     8  H    3.646072   2.365463   0.000000
     9  H    2.425325   2.929289   1.777582   0.000000
    10  H    3.006544   2.372859   1.777607   1.776905   0.000000
 Stoichiometry    C2H7N
 Framework group  C1[X(C2H7N)]
 Deg. of freedom    24
 Full point group                 C1      NOp   1
 Largest Abelian subgroup         C1      NOp   1
 Largest concise Abelian subgroup C1      NOp   1
                         Standard orientation:                         
 ---------------------------------------------------------------------
 Center     Atomic      Atomic             Coordinates (Angstroms)
 Number     Number       Type             X           Y           Z
 ---------------------------------------------------------------------
      1          6           0       -1.198951   -0.226514    0.020134
      2          7           0        0.003657    0.574053   -0.166409
      3          6           0        1.201207   -0.233538    0.021403
      4          1           0       -2.088397    0.392314   -0.123823
      5          1           0       -1.221253   -0.645413    1.029889
      6          1           0       -1.221478   -1.048304   -0.700728
      7          1           0        0.005499    1.338796    0.507947
      8          1           0        2.078521    0.390936   -0.124160
      9          1           0        1.203844   -1.044598   -0.702067
     10          1           0        1.204125   -0.641785    1.028578
 ---------------------------------------------------------------------
 Rotational constants (GHZ):     34.1348340      9.5400877      8.3786808
 Standard basis: 6-31+G(d) (6D, 7F)
 There are    71 symmetry adapted cartesian basis functions of A   symmetry.
 There are    71 symmetry adapted basis functions of A   symmetry.
    71 basis functions,   124 primitive gaussians,    71 cartesian basis functions
    13 alpha electrons       13 beta electrons
       nuclear repulsion energy        84.5329526321 Hartrees.
 NAtoms=   10 NActive=   10 NUniq=   10 SFac= 1.00D+00 NAtFMM=   60 NAOKFM=F Big=F
 Integral buffers will be    131072 words long.
 Raffenetti 2 integral format.
 Two-electron integral symmetry is turned on.
 One-electron integrals computed using PRISM.
 NBasis=    71 RedAO= T EigKep=  1.07D-03  NBF=    71
 NBsUse=    71 1.00D-06 EigRej= -1.00D+00 NBFU=    71
 ExpMin= 4.38D-02 ExpMax= 4.17D+03 ExpMxC= 6.27D+02 IAcc=2 IRadAn=         4 AccDes= 0.00D+00
 Harris functional with IExCor= 1009 and IRadAn=       4 diagonalized for initial guess.
 HarFok:  IExCor= 1009 AccDes= 0.00D+00 IRadAn=         4 IDoV= 1 UseB2=F ITyADJ=14
 ICtDFT=  3500011 ScaDFX=  1.000000  1.000000  1.000000  1.000000
 FoFCou: FMM=F IPFlag=           0 FMFlag=      100000 FMFlg1=           0
         NFxFlg=           0 DoJE=T BraDBF=F KetDBF=T FulRan=T
         wScrn=  0.000000 ICntrl=     500 IOpCl=  0 I1Cent=   200000004 NGrid=           0
         NMat0=    1 NMatS0=      1 NMatT0=    0 NMatD0=    1 NMtDS0=    0 NMtDT0=    0
 Petite list used in FoFCou.
 Keep R1 ints in memory in canonical form, NReq=4193323.
 Requested convergence on RMS density matrix=1.00D-08 within 128 cycles.
 Requested convergence on MAX density matrix=1.00D-06.
 Requested convergence on             energy=1.00D-06.
 No special actions if energy rises.
 SCF Done:  E(RM062X) =  -135.087380338     A.U. after   11 cycles
            NFock= 11  Conv=0.25D-08     -V/T= 2.0086

 **********************************************************************

            Population analysis using the SCF density.

 **********************************************************************

 Orbital symmetries:
       Occupied  (A) (A) (A) (A) (A) (A) (A) (A) (A) (A) (A) (A)
                 (A)
       Virtual   (A) (A) (A) (A) (A) (A) (A) (A) (A) (A) (A) (A)
                 (A) (A) (A) (A) (A) (A) (A) (A) (A) (A) (A) (A)
                 (A) (A) (A) (A) (A) (A) (A) (A) (A) (A) (A) (A)
                 (A) (A) (A) (A) (A) (A) (A) (A) (A) (A) (A) (A)
                 (A) (A) (A) (A) (A) (A) (A) (A) (A) (A)
 The electronic state is 1-A.
 Alpha  occ. eigenvalues --  -14.74490 -10.56004 -10.55833  -1.00736  -0.79359
 Alpha  occ. eigenvalues --   -0.71533  -0.56228  -0.52018  -0.49834  -0.45600
 Alpha  occ. eigenvalues --   -0.43245  -0.42435  -0.28387
 Alpha virt. eigenvalues --    0.02505   0.04283   0.04711   0.05527   0.07548
 Alpha virt. eigenvalues --    0.07715   0.09216   0.13180   0.15026   0.17282
 Alpha virt. eigenvalues --    0.21801   0.23550   0.24484   0.24625   0.25941
 Alpha virt. eigenvalues --    0.29443   0.30042   0.32118   0.32181   0.35463
 Alpha virt. eigenvalues --    0.39830   0.65497   0.71459   0.71528   0.72559
 Alpha virt. eigenvalues --    0.73847   0.83537   0.89505   0.94078   1.00459
 Alpha virt. eigenvalues --    1.02211   1.07068   1.08564   1.08995   1.13651
 Alpha virt. eigenvalues --    1.15799   1.17030   1.22492   1.43667   1.46684
 Alpha virt. eigenvalues --    1.51626   1.57669   1.87991   1.96044   2.10035
 Alpha virt. eigenvalues --    2.12440   2.15250   2.22068   2.29230   2.33169
 Alpha virt. eigenvalues --    2.39975   2.49076   2.56593   2.69842   2.81519
 Alpha virt. eigenvalues --    4.06093   4.33666   4.36851
          Condensed to atoms (all electrons):
               1          2          3          4          5          6
     1  C    5.276022   0.201668  -0.152608   0.388545   0.419752   0.402624
     2  N    0.201668   7.230807   0.201673  -0.038870  -0.123839  -0.040897
     3  C   -0.152608   0.201673   5.267036   0.008984   0.006550  -0.010924
     4  H    0.388545  -0.038870   0.008984   0.496120  -0.033706  -0.019809
     5  H    0.419752  -0.123839   0.006550  -0.033706   0.588039  -0.041432
     6  H    0.402624  -0.040897  -0.010924  -0.019809  -0.041432   0.501546
     7  H   -0.043657   0.329007  -0.043995  -0.003599  -0.003532   0.004435
     8  H    0.009288  -0.040841   0.390359  -0.000145  -0.000237   0.000072
     9  H   -0.010835  -0.042445   0.404210   0.000073  -0.001791   0.004774
    10  H    0.006678  -0.125752   0.421342  -0.000250   0.013334  -0.001796
               7          8          9         10
     1  C   -0.043657   0.009288  -0.010835   0.006678
     2  N    0.329007  -0.040841  -0.042445  -0.125752
     3  C   -0.043995   0.390359   0.404210   0.421342
     4  H   -0.003599  -0.000145   0.000073  -0.000250
     5  H   -0.003532  -0.000237  -0.001791   0.013334
     6  H    0.004435   0.000072   0.004774  -0.001796
     7  H    0.387591  -0.003668   0.004595  -0.003666
     8  H   -0.003668   0.494471  -0.019239  -0.033002
     9  H    0.004595  -0.019239   0.499376  -0.040618
    10  H   -0.003666  -0.033002  -0.040618   0.585367
 Mulliken charges:
               1
     1  C   -0.497477
     2  N   -0.550513
     3  C   -0.492625
     4  H    0.202657
     5  H    0.176862
     6  H    0.201406
     7  H    0.376488
     8  H    0.202941
     9  H    0.201899
    10  H    0.178362
 Sum of Mulliken charges =   0.00000
 Mulliken charges with hydrogens summed into heavy atoms:
               1
     1  C    0.083447
     2  N   -0.174024
     3  C    0.090577
 Electronic spatial extent (au):  <R**2>=            202.1777
 Charge=              0.0000 electrons
 Dipole moment (field-independent basis, Debye):
    X=              0.0078    Y=             -0.3070    Z=              1.1836  Tot=              1.2228
 Quadrupole moment (field-independent basis, Debye-Ang):
   XX=            -19.9327   YY=            -20.8307   ZZ=            -22.2496
   XY=              0.0384   XZ=              0.0067   YZ=              2.5332
 Traceless Quadrupole moment (field-independent basis, Debye-Ang):
   XX=              1.0716   YY=              0.1736   ZZ=             -1.2453
   XY=              0.0384   XZ=              0.0067   YZ=              2.5332
 Octapole moment (field-independent basis, Debye-Ang**2):
  XXX=              0.0091  YYY=              2.7143  ZZZ=              1.4575  XYY=              0.0317
  XXY=              2.0969  XXZ=             -1.1170  XZZ=              0.0585  YZZ=             -0.8831
  YYZ=              1.6574  XYZ=              0.0086
 Hexadecapole moment (field-independent basis, Debye-Ang**3):
 XXXX=           -177.1148 YYYY=            -58.6792 ZZZZ=            -42.1731 XXXY=              0.1515
 XXXZ=             -0.0037 YYYX=              0.0644 YYYZ=              6.4577 ZZZX=              0.0121
 ZZZY=              3.4573 XXYY=            -39.3968 XXZZ=            -38.4168 YYZZ=            -17.0608
 XXYZ=              0.8550 YYXZ=              0.0224 ZZXY=              0.0119
 N-N= 8.453295263215D+01 E-N=-4.820015223477D+02  KE= 1.339312222374D+02
 Calling FoFJK, ICntrl=      2127 FMM=F ISym2X=0 I1Cent= 0 IOpClX= 0 NMat=1 NMatS=1 NMatT=0.
 ***** Axes restored to original set *****
 -------------------------------------------------------------------
 Center     Atomic                   Forces (Hartrees/Bohr)
 Number     Number              X              Y              Z
 -------------------------------------------------------------------
      1        6          -0.002986405   -0.004044530    0.006861633
      2        7          -0.005421144    0.008763152   -0.000462880
      3        6          -0.013636844   -0.005854246   -0.001365909
      4        1          -0.000161500    0.000773971   -0.000320659
      5        1           0.004086492   -0.004063796   -0.008125337
      6        1          -0.000414653    0.001077825    0.000966990
      7        1           0.000189563    0.003031704   -0.000895768
      8        1           0.002248631    0.001474317    0.004150651
      9        1           0.002399892    0.003863174   -0.000652121
     10        1           0.013695968   -0.005021571   -0.000156600
 -------------------------------------------------------------------
 Cartesian Forces:  Max     0.013695968 RMS     0.005071174

 GradGradGradGradGradGradGradGradGradGradGradGradGradGradGradGradGradGrad
 Berny optimization.
 FormGI is forming the generalized inverse of G from B-inverse, IUseBI=4.
 Internal  Forces:  Max     0.013053801 RMS     0.004313495
 Search for a local minimum.
 Step number   1 out of a maximum of   46
 All quantities printed in internal units (Hartrees-Bohrs-Radians)
 Mixed Optimization -- RFO/linear search
 Second derivative matrix not updated -- first step.
 ITU=  0
     Eigenvalues ---    0.00942   0.00943   0.03075   0.07492   0.07501
     Eigenvalues ---    0.07677   0.07688   0.10798   0.16000   0.16000
     Eigenvalues ---    0.16000   0.16000   0.16000   0.16000   0.23447
     Eigenvalues ---    0.34420   0.34424   0.34461   0.35180   0.35188
     Eigenvalues ---    0.35201   0.37381   0.37397   0.44401
 RFO step:  Lambda=-3.71663537D-03 EMin= 9.41758174D-03
 Linear search not attempted -- first point.
 Iteration  1 RMS(Cart)=  0.04024017 RMS(Int)=  0.00123378
 Iteration  2 RMS(Cart)=  0.00138303 RMS(Int)=  0.00043235
 Iteration  3 RMS(Cart)=  0.00000224 RMS(Int)=  0.00043234
 Iteration  4 RMS(Cart)=  0.00000000 RMS(Int)=  0.00043234
 Variable       Old X    -DE/DX   Delta X   Delta X   Delta X     New X
                                 (Linear)    (Quad)   (Total)
    R1        2.75276   0.00125   0.00000   0.00331   0.00331   2.75607
    R2        2.06559   0.00016   0.00000   0.00047   0.00047   2.06606
    R3        2.06627   0.00762   0.00000   0.02191   0.02191   2.08818
    R4        2.06620   0.00030   0.00000   0.00085   0.00085   2.06705
    R5        2.75252   0.00439   0.00000   0.01163   0.01163   2.76415
    R6        1.92677  -0.00292   0.00000  -0.00653  -0.00653   1.92024
    R7        2.05350   0.00421   0.00000   0.01183   0.01183   2.06532
    R8        2.05384   0.00440   0.00000   0.01236   0.01236   2.06620
    R9        2.05370   0.01157   0.00000   0.03254   0.03254   2.08624
    A1        1.92173  -0.00092   0.00000  -0.00671  -0.00739   1.91434
    A2        1.92372   0.01025   0.00000   0.07006   0.06987   1.99360
    A3        1.92372  -0.00411   0.00000  -0.03147  -0.03154   1.89218
    A4        1.89855  -0.00239   0.00000  -0.00210  -0.00280   1.89576
    A5        1.89855  -0.00021   0.00000  -0.01582  -0.01640   1.88215
    A6        1.89703  -0.00276   0.00000  -0.01478  -0.01441   1.88262
    A7        1.93643   0.00328   0.00000   0.01429   0.01429   1.95071
    A8        1.90604  -0.00111   0.00000  -0.00402  -0.00404   1.90200
    A9        1.90614  -0.00082   0.00000  -0.00134  -0.00134   1.90479
   A10        1.90485   0.00137   0.00000   0.00730   0.00638   1.91123
   A11        1.90701  -0.00168   0.00000  -0.01624  -0.01637   1.89064
   A12        1.90708   0.01305   0.00000   0.08682   0.08600   1.99309
   A13        1.91529  -0.00268   0.00000  -0.03070  -0.03089   1.88441
   A14        1.91543  -0.00474   0.00000  -0.01685  -0.01829   1.89714
   A15        1.91407  -0.00521   0.00000  -0.02960  -0.02968   1.88439
    D1       -3.14155   0.00183   0.00000  -0.00643  -0.00641   3.13522
    D2        1.03967   0.00150   0.00000  -0.01115  -0.01112   1.02855
    D3        1.04703  -0.00113   0.00000  -0.04408  -0.04449   1.00254
    D4       -1.05493  -0.00146   0.00000  -0.04880  -0.04920  -1.10414
    D5       -1.04695  -0.00163   0.00000  -0.05034  -0.04995  -1.09691
    D6        3.13427  -0.00195   0.00000  -0.05505  -0.05466   3.07961
    D7        3.14153  -0.00173   0.00000   0.00745   0.00696  -3.13469
    D8        1.04716   0.00172   0.00000   0.05024   0.05019   1.09735
    D9       -1.04707   0.00119   0.00000   0.04364   0.04416  -1.00291
   D10       -1.03975  -0.00158   0.00000   0.01057   0.01010  -1.02964
   D11       -3.13412   0.00187   0.00000   0.05337   0.05333  -3.08079
   D12        1.05483   0.00133   0.00000   0.04677   0.04729   1.10213
         Item               Value     Threshold  Converged?
 Maximum Force            0.013054     0.000450     NO 
 RMS     Force            0.004313     0.000300     NO 
 Maximum Displacement     0.143260     0.001800     NO 
 RMS     Displacement     0.040735     0.001200     NO 
 Predicted change in Energy=-1.934185D-03
 GradGradGradGradGradGradGradGradGradGradGradGradGradGradGradGradGradGrad

                          Input orientation:                          
 ---------------------------------------------------------------------
 Center     Atomic      Atomic             Coordinates (Angstroms)
 Number     Number       Type             X           Y           Z
 ---------------------------------------------------------------------
      1          6           0        1.020887    0.115419    0.343148
      2          7           0        1.029097    0.293904    1.790611
      3          6           0        2.387984    0.442311    2.311162
      4          1           0       -0.008219    0.001693   -0.008047
      5          1           0        1.611879   -0.748717   -0.010495
      6          1           0        1.434829    1.016555   -0.118460
      7          1           0        0.592093   -0.513776    2.225625
      8          1           0        2.351524    0.566305    3.396415
      9          1           0        2.823215    1.349126    1.882490
     10          1           0        3.058210   -0.402220    2.073750
 ---------------------------------------------------------------------
                    Distance matrix (angstroms):
                    1          2          3          4          5
     1  C    0.000000
     2  N    1.458449   0.000000
     3  C    2.418448   1.462727   0.000000
     4  H    1.093312   2.096803   3.363728   0.000000
     5  H    1.105019   2.161175   2.722311   1.785452   0.000000
     6  H    1.093835   2.081200   2.672325   1.767632   1.777411
     7  H    2.030633   1.016148   2.036331   2.369678   2.468885
     8  H    3.361001   2.098005   1.092922   4.180614   3.726043
     9  H    2.672076   2.083457   1.093388   3.661519   3.074357
    10  H    2.722796   2.163806   1.103993   3.728272   2.560471
                    6          7          8          9         10
     6  H    0.000000
     7  H    2.923500   0.000000
     8  H    3.660246   2.373378   0.000000
     9  H    2.458051   2.926781   1.768409   0.000000
    10  H    3.074748   2.473306   1.785185   1.777362   0.000000
 Stoichiometry    C2H7N
 Framework group  C1[X(C2H7N)]
 Deg. of freedom    24
 Full point group                 C1      NOp   1
 Largest Abelian subgroup         C1      NOp   1
 Largest concise Abelian subgroup C1      NOp   1
                         Standard orientation:                         
 ---------------------------------------------------------------------
 Center     Atomic      Atomic             Coordinates (Angstroms)
 Number     Number       Type             X           Y           Z
 ---------------------------------------------------------------------
      1          6           0       -1.208177   -0.226437    0.020946
      2          7           0       -0.001762    0.575146   -0.149645
      3          6           0        1.210271   -0.225746    0.021001
      4          1           0       -2.091244    0.405359   -0.106953
      5          1           0       -1.278557   -0.737498    0.998151
      6          1           0       -1.227779   -0.991845   -0.760234
      7          1           0       -0.004199    1.325784    0.535258
      8          1           0        2.089367    0.410831   -0.107208
      9          1           0        1.230272   -0.989922   -0.760749
     10          1           0        1.281913   -0.735629    0.997570
 ---------------------------------------------------------------------
 Rotational constants (GHZ):     34.1567737      9.3608045      8.2437164
 Standard basis: 6-31+G(d) (6D, 7F)
 There are    71 symmetry adapted cartesian basis functions of A   symmetry.
 There are    71 symmetry adapted basis functions of A   symmetry.
    71 basis functions,   124 primitive gaussians,    71 cartesian basis functions
    13 alpha electrons       13 beta electrons
       nuclear repulsion energy        84.0463017016 Hartrees.
 NAtoms=   10 NActive=   10 NUniq=   10 SFac= 1.00D+00 NAtFMM=   60 NAOKFM=F Big=F
 Integral buffers will be    131072 words long.
 Raffenetti 2 integral format.
 Two-electron integral symmetry is turned on.
 One-electron integrals computed using PRISM.
 NBasis=    71 RedAO= T EigKep=  1.09D-03  NBF=    71
 NBsUse=    71 1.00D-06 EigRej= -1.00D+00 NBFU=    71
 Initial guess from the checkpoint file:  "/srv/scratch/z5358697/gauss/Gau-1701768.chk"
 B after Tr=     0.000000    0.000000    0.000000
         Rot=    0.999709   -0.024054   -0.000167   -0.001636 Ang=  -2.76 deg.
 ExpMin= 4.38D-02 ExpMax= 4.17D+03 ExpMxC= 6.27D+02 IAcc=2 IRadAn=         4 AccDes= 0.00D+00
 Harris functional with IExCor= 1009 and IRadAn=       4 diagonalized for initial guess.
 HarFok:  IExCor= 1009 AccDes= 0.00D+00 IRadAn=         4 IDoV= 1 UseB2=F ITyADJ=14
 ICtDFT=  3500011 ScaDFX=  1.000000  1.000000  1.000000  1.000000
 FoFCou: FMM=F IPFlag=           0 FMFlag=      100000 FMFlg1=           0
         NFxFlg=           0 DoJE=T BraDBF=F KetDBF=T FulRan=T
         wScrn=  0.000000 ICntrl=     500 IOpCl=  0 I1Cent=   200000004 NGrid=           0
         NMat0=    1 NMatS0=      1 NMatT0=    0 NMatD0=    1 NMtDS0=    0 NMtDT0=    0
 Petite list used in FoFCou.
 Keep R1 ints in memory in canonical form, NReq=4193323.
 Requested convergence on RMS density matrix=1.00D-08 within 128 cycles.
 Requested convergence on MAX density matrix=1.00D-06.
 Requested convergence on             energy=1.00D-06.
 No special actions if energy rises.
 SCF Done:  E(RM062X) =  -135.089052280     A.U. after   10 cycles
            NFock= 10  Conv=0.71D-08     -V/T= 2.0092
 Calling FoFJK, ICntrl=      2127 FMM=F ISym2X=0 I1Cent= 0 IOpClX= 0 NMat=1 NMatS=1 NMatT=0.
 ***** Axes restored to original set *****
 -------------------------------------------------------------------
 Center     Atomic                   Forces (Hartrees/Bohr)
 Number     Number              X              Y              Z
 -------------------------------------------------------------------
      1        6          -0.000300707    0.000582209    0.001708311
      2        7           0.005522132   -0.002323634   -0.001443762
      3        6          -0.004767291   -0.000103024   -0.000955070
      4        1          -0.000170788   -0.000194276    0.000026080
      5        1           0.000092436    0.000487863    0.000942239
      6        1           0.000188919    0.000592324   -0.001049792
      7        1          -0.000989632    0.000217701    0.001087693
      8        1           0.000133747   -0.000070654    0.000359249
      9        1           0.000989440    0.000929388   -0.000002596
     10        1          -0.000698257   -0.000117896   -0.000672352
 -------------------------------------------------------------------
 Cartesian Forces:  Max     0.005522132 RMS     0.001558031

 GradGradGradGradGradGradGradGradGradGradGradGradGradGradGradGradGradGrad
 Berny optimization.
 Using GEDIIS/GDIIS optimizer.
 FormGI is forming the generalized inverse of G from B-inverse, IUseBI=4.
 Internal  Forces:  Max     0.004420399 RMS     0.001008831
 Search for a local minimum.
 Step number   2 out of a maximum of   46
 All quantities printed in internal units (Hartrees-Bohrs-Radians)
 Mixed Optimization -- RFO/linear search
 Update second derivatives using D2CorX and points    1    2
 DE= -1.67D-03 DEPred=-1.93D-03 R= 8.64D-01
 TightC=F SS=  1.41D+00  RLast= 1.96D-01 DXNew= 5.0454D-01 5.8699D-01
 Trust test= 8.64D-01 RLast= 1.96D-01 DXMaxT set to 5.05D-01
 ITU=  1  0
 Use linear search instead of GDIIS.
     Eigenvalues ---    0.00927   0.00943   0.03008   0.07039   0.07101
     Eigenvalues ---    0.07701   0.07892   0.10920   0.15646   0.16000
     Eigenvalues ---    0.16000   0.16000   0.16000   0.17724   0.23417
     Eigenvalues ---    0.33708   0.34459   0.34529   0.34655   0.35198
     Eigenvalues ---    0.35276   0.37382   0.39844   0.44570
 RFO step:  Lambda=-1.43483737D-04 EMin= 9.26622017D-03
 Quartic linear search produced a step of -0.08199.
 Iteration  1 RMS(Cart)=  0.01140730 RMS(Int)=  0.00008679
 Iteration  2 RMS(Cart)=  0.00007911 RMS(Int)=  0.00003503
 Iteration  3 RMS(Cart)=  0.00000000 RMS(Int)=  0.00003503
 Variable       Old X    -DE/DX   Delta X   Delta X   Delta X     New X
                                 (Linear)    (Quad)   (Total)
    R1        2.75607  -0.00179  -0.00027  -0.00403  -0.00430   2.75177
    R2        2.06606   0.00017  -0.00004   0.00051   0.00047   2.06654
    R3        2.08818  -0.00063  -0.00180   0.00078  -0.00102   2.08717
    R4        2.06705   0.00100  -0.00007   0.00277   0.00270   2.06975
    R5        2.76415  -0.00442  -0.00095  -0.00953  -0.01049   2.75367
    R6        1.92024   0.00072   0.00054   0.00074   0.00128   1.92152
    R7        2.06532   0.00034  -0.00097   0.00223   0.00126   2.06658
    R8        2.06620   0.00117  -0.00101   0.00443   0.00342   2.06962
    R9        2.08624  -0.00019  -0.00267   0.00318   0.00051   2.08675
    A1        1.91434   0.00003   0.00061  -0.00059   0.00006   1.91441
    A2        1.99360  -0.00145  -0.00573  -0.00139  -0.00710   1.98649
    A3        1.89218   0.00128   0.00259   0.00460   0.00719   1.89937
    A4        1.89576   0.00047   0.00023   0.00082   0.00110   1.89685
    A5        1.88215  -0.00025   0.00134  -0.00140  -0.00001   1.88213
    A6        1.88262  -0.00003   0.00118  -0.00210  -0.00093   1.88168
    A7        1.95071   0.00002  -0.00117   0.00373   0.00253   1.95324
    A8        1.90200   0.00047   0.00033   0.00769   0.00799   1.90999
    A9        1.90479  -0.00005   0.00011   0.00366   0.00372   1.90851
   A10        1.91123   0.00037  -0.00052   0.00311   0.00266   1.91389
   A11        1.89064   0.00124   0.00134   0.00575   0.00710   1.89775
   A12        1.99309  -0.00164  -0.00705  -0.00068  -0.00766   1.98542
   A13        1.88441  -0.00037   0.00253  -0.00377  -0.00124   1.88316
   A14        1.89714   0.00044   0.00150  -0.00073   0.00088   1.89802
   A15        1.88439   0.00001   0.00243  -0.00400  -0.00155   1.88283
    D1        3.13522  -0.00033   0.00053  -0.01599  -0.01546   3.11976
    D2        1.02855  -0.00060   0.00091  -0.02808  -0.02718   1.00136
    D3        1.00254   0.00006   0.00365  -0.01563  -0.01194   0.99059
    D4       -1.10414  -0.00021   0.00403  -0.02772  -0.02367  -1.12781
    D5       -1.09691   0.00012   0.00410  -0.01534  -0.01126  -1.10817
    D6        3.07961  -0.00015   0.00448  -0.02744  -0.02299   3.05662
    D7       -3.13469   0.00015  -0.00057   0.01445   0.01393  -3.12076
    D8        1.09735  -0.00031  -0.00412   0.01395   0.00982   1.10717
    D9       -1.00291  -0.00015  -0.00362   0.01537   0.01171  -0.99120
   D10       -1.02964   0.00073  -0.00083   0.02891   0.02813  -1.00151
   D11       -3.08079   0.00026  -0.00437   0.02841   0.02403  -3.05676
   D12        1.10213   0.00043  -0.00388   0.02983   0.02592   1.12805
         Item               Value     Threshold  Converged?
 Maximum Force            0.004420     0.000450     NO 
 RMS     Force            0.001009     0.000300     NO 
 Maximum Displacement     0.025490     0.001800     NO 
 RMS     Displacement     0.011416     0.001200     NO 
 Predicted change in Energy=-8.779887D-05
 GradGradGradGradGradGradGradGradGradGradGradGradGradGradGradGradGradGrad

                          Input orientation:                          
 ---------------------------------------------------------------------
 Center     Atomic      Atomic             Coordinates (Angstroms)
 Number     Number       Type             X           Y           Z
 ---------------------------------------------------------------------
      1          6           0        1.022952    0.116258    0.343584
      2          7           0        1.032648    0.296917    1.788475
      3          6           0        2.385809    0.442072    2.309297
      4          1           0       -0.005772   -0.010869   -0.004905
      5          1           0        1.622562   -0.744374   -0.002334
      6          1           0        1.427960    1.017982   -0.128074
      7          1           0        0.584628   -0.500786    2.232189
      8          1           0        2.351478    0.553896    3.396611
      9          1           0        2.827860    1.352651    1.891096
     10          1           0        3.051375   -0.403148    2.060262
 ---------------------------------------------------------------------
                    Distance matrix (angstroms):
                    1          2          3          4          5
     1  C    0.000000
     2  N    1.456173   0.000000
     3  C    2.414034   1.457179   0.000000
     4  H    1.093563   2.095057   3.358623   0.000000
     5  H    1.104481   2.153899   2.708106   1.785920   0.000000
     6  H    1.095262   2.085514   2.681404   1.768981   1.777520
     7  H    2.034625   1.016825   2.034497   2.364991   2.475830
     8  H    3.358196   2.095579   1.093588   4.176829   3.710748
     9  H    2.679767   2.085161   1.095198   3.671986   3.071699
    10  H    2.707631   2.153885   1.104262   3.710114   2.532241
                    6          7          8          9         10
     6  H    0.000000
     7  H    2.930650   0.000000
     8  H    3.673101   2.364316   0.000000
     9  H    2.479672   2.929789   1.769612   0.000000
    10  H    3.073094   2.474658   1.786511   1.778035   0.000000
 Stoichiometry    C2H7N
 Framework group  C1[X(C2H7N)]
 Deg. of freedom    24
 Full point group                 C1      NOp   1
 Largest Abelian subgroup         C1      NOp   1
 Largest concise Abelian subgroup C1      NOp   1
                         Standard orientation:                         
 ---------------------------------------------------------------------
 Center     Atomic      Atomic             Coordinates (Angstroms)
 Number     Number       Type             X           Y           Z
 ---------------------------------------------------------------------
      1          6           0       -1.206771   -0.225213    0.020838
      2          7           0       -0.000282    0.572039   -0.150086
      3          6           0        1.207263   -0.225444    0.020868
      4          1           0       -2.088409    0.411733   -0.092715
      5          1           0       -1.266152   -0.741004    0.995678
      6          1           0       -1.240547   -0.987998   -0.764412
      7          1           0        0.000497    1.333326    0.523988
      8          1           0        2.088420    0.412001   -0.093854
      9          1           0        1.239125   -0.988220   -0.764381
     10          1           0        1.266089   -0.740164    0.996059
 ---------------------------------------------------------------------
 Rotational constants (GHZ):     34.2543817      9.3911556      8.2697464
 Standard basis: 6-31+G(d) (6D, 7F)
 There are    71 symmetry adapted cartesian basis functions of A   symmetry.
 There are    71 symmetry adapted basis functions of A   symmetry.
    71 basis functions,   124 primitive gaussians,    71 cartesian basis functions
    13 alpha electrons       13 beta electrons
       nuclear repulsion energy        84.1476984763 Hartrees.
 NAtoms=   10 NActive=   10 NUniq=   10 SFac= 1.00D+00 NAtFMM=   60 NAOKFM=F Big=F
 Integral buffers will be    131072 words long.
 Raffenetti 2 integral format.
 Two-electron integral symmetry is turned on.
 One-electron integrals computed using PRISM.
 NBasis=    71 RedAO= T EigKep=  1.08D-03  NBF=    71
 NBsUse=    71 1.00D-06 EigRej= -1.00D+00 NBFU=    71
 Initial guess from the checkpoint file:  "/srv/scratch/z5358697/gauss/Gau-1701768.chk"
 B after Tr=     0.000000    0.000000    0.000000
         Rot=    1.000000   -0.000476   -0.000003    0.000530 Ang=  -0.08 deg.
 ExpMin= 4.38D-02 ExpMax= 4.17D+03 ExpMxC= 6.27D+02 IAcc=2 IRadAn=         4 AccDes= 0.00D+00
 Harris functional with IExCor= 1009 and IRadAn=       4 diagonalized for initial guess.
 HarFok:  IExCor= 1009 AccDes= 0.00D+00 IRadAn=         4 IDoV= 1 UseB2=F ITyADJ=14
 ICtDFT=  3500011 ScaDFX=  1.000000  1.000000  1.000000  1.000000
 FoFCou: FMM=F IPFlag=           0 FMFlag=      100000 FMFlg1=           0
         NFxFlg=           0 DoJE=T BraDBF=F KetDBF=T FulRan=T
         wScrn=  0.000000 ICntrl=     500 IOpCl=  0 I1Cent=   200000004 NGrid=           0
         NMat0=    1 NMatS0=      1 NMatT0=    0 NMatD0=    1 NMtDS0=    0 NMtDT0=    0
 Petite list used in FoFCou.
 Keep R1 ints in memory in canonical form, NReq=4193323.
 Requested convergence on RMS density matrix=1.00D-08 within 128 cycles.
 Requested convergence on MAX density matrix=1.00D-06.
 Requested convergence on             energy=1.00D-06.
 No special actions if energy rises.
 SCF Done:  E(RM062X) =  -135.089172936     A.U. after    9 cycles
            NFock=  9  Conv=0.62D-08     -V/T= 2.0092
 Calling FoFJK, ICntrl=      2127 FMM=F ISym2X=0 I1Cent= 0 IOpClX= 0 NMat=1 NMatS=1 NMatT=0.
 ***** Axes restored to original set *****
 -------------------------------------------------------------------
 Center     Atomic                   Forces (Hartrees/Bohr)
 Number     Number              X              Y              Z
 -------------------------------------------------------------------
      1        6          -0.000469102    0.000190546    0.000919132
      2        7           0.002198064   -0.000945265   -0.000738092
      3        6          -0.001768089    0.000145468   -0.000237180
      4        1           0.000072465   -0.000150253   -0.000053252
      5        1           0.000146389    0.000131847    0.000174012
      6        1          -0.000094608    0.000046393   -0.000089295
      7        1          -0.000447281    0.000602808    0.000086781
      8        1           0.000168067   -0.000146824   -0.000069206
      9        1           0.000197848    0.000063767    0.000190703
     10        1          -0.000003755    0.000061511   -0.000183602
 -------------------------------------------------------------------
 Cartesian Forces:  Max     0.002198064 RMS     0.000617414

 GradGradGradGradGradGradGradGradGradGradGradGradGradGradGradGradGradGrad
 Berny optimization.
 Using GEDIIS/GDIIS optimizer.
 FormGI is forming the generalized inverse of G from B-inverse, IUseBI=4.
 Internal  Forces:  Max     0.001399404 RMS     0.000330087
 Search for a local minimum.
 Step number   3 out of a maximum of   46
 All quantities printed in internal units (Hartrees-Bohrs-Radians)
 Mixed Optimization -- En-DIIS/RFO-DIIS
 Update second derivatives using D2CorX and points    1    2    3
 DE= -1.21D-04 DEPred=-8.78D-05 R= 1.37D+00
 TightC=F SS=  1.41D+00  RLast= 7.26D-02 DXNew= 8.4853D-01 2.1770D-01
 Trust test= 1.37D+00 RLast= 7.26D-02 DXMaxT set to 5.05D-01
 ITU=  1  1  0
 Use linear search instead of GDIIS.
     Eigenvalues ---    0.00611   0.00943   0.02775   0.07089   0.07138
     Eigenvalues ---    0.07659   0.07802   0.11126   0.15318   0.15960
     Eigenvalues ---    0.16000   0.16000   0.16022   0.17943   0.23345
     Eigenvalues ---    0.33278   0.34459   0.34503   0.34735   0.35195
     Eigenvalues ---    0.35527   0.36077   0.38259   0.45444
 RFO step:  Lambda=-3.46142951D-05 EMin= 6.11347241D-03
 Quartic linear search produced a step of  0.65062.
 Iteration  1 RMS(Cart)=  0.01472997 RMS(Int)=  0.00013202
 Iteration  2 RMS(Cart)=  0.00013340 RMS(Int)=  0.00002276
 Iteration  3 RMS(Cart)=  0.00000001 RMS(Int)=  0.00002276
 Variable       Old X    -DE/DX   Delta X   Delta X   Delta X     New X
                                 (Linear)    (Quad)   (Total)
    R1        2.75177  -0.00097  -0.00280  -0.00227  -0.00507   2.74670
    R2        2.06654  -0.00003   0.00031  -0.00038  -0.00007   2.06646
    R3        2.08717  -0.00008  -0.00066   0.00067   0.00001   2.08718
    R4        2.06975   0.00004   0.00175  -0.00106   0.00069   2.07043
    R5        2.75367  -0.00140  -0.00682  -0.00105  -0.00787   2.74579
    R6        1.92152  -0.00024   0.00083  -0.00171  -0.00087   1.92065
    R7        2.06658  -0.00009   0.00082  -0.00073   0.00009   2.06667
    R8        2.06962   0.00006   0.00222  -0.00103   0.00120   2.07082
    R9        2.08675  -0.00001   0.00033   0.00057   0.00090   2.08765
    A1        1.91441   0.00018   0.00004   0.00206   0.00210   1.91651
    A2        1.98649  -0.00033  -0.00462   0.00124  -0.00338   1.98311
    A3        1.89937   0.00014   0.00468  -0.00268   0.00199   1.90137
    A4        1.89685   0.00005   0.00071  -0.00025   0.00046   1.89731
    A5        1.88213  -0.00006  -0.00001  -0.00009  -0.00011   1.88203
    A6        1.88168   0.00002  -0.00061  -0.00038  -0.00098   1.88070
    A7        1.95324   0.00030   0.00165   0.00308   0.00467   1.95791
    A8        1.90999  -0.00007   0.00520  -0.00055   0.00457   1.91457
    A9        1.90851   0.00008   0.00242   0.00385   0.00619   1.91470
   A10        1.91389   0.00021   0.00173   0.00132   0.00304   1.91693
   A11        1.89775   0.00037   0.00462   0.00031   0.00492   1.90267
   A12        1.98542  -0.00023  -0.00498   0.00293  -0.00205   1.98338
   A13        1.88316  -0.00018  -0.00081  -0.00116  -0.00199   1.88117
   A14        1.89802  -0.00005   0.00058  -0.00183  -0.00125   1.89677
   A15        1.88283  -0.00013  -0.00101  -0.00181  -0.00281   1.88002
    D1        3.11976  -0.00006  -0.01006  -0.01167  -0.02171   3.09805
    D2        1.00136  -0.00031  -0.01769  -0.01818  -0.03588   0.96548
    D3        0.99059  -0.00003  -0.00777  -0.01374  -0.02151   0.96909
    D4       -1.12781  -0.00029  -0.01540  -0.02025  -0.03567  -1.16348
    D5       -1.10817   0.00006  -0.00733  -0.01216  -0.01946  -1.12763
    D6        3.05662  -0.00020  -0.01496  -0.01867  -0.03363   3.02299
    D7       -3.12076   0.00012   0.00906   0.01358   0.02264  -3.09812
    D8        1.10717   0.00000   0.00639   0.01404   0.02041   1.12758
    D9       -0.99120   0.00005   0.00762   0.01423   0.02184  -0.96937
   D10       -1.00151   0.00028   0.01830   0.01755   0.03587  -0.96564
   D11       -3.05676   0.00017   0.01563   0.01801   0.03364  -3.02312
   D12        1.12805   0.00022   0.01686   0.01820   0.03507   1.16312
         Item               Value     Threshold  Converged?
 Maximum Force            0.001399     0.000450     NO 
 RMS     Force            0.000330     0.000300     NO 
 Maximum Displacement     0.040943     0.001800     NO 
 RMS     Displacement     0.014735     0.001200     NO 
 Predicted change in Energy=-4.035850D-05
 GradGradGradGradGradGradGradGradGradGradGradGradGradGradGradGradGradGrad

                          Input orientation:                          
 ---------------------------------------------------------------------
 Center     Atomic      Atomic             Coordinates (Angstroms)
 Number     Number       Type             X           Y           Z
 ---------------------------------------------------------------------
      1          6           0        1.023907    0.114923    0.343599
      2          7           0        1.036748    0.303531    1.784746
      3          6           0        2.385294    0.440982    2.307981
      4          1           0       -0.003572   -0.028139   -0.002254
      5          1           0        1.634438   -0.740425    0.003710
      6          1           0        1.416959    1.017800   -0.136734
      7          1           0        0.571890   -0.479120    2.236805
      8          1           0        2.352829    0.536198    3.396980
      9          1           0        2.832967    1.356501    1.905169
     10          1           0        3.050038   -0.401650    2.046199
 ---------------------------------------------------------------------
                    Distance matrix (angstroms):
                    1          2          3          4          5
     1  C    0.000000
     2  N    1.453493   0.000000
     3  C    2.412153   1.453012   0.000000
     4  H    1.093524   2.094192   3.356180   0.000000
     5  H    1.104487   2.149225   2.696140   1.786187   0.000000
     6  H    1.095627   2.084904   2.692030   1.769176   1.777182
     7  H    2.035052   1.016363   2.034720   2.355404   2.486766
     8  H    3.356582   2.094159   1.093636   4.174434   3.695962
     9  H    2.693087   2.085582   1.095830   3.688014   3.073942
    10  H    2.696461   2.149180   1.104736   3.695972   2.508078
                    6          7          8          9         10
     6  H    0.000000
     7  H    2.930632   0.000000
     8  H    3.687130   2.355550   0.000000
     9  H    2.507821   2.931204   1.768878   0.000000
    10  H    3.073594   2.486674   1.786133   1.777105   0.000000
 Stoichiometry    C2H7N
 Framework group  C1[X(C2H7N)]
 Deg. of freedom    24
 Full point group                 C1      NOp   1
 Largest Abelian subgroup         C1      NOp   1
 Largest concise Abelian subgroup C1      NOp   1
                         Standard orientation:                         
 ---------------------------------------------------------------------
 Center     Atomic      Atomic             Coordinates (Angstroms)
 Number     Number       Type             X           Y           Z
 ---------------------------------------------------------------------
      1          6           0       -1.206223   -0.224283    0.020656
      2          7           0        0.000097    0.568562   -0.149144
      3          6           0        1.205930   -0.224142    0.020646
      4          1           0       -2.087147    0.417108   -0.070923
      5          1           0       -1.254028   -0.755858    0.987627
      6          1           0       -1.253472   -0.974956   -0.775997
      7          1           0        0.000044    1.338681    0.514113
      8          1           0        2.087287    0.416847   -0.070914
      9          1           0        1.254349   -0.975481   -0.775587
     10          1           0        1.254049   -0.755732    0.987879
 ---------------------------------------------------------------------
 Rotational constants (GHZ):     34.4128336      9.4038845      8.2840358
 Standard basis: 6-31+G(d) (6D, 7F)
 There are    71 symmetry adapted cartesian basis functions of A   symmetry.
 There are    71 symmetry adapted basis functions of A   symmetry.
    71 basis functions,   124 primitive gaussians,    71 cartesian basis functions
    13 alpha electrons       13 beta electrons
       nuclear repulsion energy        84.2327313720 Hartrees.
 NAtoms=   10 NActive=   10 NUniq=   10 SFac= 1.00D+00 NAtFMM=   60 NAOKFM=F Big=F
 Integral buffers will be    131072 words long.
 Raffenetti 2 integral format.
 Two-electron integral symmetry is turned on.
 One-electron integrals computed using PRISM.
 NBasis=    71 RedAO= T EigKep=  1.08D-03  NBF=    71
 NBsUse=    71 1.00D-06 EigRej= -1.00D+00 NBFU=    71
 Initial guess from the checkpoint file:  "/srv/scratch/z5358697/gauss/Gau-1701768.chk"
 B after Tr=     0.000000    0.000000    0.000000
         Rot=    0.999993   -0.003789    0.000067   -0.000008 Ang=  -0.43 deg.
 ExpMin= 4.38D-02 ExpMax= 4.17D+03 ExpMxC= 6.27D+02 IAcc=2 IRadAn=         4 AccDes= 0.00D+00
 Harris functional with IExCor= 1009 and IRadAn=       4 diagonalized for initial guess.
 HarFok:  IExCor= 1009 AccDes= 0.00D+00 IRadAn=         4 IDoV= 1 UseB2=F ITyADJ=14
 ICtDFT=  3500011 ScaDFX=  1.000000  1.000000  1.000000  1.000000
 FoFCou: FMM=F IPFlag=           0 FMFlag=      100000 FMFlg1=           0
         NFxFlg=           0 DoJE=T BraDBF=F KetDBF=T FulRan=T
         wScrn=  0.000000 ICntrl=     500 IOpCl=  0 I1Cent=   200000004 NGrid=           0
         NMat0=    1 NMatS0=      1 NMatT0=    0 NMatD0=    1 NMtDS0=    0 NMtDT0=    0
 Petite list used in FoFCou.
 Keep R1 ints in memory in canonical form, NReq=4193323.
 Requested convergence on RMS density matrix=1.00D-08 within 128 cycles.
 Requested convergence on MAX density matrix=1.00D-06.
 Requested convergence on             energy=1.00D-06.
 No special actions if energy rises.
 SCF Done:  E(RM062X) =  -135.089218019     A.U. after    9 cycles
            NFock=  9  Conv=0.68D-08     -V/T= 2.0091
 Calling FoFJK, ICntrl=      2127 FMM=F ISym2X=0 I1Cent= 0 IOpClX= 0 NMat=1 NMatS=1 NMatT=0.
 ***** Axes restored to original set *****
 -------------------------------------------------------------------
 Center     Atomic                   Forces (Hartrees/Bohr)
 Number     Number              X              Y              Z
 -------------------------------------------------------------------
      1        6           0.000023125    0.000165222   -0.000168488
      2        7          -0.000455653   -0.000143681    0.000101104
      3        6           0.000627981    0.000170679    0.000174108
      4        1           0.000098358   -0.000075849    0.000035725
      5        1           0.000033136   -0.000067078   -0.000130282
      6        1          -0.000093602   -0.000078219    0.000011009
      7        1          -0.000052768    0.000258854    0.000008116
      8        1          -0.000037196   -0.000124209   -0.000137190
      9        1          -0.000191109   -0.000143014    0.000062659
     10        1           0.000047727    0.000037296    0.000043240
 -------------------------------------------------------------------
 Cartesian Forces:  Max     0.000627981 RMS     0.000180251

 GradGradGradGradGradGradGradGradGradGradGradGradGradGradGradGradGradGrad
 Berny optimization.
 Using GEDIIS/GDIIS optimizer.
 FormGI is forming the generalized inverse of G from B-inverse, IUseBI=4.
 Internal  Forces:  Max     0.000461705 RMS     0.000122590
 Search for a local minimum.
 Step number   4 out of a maximum of   46
 All quantities printed in internal units (Hartrees-Bohrs-Radians)
 Mixed Optimization -- En-DIIS/RFO-DIIS
 Swapping is turned off.
 Update second derivatives using D2CorX and points    1    2    3    4
 DE= -4.51D-05 DEPred=-4.04D-05 R= 1.12D+00
 TightC=F SS=  1.41D+00  RLast= 1.02D-01 DXNew= 8.4853D-01 3.0451D-01
 Trust test= 1.12D+00 RLast= 1.02D-01 DXMaxT set to 5.05D-01
 ITU=  1  1  1  0
     Eigenvalues ---    0.00477   0.00943   0.02700   0.07098   0.07172
     Eigenvalues ---    0.07634   0.07790   0.11242   0.15738   0.15993
     Eigenvalues ---    0.16000   0.16021   0.16223   0.17503   0.23360
     Eigenvalues ---    0.34200   0.34464   0.34555   0.34973   0.35207
     Eigenvalues ---    0.36052   0.37434   0.39237   0.45595
 En-DIIS/RFO-DIIS IScMMF=        0 using points:     4    3
 RFO step:  Lambda=-1.18635127D-06.
 DidBck=F Rises=F RFO-DIIS coefs:    1.13567   -0.13567
 Iteration  1 RMS(Cart)=  0.00430296 RMS(Int)=  0.00001077
 Iteration  2 RMS(Cart)=  0.00001147 RMS(Int)=  0.00000273
 Iteration  3 RMS(Cart)=  0.00000000 RMS(Int)=  0.00000273
 Variable       Old X    -DE/DX   Delta X   Delta X   Delta X     New X
                                 (Linear)    (Quad)   (Total)
    R1        2.74670   0.00026  -0.00069   0.00085   0.00016   2.74687
    R2        2.06646  -0.00009  -0.00001  -0.00027  -0.00028   2.06618
    R3        2.08718   0.00011   0.00000   0.00035   0.00035   2.08753
    R4        2.07043  -0.00010   0.00009  -0.00021  -0.00012   2.07032
    R5        2.74579   0.00046  -0.00107   0.00128   0.00021   2.74601
    R6        1.92065  -0.00017  -0.00012  -0.00032  -0.00043   1.92021
    R7        2.06667  -0.00015   0.00001  -0.00036  -0.00035   2.06632
    R8        2.07082  -0.00022   0.00016  -0.00054  -0.00037   2.07045
    R9        2.08765  -0.00001   0.00012   0.00002   0.00014   2.08779
    A1        1.91651  -0.00004   0.00028  -0.00064  -0.00035   1.91615
    A2        1.98311   0.00014  -0.00046   0.00092   0.00046   1.98357
    A3        1.90137   0.00005   0.00027   0.00072   0.00099   1.90235
    A4        1.89731  -0.00009   0.00006  -0.00083  -0.00077   1.89654
    A5        1.88203  -0.00001  -0.00001  -0.00015  -0.00016   1.88187
    A6        1.88070  -0.00005  -0.00013  -0.00005  -0.00019   1.88051
    A7        1.95791  -0.00003   0.00063  -0.00003   0.00059   1.95851
    A8        1.91457   0.00004   0.00062   0.00106   0.00167   1.91624
    A9        1.91470   0.00003   0.00084   0.00053   0.00136   1.91606
   A10        1.91693  -0.00008   0.00041  -0.00073  -0.00032   1.91661
   A11        1.90267  -0.00014   0.00067  -0.00083  -0.00016   1.90251
   A12        1.98338   0.00014  -0.00028   0.00088   0.00060   1.98398
   A13        1.88117   0.00009  -0.00027   0.00058   0.00031   1.88148
   A14        1.89677  -0.00005  -0.00017  -0.00037  -0.00054   1.89623
   A15        1.88002   0.00004  -0.00038   0.00049   0.00010   1.88012
    D1        3.09805  -0.00004  -0.00295  -0.00386  -0.00680   3.09125
    D2        0.96548  -0.00007  -0.00487  -0.00526  -0.01013   0.95535
    D3        0.96909   0.00001  -0.00292  -0.00295  -0.00587   0.96322
    D4       -1.16348  -0.00003  -0.00484  -0.00435  -0.00919  -1.17267
    D5       -1.12763  -0.00005  -0.00264  -0.00399  -0.00662  -1.13426
    D6        3.02299  -0.00009  -0.00456  -0.00539  -0.00995   3.01304
    D7       -3.09812   0.00002   0.00307   0.00365   0.00672  -3.09141
    D8        1.12758   0.00004   0.00277   0.00386   0.00662   1.13420
    D9       -0.96937   0.00000   0.00296   0.00325   0.00621  -0.96316
   D10       -0.96564   0.00007   0.00487   0.00536   0.01023  -0.95541
   D11       -3.02312   0.00009   0.00456   0.00556   0.01013  -3.01299
   D12        1.16312   0.00005   0.00476   0.00495   0.00971   1.17283
         Item               Value     Threshold  Converged?
 Maximum Force            0.000462     0.000450     NO 
 RMS     Force            0.000123     0.000300     YES
 Maximum Displacement     0.012711     0.001800     NO 
 RMS     Displacement     0.004304     0.001200     NO 
 Predicted change in Energy=-2.857555D-06
 GradGradGradGradGradGradGradGradGradGradGradGradGradGradGradGradGradGrad

                          Input orientation:                          
 ---------------------------------------------------------------------
 Center     Atomic      Atomic             Coordinates (Angstroms)
 Number     Number       Type             X           Y           Z
 ---------------------------------------------------------------------
      1          6           0        1.024312    0.114584    0.343106
      2          7           0        1.037423    0.305731    1.784003
      3          6           0        2.386037    0.440502    2.308071
      4          1           0       -0.002821   -0.033118   -0.001355
      5          1           0        1.637236   -0.739519    0.003790
      6          1           0        1.413421    1.017621   -0.139991
      7          1           0        0.567969   -0.472394    2.238604
      8          1           0        2.353110    0.530800    3.397289
      9          1           0        2.833805    1.357523    1.909337
     10          1           0        3.051008   -0.401131    2.043346
 ---------------------------------------------------------------------
                    Distance matrix (angstroms):
                    1          2          3          4          5
     1  C    0.000000
     2  N    1.453579   0.000000
     3  C    2.412800   1.453124   0.000000
     4  H    1.093376   2.093903   3.356249   0.000000
     5  H    1.104674   2.149763   2.694970   1.785726   0.000000
     6  H    1.095566   2.085645   2.696675   1.768902   1.777163
     7  H    2.036100   1.016133   2.035578   2.352909   2.491803
     8  H    3.356631   2.093891   1.093451   4.173631   3.693510
     9  H    2.696709   2.085417   1.095633   3.692028   3.075788
    10  H    2.695232   2.149753   1.104813   3.693523   2.504605
                    6          7          8          9         10
     6  H    0.000000
     7  H    2.931322   0.000000
     8  H    3.692202   2.352802   0.000000
     9  H    2.516500   2.931045   1.768767   0.000000
    10  H    3.075957   2.491724   1.785698   1.777076   0.000000
 Stoichiometry    C2H7N
 Framework group  C1[X(C2H7N)]
 Deg. of freedom    24
 Full point group                 C1      NOp   1
 Largest Abelian subgroup         C1      NOp   1
 Largest concise Abelian subgroup C1      NOp   1
                         Standard orientation:                         
 ---------------------------------------------------------------------
 Center     Atomic      Atomic             Coordinates (Angstroms)
 Number     Number       Type             X           Y           Z
 ---------------------------------------------------------------------
      1          6           0       -1.206519   -0.224290    0.020573
      2          7           0        0.000154    0.568289   -0.148694
      3          6           0        1.206281   -0.224287    0.020568
      4          1           0       -2.086686    0.418868   -0.063837
      5          1           0       -1.252304   -0.761373    0.984809
      6          1           0       -1.258365   -0.970374   -0.780011
      7          1           0        0.000321    1.340195    0.512130
      8          1           0        2.086944    0.418311   -0.063898
      9          1           0        1.258135   -0.970523   -0.779965
     10          1           0        1.252301   -0.761668    0.984786
 ---------------------------------------------------------------------
 Rotational constants (GHZ):     34.4179903      9.3995960      8.2799134
 Standard basis: 6-31+G(d) (6D, 7F)
 There are    71 symmetry adapted cartesian basis functions of A   symmetry.
 There are    71 symmetry adapted basis functions of A   symmetry.
    71 basis functions,   124 primitive gaussians,    71 cartesian basis functions
    13 alpha electrons       13 beta electrons
       nuclear repulsion energy        84.2242795694 Hartrees.
 NAtoms=   10 NActive=   10 NUniq=   10 SFac= 1.00D+00 NAtFMM=   60 NAOKFM=F Big=F
 Integral buffers will be    131072 words long.
 Raffenetti 2 integral format.
 Two-electron integral symmetry is turned on.
 One-electron integrals computed using PRISM.
 NBasis=    71 RedAO= T EigKep=  1.08D-03  NBF=    71
 NBsUse=    71 1.00D-06 EigRej= -1.00D+00 NBFU=    71
 Initial guess from the checkpoint file:  "/srv/scratch/z5358697/gauss/Gau-1701768.chk"
 B after Tr=     0.000000    0.000000    0.000000
         Rot=    0.999999   -0.001537   -0.000026    0.000041 Ang=  -0.18 deg.
 Keep R1 ints in memory in canonical form, NReq=4193323.
 Requested convergence on RMS density matrix=1.00D-08 within 128 cycles.
 Requested convergence on MAX density matrix=1.00D-06.
 Requested convergence on             energy=1.00D-06.
 No special actions if energy rises.
 SCF Done:  E(RM062X) =  -135.089221696     A.U. after    9 cycles
            NFock=  9  Conv=0.19D-08     -V/T= 2.0091
 Calling FoFJK, ICntrl=      2127 FMM=F ISym2X=0 I1Cent= 0 IOpClX= 0 NMat=1 NMatS=1 NMatT=0.
 ***** Axes restored to original set *****
 -------------------------------------------------------------------
 Center     Atomic                   Forces (Hartrees/Bohr)
 Number     Number              X              Y              Z
 -------------------------------------------------------------------
      1        6           0.000012673   -0.000010924   -0.000089147
      2        7          -0.000257159    0.000029770   -0.000035459
      3        6           0.000456809    0.000067490    0.000113398
      4        1           0.000003380   -0.000033921   -0.000000524
      5        1          -0.000002109   -0.000004453   -0.000005306
      6        1          -0.000033047   -0.000022043    0.000074732
      7        1           0.000005455    0.000046010   -0.000047181
      8        1          -0.000031979   -0.000046441   -0.000033298
      9        1          -0.000095860   -0.000051832    0.000013135
     10        1          -0.000058164    0.000026344    0.000009649
 -------------------------------------------------------------------
 Cartesian Forces:  Max     0.000456809 RMS     0.000105806

 GradGradGradGradGradGradGradGradGradGradGradGradGradGradGradGradGradGrad
 Berny optimization.
 Using GEDIIS/GDIIS optimizer.
 FormGI is forming the generalized inverse of G from B-inverse, IUseBI=4.
 Internal  Forces:  Max     0.000288645 RMS     0.000060055
 Search for a local minimum.
 Step number   5 out of a maximum of   46
 All quantities printed in internal units (Hartrees-Bohrs-Radians)
 Mixed Optimization -- En-DIIS/RFO-DIIS
 Swapping is turned off.
 Update second derivatives using D2CorX and points    1    2    3    4    5
 DE= -3.68D-06 DEPred=-2.86D-06 R= 1.29D+00
 TightC=F SS=  1.41D+00  RLast= 2.91D-02 DXNew= 8.4853D-01 8.7381D-02
 Trust test= 1.29D+00 RLast= 2.91D-02 DXMaxT set to 5.05D-01
 ITU=  1  1  1  1  0
     Eigenvalues ---    0.00395   0.00943   0.02831   0.07094   0.07162
     Eigenvalues ---    0.07632   0.07797   0.11315   0.15569   0.15986
     Eigenvalues ---    0.15999   0.16019   0.16808   0.17641   0.23361
     Eigenvalues ---    0.34227   0.34499   0.34553   0.34795   0.35208
     Eigenvalues ---    0.35885   0.36662   0.38233   0.44811
 En-DIIS/RFO-DIIS IScMMF=        0 using points:     5    4    3
 RFO step:  Lambda=-2.60782993D-07.
 DidBck=F Rises=F RFO-DIIS coefs:    1.30289   -0.32587    0.02297
 Iteration  1 RMS(Cart)=  0.00157927 RMS(Int)=  0.00000129
 Iteration  2 RMS(Cart)=  0.00000171 RMS(Int)=  0.00000028
 Iteration  3 RMS(Cart)=  0.00000000 RMS(Int)=  0.00000028
 Variable       Old X    -DE/DX   Delta X   Delta X   Delta X     New X
                                 (Linear)    (Quad)   (Total)
    R1        2.74687   0.00003   0.00017  -0.00014   0.00002   2.74689
    R2        2.06618   0.00000  -0.00008   0.00008   0.00000   2.06618
    R3        2.08753   0.00000   0.00011  -0.00008   0.00003   2.08756
    R4        2.07032  -0.00006  -0.00005  -0.00012  -0.00017   2.07015
    R5        2.74601   0.00029   0.00025   0.00051   0.00076   2.74677
    R6        1.92021  -0.00006  -0.00011  -0.00006  -0.00017   1.92004
    R7        2.06632  -0.00004  -0.00011  -0.00001  -0.00012   2.06620
    R8        2.07045  -0.00009  -0.00014  -0.00011  -0.00025   2.07019
    R9        2.08779  -0.00006   0.00002  -0.00019  -0.00017   2.08762
    A1        1.91615   0.00001  -0.00016   0.00023   0.00007   1.91622
    A2        1.98357   0.00001   0.00022  -0.00021   0.00001   1.98358
    A3        1.90235  -0.00007   0.00025  -0.00058  -0.00033   1.90202
    A4        1.89654  -0.00002  -0.00024   0.00008  -0.00017   1.89637
    A5        1.88187   0.00003  -0.00005   0.00025   0.00020   1.88207
    A6        1.88051   0.00003  -0.00003   0.00027   0.00024   1.88075
    A7        1.95851  -0.00001   0.00007  -0.00010  -0.00003   1.95848
    A8        1.91624  -0.00003   0.00040  -0.00059  -0.00019   1.91605
    A9        1.91606   0.00002   0.00027  -0.00012   0.00015   1.91621
   A10        1.91661  -0.00004  -0.00017  -0.00014  -0.00030   1.91631
   A11        1.90251  -0.00007  -0.00016  -0.00016  -0.00032   1.90219
   A12        1.98398  -0.00002   0.00023  -0.00054  -0.00031   1.98367
   A13        1.88148   0.00006   0.00014   0.00034   0.00048   1.88196
   A14        1.89623   0.00002  -0.00013   0.00014   0.00000   1.89623
   A15        1.88012   0.00006   0.00010   0.00041   0.00051   1.88063
    D1        3.09125  -0.00001  -0.00156  -0.00130  -0.00287   3.08838
    D2        0.95535  -0.00001  -0.00224  -0.00066  -0.00290   0.95245
    D3        0.96322  -0.00001  -0.00128  -0.00142  -0.00271   0.96051
    D4       -1.17267  -0.00001  -0.00197  -0.00077  -0.00274  -1.17541
    D5       -1.13426  -0.00001  -0.00156  -0.00122  -0.00278  -1.13703
    D6        3.01304  -0.00001  -0.00224  -0.00057  -0.00281   3.01023
    D7       -3.09141   0.00003   0.00152   0.00153   0.00305  -3.08836
    D8        1.13420   0.00003   0.00154   0.00129   0.00283   1.13703
    D9       -0.96316   0.00001   0.00138   0.00123   0.00261  -0.96055
   D10       -0.95541   0.00001   0.00227   0.00062   0.00289  -0.95252
   D11       -3.01299   0.00000   0.00230   0.00037   0.00267  -3.01032
   D12        1.17283  -0.00001   0.00214   0.00032   0.00245   1.17529
         Item               Value     Threshold  Converged?
 Maximum Force            0.000289     0.000450     YES
 RMS     Force            0.000060     0.000300     YES
 Maximum Displacement     0.004372     0.001800     NO 
 RMS     Displacement     0.001579     0.001200     NO 
 Predicted change in Energy=-4.141511D-07
 GradGradGradGradGradGradGradGradGradGradGradGradGradGradGradGradGradGrad

                          Input orientation:                          
 ---------------------------------------------------------------------
 Center     Atomic      Atomic             Coordinates (Angstroms)
 Number     Number       Type             X           Y           Z
 ---------------------------------------------------------------------
      1          6           0        1.024391    0.114412    0.343007
      2          7           0        1.037429    0.306962    1.783730
      3          6           0        2.386491    0.440476    2.308082
      4          1           0       -0.002543   -0.035169   -0.001230
      5          1           0        1.638426   -0.739201    0.004421
      6          1           0        1.412173    1.017613   -0.140645
      7          1           0        0.566810   -0.470080    2.238772
      8          1           0        2.353343    0.528747    3.397396
      9          1           0        2.834176    1.357961    1.910694
     10          1           0        3.050804   -0.401121    2.041972
 ---------------------------------------------------------------------
                    Distance matrix (angstroms):
                    1          2          3          4          5
     1  C    0.000000
     2  N    1.453592   0.000000
     3  C    2.413121   1.453526   0.000000
     4  H    1.093375   2.093963   3.356582   0.000000
     5  H    1.104688   2.149790   2.694085   1.785629   0.000000
     6  H    1.095475   2.085348   2.697896   1.768957   1.777254
     7  H    2.035912   1.016041   2.035965   2.351791   2.492612
     8  H    3.356647   2.093976   1.093388   4.173591   3.692030
     9  H    2.698032   2.085430   1.095499   3.693676   3.076002
    10  H    2.694180   2.149825   1.104723   3.692089   2.502144
                    6          7          8          9         10
     6  H    0.000000
     7  H    2.930784   0.000000
     8  H    3.693579   2.351970   0.000000
     9  H    2.519111   2.930924   1.768921   0.000000
    10  H    3.075993   2.492731   1.785576   1.777226   0.000000
 Stoichiometry    C2H7N
 Framework group  C1[X(C2H7N)]
 Deg. of freedom    24
 Full point group                 C1      NOp   1
 Largest Abelian subgroup         C1      NOp   1
 Largest concise Abelian subgroup C1      NOp   1
                         Standard orientation:                         
 ---------------------------------------------------------------------
 Center     Atomic      Atomic             Coordinates (Angstroms)
 Number     Number       Type             X           Y           Z
 ---------------------------------------------------------------------
      1          6           0       -1.206578   -0.224392    0.020565
      2          7           0        0.000009    0.568339   -0.148713
      3          6           0        1.206543   -0.224353    0.020558
      4          1           0       -2.086781    0.419094   -0.060892
      5          1           0       -1.251033   -0.763663    0.983657
      6          1           0       -1.259492   -0.968413   -0.781743
      7          1           0       -0.000086    1.340118    0.512117
      8          1           0        2.086810    0.419074   -0.060864
      9          1           0        1.259618   -0.968454   -0.781697
     10          1           0        1.251111   -0.763653    0.983669
 ---------------------------------------------------------------------
 Rotational constants (GHZ):     34.4149427      9.3978901      8.2784758
 Standard basis: 6-31+G(d) (6D, 7F)
 There are    71 symmetry adapted cartesian basis functions of A   symmetry.
 There are    71 symmetry adapted basis functions of A   symmetry.
    71 basis functions,   124 primitive gaussians,    71 cartesian basis functions
    13 alpha electrons       13 beta electrons
       nuclear repulsion energy        84.2197009985 Hartrees.
 NAtoms=   10 NActive=   10 NUniq=   10 SFac= 1.00D+00 NAtFMM=   60 NAOKFM=F Big=F
 Integral buffers will be    131072 words long.
 Raffenetti 2 integral format.
 Two-electron integral symmetry is turned on.
 One-electron integrals computed using PRISM.
 NBasis=    71 RedAO= T EigKep=  1.08D-03  NBF=    71
 NBsUse=    71 1.00D-06 EigRej= -1.00D+00 NBFU=    71
 Initial guess from the checkpoint file:  "/srv/scratch/z5358697/gauss/Gau-1701768.chk"
 B after Tr=     0.000000    0.000000    0.000000
         Rot=    1.000000   -0.000647    0.000006   -0.000047 Ang=  -0.07 deg.
 Keep R1 ints in memory in canonical form, NReq=4193323.
 Requested convergence on RMS density matrix=1.00D-08 within 128 cycles.
 Requested convergence on MAX density matrix=1.00D-06.
 Requested convergence on             energy=1.00D-06.
 No special actions if energy rises.
 SCF Done:  E(RM062X) =  -135.089222282     A.U. after    8 cycles
            NFock=  8  Conv=0.43D-08     -V/T= 2.0091
 Calling FoFJK, ICntrl=      2127 FMM=F ISym2X=0 I1Cent= 0 IOpClX= 0 NMat=1 NMatS=1 NMatT=0.
 ***** Axes restored to original set *****
 -------------------------------------------------------------------
 Center     Atomic                   Forces (Hartrees/Bohr)
 Number     Number              X              Y              Z
 -------------------------------------------------------------------
      1        6           0.000020323    0.000000800   -0.000046894
      2        7          -0.000082692    0.000022651    0.000013350
      3        6           0.000116523   -0.000004281    0.000027582
      4        1           0.000003679   -0.000003481    0.000004985
      5        1          -0.000002208    0.000004903    0.000003304
      6        1          -0.000006258    0.000000520   -0.000002613
      7        1           0.000009814   -0.000022578    0.000012571
      8        1          -0.000013930   -0.000004754   -0.000009843
      9        1          -0.000022719   -0.000005837    0.000001554
     10        1          -0.000022533    0.000012057   -0.000003996
 -------------------------------------------------------------------
 Cartesian Forces:  Max     0.000116523 RMS     0.000029964

 GradGradGradGradGradGradGradGradGradGradGradGradGradGradGradGradGradGrad
 Berny optimization.
 Using GEDIIS/GDIIS optimizer.
 FormGI is forming the generalized inverse of G from B-inverse, IUseBI=4.
 Internal  Forces:  Max     0.000059233 RMS     0.000015872
 Search for a local minimum.
 Step number   6 out of a maximum of   46
 All quantities printed in internal units (Hartrees-Bohrs-Radians)
 Mixed Optimization -- En-DIIS/RFO-DIIS
 Swapping is turned off.
 Update second derivatives using D2CorX and points    1    2    3    4    5
                                                      6
 DE= -5.86D-07 DEPred=-4.14D-07 R= 1.42D+00
 Trust test= 1.42D+00 RLast= 9.72D-03 DXMaxT set to 5.05D-01
 ITU=  0  1  1  1  1  0
     Eigenvalues ---    0.00405   0.00943   0.02696   0.07080   0.07172
     Eigenvalues ---    0.07636   0.07788   0.11407   0.14099   0.15986
     Eigenvalues ---    0.15998   0.16030   0.16868   0.17696   0.23332
     Eigenvalues ---    0.31314   0.34493   0.34548   0.34662   0.35214
     Eigenvalues ---    0.35928   0.36335   0.38483   0.45245
 En-DIIS/RFO-DIIS IScMMF=        0 using points:     6    5    4    3
 RFO step:  Lambda=-2.13832706D-08.
 DidBck=F Rises=F RFO-DIIS coefs:    1.13735   -0.12843   -0.02913    0.02020
 Iteration  1 RMS(Cart)=  0.00015526 RMS(Int)=  0.00000040
 Iteration  2 RMS(Cart)=  0.00000004 RMS(Int)=  0.00000040
 Variable       Old X    -DE/DX   Delta X   Delta X   Delta X     New X
                                 (Linear)    (Quad)   (Total)
    R1        2.74689   0.00004   0.00011   0.00005   0.00016   2.74705
    R2        2.06618   0.00000   0.00000  -0.00001  -0.00001   2.06617
    R3        2.08756  -0.00001   0.00001  -0.00003  -0.00002   2.08753
    R4        2.07015   0.00000  -0.00004   0.00002  -0.00002   2.07013
    R5        2.74677   0.00006   0.00027   0.00001   0.00027   2.74704
    R6        1.92004   0.00002  -0.00001   0.00005   0.00004   1.92008
    R7        2.06620  -0.00001  -0.00002  -0.00002  -0.00004   2.06616
    R8        2.07019  -0.00001  -0.00006  -0.00001  -0.00007   2.07012
    R9        2.08762  -0.00002  -0.00004  -0.00005  -0.00009   2.08753
    A1        1.91622  -0.00001  -0.00004  -0.00002  -0.00006   1.91617
    A2        1.98358  -0.00001   0.00007  -0.00012  -0.00005   1.98353
    A3        1.90202   0.00001  -0.00008   0.00014   0.00006   1.90208
    A4        1.89637   0.00000  -0.00004   0.00001  -0.00003   1.89635
    A5        1.88207   0.00000   0.00003  -0.00001   0.00002   1.88209
    A6        1.88075   0.00000   0.00005   0.00000   0.00005   1.88080
    A7        1.95848  -0.00002  -0.00009  -0.00012  -0.00021   1.95827
    A8        1.91605   0.00001  -0.00010   0.00003  -0.00007   1.91598
    A9        1.91621  -0.00001  -0.00009  -0.00015  -0.00024   1.91597
   A10        1.91631  -0.00001  -0.00011  -0.00003  -0.00014   1.91617
   A11        1.90219  -0.00001  -0.00015   0.00000  -0.00015   1.90204
   A12        1.98367  -0.00002   0.00000  -0.00014  -0.00014   1.98354
   A13        1.88196   0.00001   0.00011   0.00003   0.00014   1.88211
   A14        1.89623   0.00002   0.00002   0.00010   0.00012   1.89635
   A15        1.88063   0.00002   0.00013   0.00005   0.00018   1.88081
    D1        3.08838  -0.00001  -0.00002  -0.00027  -0.00029   3.08809
    D2        0.95245   0.00000   0.00024  -0.00003   0.00021   0.95266
    D3        0.96051   0.00000   0.00001  -0.00019  -0.00018   0.96033
    D4       -1.17541   0.00001   0.00026   0.00006   0.00032  -1.17510
    D5       -1.13703  -0.00001  -0.00005  -0.00022  -0.00026  -1.13729
    D6        3.01023   0.00001   0.00020   0.00003   0.00024   3.01046
    D7       -3.08836   0.00000   0.00002   0.00021   0.00023  -3.08813
    D8        1.13703   0.00000   0.00004   0.00019   0.00023   1.13726
    D9       -0.96055   0.00000  -0.00003   0.00022   0.00019  -0.96036
   D10       -0.95252   0.00000  -0.00024   0.00007  -0.00017  -0.95269
   D11       -3.01032   0.00000  -0.00022   0.00005  -0.00018  -3.01050
   D12        1.17529   0.00000  -0.00029   0.00007  -0.00021   1.17507
         Item               Value     Threshold  Converged?
 Maximum Force            0.000059     0.000450     YES
 RMS     Force            0.000016     0.000300     YES
 Maximum Displacement     0.000362     0.001800     YES
 RMS     Displacement     0.000155     0.001200     YES
 Predicted change in Energy=-2.958708D-08
 Optimization completed.
    -- Stationary point found.
                           ----------------------------
[...]
           X            1.00000  -0.00001   0.00000
           Y            0.00001   0.99633   0.08555
           Z            0.00000  -0.08555   0.99633
 This molecule is an asymmetric top.
 Rotational symmetry number  1.
 Rotational temperatures (Kelvin)      1.65165     0.45103     0.39730
 Rotational constants (GHZ):          34.41494     9.39789     8.27848
 Zero-point vibrational energy     245713.9 (Joules/Mol)
                                   58.72704 (Kcal/Mol)
 Warning -- explicit consideration of   3 degrees of freedom as
           vibrations may cause significant error
 Vibrational temperatures:    305.58   380.71   566.23  1135.53  1394.99
          (Kelvin)           1498.66  1597.99  1722.71  1745.59  1838.87
                             2092.76  2137.15  2152.46  2175.01  2190.59
                             2210.79  2216.25  4313.45  4315.28  4465.22
                             4468.49  4540.11  4540.45  5100.25
 
 Zero-point correction=                           0.093587 (Hartree/Particle)
 Thermal correction to Energy=                    0.098001
 Thermal correction to Enthalpy=                  0.098945
 Thermal correction to Gibbs Free Energy=         0.068087
 Sum of electronic and zero-point Energies=           -134.995635
 Sum of electronic and thermal Energies=              -134.991222
 Sum of electronic and thermal Enthalpies=            -134.990277
 Sum of electronic and thermal Free Energies=         -135.021136
 
                     E (Thermal)             CV                S
                      KCal/Mol        Cal/Mol-Kelvin    Cal/Mol-Kelvin
 Total                   61.496             13.768             64.946
 Electronic               0.000              0.000              0.000
 Translational            0.889              2.981             37.342
 Rotational               0.889              2.981             22.311
 Vibrational             59.719              7.807              5.293
 Vibration     1          0.643              1.822              2.023
 Vibration     2          0.671              1.738              1.631
 Vibration     3          0.761              1.484              0.987
                       Q            Log10(Q)             Ln(Q)
 Total Bot       0.481215D-31        -31.317661        -72.111578
 Total V=0       0.536421D+12         11.729506         27.008186
 Vib (Bot)       0.241337D-42        -42.617376        -98.130136
 Vib (Bot)    1  0.934244D+00         -0.029540         -0.068017
 Vib (Bot)    2  0.732358D+00         -0.135276         -0.311485
 Vib (Bot)    3  0.455023D+00         -0.341967         -0.787408
 Vib (V=0)       0.269024D+01          0.429790          0.989629
 Vib (V=0)    1  0.155963D+01          0.193021          0.444448
 Vib (V=0)    2  0.138676D+01          0.142002          0.326972
 Vib (V=0)    3  0.117605D+01          0.070426          0.162163
 Electronic      0.100000D+01          0.000000          0.000000
 Translational   0.118881D+08          7.075111         16.291045
 Rotational      0.167728D+05          4.224605          9.727512
 ***** Axes restored to original set *****
 -------------------------------------------------------------------
 Center     Atomic                   Forces (Hartrees/Bohr)
 Number     Number              X              Y              Z
 -------------------------------------------------------------------
      1        6           0.000020322    0.000000804   -0.000046889
      2        7          -0.000082690    0.000022649    0.000013345
      3        6           0.000116522   -0.000004278    0.000027581
      4        1           0.000003679   -0.000003481    0.000004984
      5        1          -0.000002206    0.000004901    0.000003304
      6        1          -0.000006258    0.000000518   -0.000002613
      7        1           0.000009813   -0.000022578    0.000012572
      8        1          -0.000013930   -0.000004754   -0.000009843
      9        1          -0.000022719   -0.000005838    0.000001554
     10        1          -0.000022532    0.000012056   -0.000003996
 -------------------------------------------------------------------
 Cartesian Forces:  Max     0.000116522 RMS     0.000029963
 FormGI is forming the generalized inverse of G from B-inverse, IUseBI=4.

 GradGradGradGradGradGradGradGradGradGradGradGradGradGradGradGradGradGrad
 Berny optimization.
 Internal  Forces:  Max     0.000059232 RMS     0.000015871
 Search for a local minimum.
 Step number   1 out of a maximum of    2
 All quantities printed in internal units (Hartrees-Bohrs-Radians)
 Second derivative matrix not updated -- analytic derivatives used.
 ITU=  0
     Eigenvalues ---    0.00318   0.00368   0.02186   0.06331   0.06346
     Eigenvalues ---    0.06433   0.06492   0.10593   0.12954   0.13636
     Eigenvalues ---    0.15679   0.16645   0.17255   0.18428   0.24688
     Eigenvalues ---    0.31932   0.31997   0.34272   0.34385   0.34874
     Eigenvalues ---    0.34931   0.38644   0.39237   0.44871
 Angle between quadratic step and forces=  53.87 degrees.
 Linear search not attempted -- first point.
 Iteration  1 RMS(Cart)=  0.00018787 RMS(Int)=  0.00000005
 Iteration  2 RMS(Cart)=  0.00000006 RMS(Int)=  0.00000003
 Variable       Old X    -DE/DX   Delta X   Delta X   Delta X     New X
                                 (Linear)    (Quad)   (Total)
    R1        2.74689   0.00004   0.00000   0.00017   0.00017   2.74706
    R2        2.06618   0.00000   0.00000  -0.00001  -0.00001   2.06617
    R3        2.08756  -0.00001   0.00000  -0.00003  -0.00003   2.08753
    R4        2.07015   0.00000   0.00000  -0.00001  -0.00001   2.07013
    R5        2.74677   0.00006   0.00000   0.00029   0.00029   2.74706
    R6        1.92004   0.00002   0.00000   0.00006   0.00006   1.92010
    R7        2.06620  -0.00001   0.00000  -0.00004  -0.00004   2.06617
    R8        2.07019  -0.00001   0.00000  -0.00006  -0.00006   2.07013
    R9        2.08762  -0.00002   0.00000  -0.00010  -0.00010   2.08753
    A1        1.91622  -0.00001   0.00000  -0.00005  -0.00005   1.91617
    A2        1.98358  -0.00001   0.00000  -0.00006  -0.00006   1.98351
    A3        1.90202   0.00001   0.00000   0.00005   0.00005   1.90207
    A4        1.89637   0.00000   0.00000   0.00000   0.00000   1.89637
    A5        1.88207   0.00000   0.00000   0.00002   0.00002   1.88209
    A6        1.88075   0.00000   0.00000   0.00006   0.00006   1.88081
    A7        1.95848  -0.00002   0.00000  -0.00024  -0.00024   1.95824
    A8        1.91605   0.00001   0.00000  -0.00012  -0.00012   1.91593
    A9        1.91621  -0.00001   0.00000  -0.00028  -0.00028   1.91593
   A10        1.91631  -0.00001   0.00000  -0.00014  -0.00014   1.91617
   A11        1.90219  -0.00001   0.00000  -0.00012  -0.00012   1.90207
   A12        1.98367  -0.00002   0.00000  -0.00016  -0.00016   1.98351
   A13        1.88196   0.00001   0.00000   0.00012   0.00012   1.88209
   A14        1.89623   0.00002   0.00000   0.00014   0.00014   1.89637
   A15        1.88063   0.00002   0.00000   0.00017   0.00017   1.88081
    D1        3.08838  -0.00001   0.00000  -0.00031  -0.00031   3.08807
    D2        0.95245   0.00000   0.00000   0.00030   0.00030   0.95275
    D3        0.96051   0.00000   0.00000  -0.00023  -0.00023   0.96029
    D4       -1.17541   0.00001   0.00000   0.00038   0.00038  -1.17503
    D5       -1.13703  -0.00001   0.00000  -0.00029  -0.00029  -1.13732
    D6        3.01023   0.00001   0.00000   0.00032   0.00032   3.01054
    D7       -3.08836   0.00000   0.00000   0.00029   0.00029  -3.08806
    D8        1.13703   0.00000   0.00000   0.00030   0.00030   1.13733
    D9       -0.96055   0.00000   0.00000   0.00027   0.00027  -0.96028
   D10       -0.95252   0.00000   0.00000  -0.00022  -0.00022  -0.95274
   D11       -3.01032   0.00000   0.00000  -0.00022  -0.00022  -3.01054
   D12        1.17529   0.00000   0.00000  -0.00025  -0.00025   1.17504
         Item               Value     Threshold  Converged?
 Maximum Force            0.000059     0.000450     YES
 RMS     Force            0.000016     0.000300     YES
 Maximum Displacement     0.000478     0.001800     YES
 RMS     Displacement     0.000188     0.001200     YES
 Predicted change in Energy=-3.318006D-08
 Optimization completed.
    -- Stationary point found.
                           ----------------------------
                           !   Optimized Parameters   !
                           ! (Angstroms and Degrees)  !
 --------------------------                            --------------------------
 ! Name  Definition              Value          Derivative Info.                !
 --------------------------------------------------------------------------------
 ! R1    R(1,2)                  1.4536         -DE/DX =    0.0                 !
 ! R2    R(1,4)                  1.0934         -DE/DX =    0.0                 !
 ! R3    R(1,5)                  1.1047         -DE/DX =    0.0                 !
 ! R4    R(1,6)                  1.0955         -DE/DX =    0.0                 !
 ! R5    R(2,3)                  1.4535         -DE/DX =    0.0001              !
 ! R6    R(2,7)                  1.016          -DE/DX =    0.0                 !
 ! R7    R(3,8)                  1.0934         -DE/DX =    0.0                 !
 ! R8    R(3,9)                  1.0955         -DE/DX =    0.0                 !
 ! R9    R(3,10)                 1.1047         -DE/DX =    0.0                 !
 ! A1    A(2,1,4)              109.7915         -DE/DX =    0.0                 !
 ! A2    A(2,1,5)              113.6506         -DE/DX =    0.0                 !
 ! A3    A(2,1,6)              108.9778         -DE/DX =    0.0                 !
 ! A4    A(4,1,5)              108.6542         -DE/DX =    0.0                 !
 ! A5    A(4,1,6)              107.8345         -DE/DX =    0.0                 !
 ! A6    A(5,1,6)              107.759          -DE/DX =    0.0                 !
 ! A7    A(1,2,3)              112.2125         -DE/DX =    0.0                 !
 ! A8    A(1,2,7)              109.7814         -DE/DX =    0.0                 !
 ! A9    A(3,2,7)              109.7908         -DE/DX =    0.0                 !
 ! A10   A(2,3,8)              109.7964         -DE/DX =    0.0                 !
 ! A11   A(2,3,9)              108.9874         -DE/DX =    0.0                 !
 ! A12   A(2,3,10)             113.6561         -DE/DX =    0.0                 !
 ! A13   A(8,3,9)              107.8286         -DE/DX =    0.0                 !
 ! A14   A(8,3,10)             108.646          -DE/DX =    0.0                 !
 ! A15   A(9,3,10)             107.7524         -DE/DX =    0.0                 !
 ! D1    D(4,1,2,3)            176.9511         -DE/DX =    0.0                 !
 ! D2    D(4,1,2,7)             54.5715         -DE/DX =    0.0                 !
 ! D3    D(5,1,2,3)             55.0334         -DE/DX =    0.0                 !
 ! D4    D(5,1,2,7)            -67.3462         -DE/DX =    0.0                 !
 ! D5    D(6,1,2,3)            -65.1471         -DE/DX =    0.0                 !
 ! D6    D(6,1,2,7)            172.4732         -DE/DX =    0.0                 !
 ! D7    D(1,2,3,8)           -176.9499         -DE/DX =    0.0                 !
 ! D8    D(1,2,3,9)             65.147          -DE/DX =    0.0                 !
 ! D9    D(1,2,3,10)           -55.0354         -DE/DX =    0.0                 !
 ! D10   D(7,2,3,8)            -54.5755         -DE/DX =    0.0                 !
 ! D11   D(7,2,3,9)           -172.4786         -DE/DX =    0.0                 !
 ! D12   D(7,2,3,10)            67.3389         -DE/DX =    0.0                 !
 --------------------------------------------------------------------------------
 GradGradGradGradGradGradGradGradGradGradGradGradGradGradGradGradGradGrad

 1\1\GINC-KATANA2\Freq\RM062X\6-31+G(d)\C2H7N1\Z5358697\20-Mar-2025\0\\
 #N Geom=AllCheck Guess=TCheck SCRF=Check GenChk RM062X/6-31+G(d) Freq\
 \N-methylmethanamine\\0,1\C,1.0243914373,0.1144123786,0.3430069146\N,1
 .0374293525,0.3069616447,1.7837302785\C,2.386490713,0.4404763832,2.308
 0817835\H,-0.0025430841,-0.0351693246,-0.0012299705\H,1.6384258096,-0.
 7392011988,0.0044208596\H,1.4121730991,1.0176130775,-0.1406447621\H,0.
 566810394,-0.4700804272,2.238772382\H,2.3533425847,0.5287474462,3.3973
 962813\H,2.8341759919,1.3579611192,1.9106939404\H,3.050803702,-0.40112
 10988,2.0419722927\\Version=ES64L-G09RevD.01\State=1-A\HF=-135.0892223
 \RMSD=6.588e-10\RMSF=2.996e-05\ZeroPoint=0.0935875\Thermal=0.0980006\D
 ipole=0.1665973,-0.4157867,-0.0465688\DipoleDeriv=0.2101273,-0.0810185
 ,-0.0530112,-0.1156965,0.3189633,0.0288341,-0.0320726,0.1204782,0.5473
 688,-0.6925941,0.1542567,-0.0100387,0.1542457,-0.4253244,-0.1475009,-0
 .0100218,-0.1475135,-0.6385915,0.5580672,-0.0848018,0.100073,-0.016513
 1,0.3219345,0.0885301,0.0735363,0.0202325,0.1966935,-0.1247364,-0.0344
 225,-0.0994314,-0.0240266,0.0682233,-0.0390404,-0.0463311,-0.0126309,-
 0.0042185,-0.0433973,0.1418889,0.1055658,0.1134321,-0.1367438,-0.12780
 46,-0.0036467,-0.0419535,-0.0925192,0.0407267,-0.0613256,0.0722944,-0.
 0590656,-0.0948425,0.0934377,0.0082246,0.0278039,-0.0105897,0.1937182,
 -0.0699055,-0.0671576,-0.1518946,0.0964469,0.1025702,-0.0535754,0.0457
 317,0.1096295,0.0261962,-0.0052542,0.0100785,0.0107379,0.0748857,-0.01
 48051,-0.0473628,-0.0229276,-0.1618676,-0.0090214,-0.039418,-0.0146609
 ,-0.0848848,-0.0929465,0.0525724,0.0565734,0.0882144,0.037206,-0.15908
 64,0.0800006,-0.0437117,0.1736656,-0.1305965,-0.0367934,0.0546761,-0.0
 774353,0.0168888\Polar=34.3343596,-0.1920055,31.2240639,1.615689,1.028
 203,35.3272788\PG=C01 [X(C2H7N1)]\NImag=0\\0.60889310,0.02445694,0.570
 76603,0.01192391,-0.02272325,0.51103006,-0.08972149,-0.02141889,-0.010
 20787,0.48825950,-0.01535462,-0.07895083,0.00302692,0.19883951,0.40111
 820,0.01713631,-0.03808120,-0.24583476,0.00369620,-0.11458651,0.557481
 30,-0.00690676,0.00632583,-0.00450217,-0.22669582,-0.04580353,-0.06022
 023,0.50838816,-0.00332386,-0.00347277,-0.00958854,-0.00397086,-0.0742
 1209,0.01587018,0.01505667,0.57191104,-0.04175823,-0.00458451,-0.02270
 700,-0.03880919,-0.00044783,-0.11370677,-0.02612125,-0.01073422,0.6103
 7872,-0.29571355,-0.03634859,-0.07721157,0.00301955,0.00014668,0.00044
 793,0.00165691,0.00011581,-0.00072048,0.31572086,-0.03426726,-0.054983
 02,-0.01118262,-0.00443061,-0.00188539,-0.00093616,0.00050048,0.000306
 46,-0.00066495,0.03911731,0.05321787,-0.06888701,-0.00950949,-0.070961
 48,-0.03656822,-0.00821902,-0.01495459,0.00202139,0.00031062,-0.007102
 17,0.08450029,0.01430237,0.08447846,-0.12962978,0.10429627,0.03277601,
 0.00148390,0.00005904,0.00486891,0.00321493,-0.00357442,-0.00125193,-0
 .01591279,0.02524875,0.00775790,0.13327948,0.10437156,-0.19930651,-0.0
 4581109,0.00177885,0.00131735,-0.01003824,0.00023748,0.00139963,0.0010
 5038,-0.00301667,0.00440105,0.00233698,-0.11819106,0.21418286,0.034204
 22,-0.04765534,-0.06642150,0.01742018,-0.03088069,-0.02742739,0.006481
 84,-0.00084288,0.00253715,-0.00418402,0.00802541,0.00329419,-0.0428636
 8,0.06009981,0.08155700,-0.08391531,-0.07821485,0.03945471,-0.00094701
 ,-0.00053299,0.00147950,0.00091900,0.00169456,-0.00086147,-0.00933212,
 -0.02613451,0.01373504,0.00706073,0.01702678,-0.00830243,0.08461611,-0
 .07979863,-0.23831969,0.09535760,0.00182863,0.00819508,-0.00092136,-0.
 00003060,0.00094922,-0.00068459,-0.00026307,-0.00240246,0.00040291,-0.
 00937258,-0.02202521,0.00992054,0.08606630,0.25290773,0.03647721,0.088
 81096,-0.09155632,0.01696802,0.02910543,-0.02501315,0.00185369,0.00173
 319,0.00106200,-0.00265638,-0.00939569,0.00496587,-0.00367189,-0.00658
 478,0.00467715,-0.04562617,-0.10255700,0.11285064,0.00145298,0.0023182
 3,0.00110345,-0.11454474,-0.12987822,0.05908434,-0.02056850,-0.0303115
 1,0.01506250,0.00015916,0.00042057,-0.00053887,-0.00041879,-0.00080203
 ,-0.00015396,0.00119663,0.00085715,-0.00213369,0.13646326,0.00604798,0
 .00161970,-0.01049679,-0.16871152,-0.26444994,0.15078065,0.00688008,-0
 .00473132,0.00163910,0.00016834,0.00027414,0.00078915,0.00018283,0.001
 03951,-0.00091139,0.00044053,0.00126214,0.00011466,0.15667160,0.262674
 07,0.01772007,0.03260886,-0.02030636,0.06552526,0.12386508,-0.12632802
 ,-0.00834212,-0.01310470,0.00806977,-0.00058260,0.00019464,0.00093205,
 0.00052329,-0.00020402,0.00083249,-0.00047631,-0.00217592,-0.00728908,
 -0.07005300,-0.14006680,0.14467026,-0.00629401,-0.00147774,-0.00078755
 ,-0.00128592,-0.00088203,-0.03885626,-0.05044186,0.00113477,0.02199863
 ,-0.00003534,-0.00030099,-0.00208112,-0.00000333,-0.00030783,-0.000205
 97,0.00001796,0.00035359,0.00006663,0.00129440,-0.00051352,0.00006460,
 0.05750711,-0.00105879,0.00000750,-0.00018464,-0.00092550,-0.00104648,
 -0.00379968,0.00152012,-0.05149238,-0.02049145,-0.00005409,0.00054566,
 -0.00030044,-0.00001036,0.00030578,0.00053205,0.00010409,0.00028210,-0
 .00034441,0.00010588,-0.00002929,-0.00049646,-0.00070192,0.04895072,-0
 .00366273,-0.00060314,0.00114972,-0.00107470,0.00027935,-0.01148736,0.
 01326549,-0.02045425,-0.31969790,-0.00001907,-0.00016305,-0.00082649,0
 .00015110,0.00001596,0.00023236,0.00011486,-0.00006168,0.00030231,-0.0
 0012451,-0.00048698,0.00010039,-0.01076250,0.02321175,0.34694202,0.000
 76479,-0.00061286,0.00188929,-0.02334020,-0.02990131,0.01339583,-0.084
 74806,-0.08155481,0.03644471,0.00012158,0.00036640,0.00010534,-0.00010
 362,0.00013280,-0.00051734,0.00038208,0.00040983,-0.00083222,-0.005461
 95,-0.00198732,-0.00428970,-0.00058187,-0.00040067,0.00082050,0.104560
 03,0.00044880,0.00052073,0.00071924,-0.00493830,0.00083046,-0.00010145
 ,-0.08743369,-0.24085027,0.08388561,0.00019857,0.00030184,-0.00032338,
 0.00016460,-0.00055296,0.00010351,-0.00044320,-0.00020498,-0.00070629,
 0.00061987,0.00100532,-0.00113298,0.00263911,0.00394872,-0.00152107,0.
 09770986,0.25729595,-0.00071522,-0.00215782,0.00164496,-0.00662643,-0.
 01118337,0.00475252,0.04065956,0.08525650,-0.08815959,0.00014005,0.000
 01587,0.00017886,0.00009171,0.00019011,-0.00016357,0.00032048,0.000800
 32,0.00017878,-0.00313408,-0.00132827,-0.00037231,0.01241468,0.0283171
 7,-0.01014050,-0.03969379,-0.09119945,0.08848664,0.00107002,0.00067565
 ,0.00556181,-0.03622776,0.02330746,-0.00103254,-0.12481800,0.10473365,
 0.03601671,0.00031574,-0.00052015,-0.00004474,0.00102925,-0.00122988,-
 0.00187884,0.00000194,-0.00005060,-0.00044521,0.00042756,0.00082099,-0
 .00008950,-0.00017715,0.00142123,0.00129157,0.00840723,-0.00896560,-0.
 00345696,0.14997116,-0.00152213,0.00211887,0.00088317,0.00194869,0.009
 08364,0.00181377,0.10274714,-0.19980750,-0.04896753,-0.00006430,0.0002
 2386,0.00021030,0.00119694,-0.00076149,0.00160898,-0.00000670,-0.00064
 392,-0.00017607,-0.00000153,0.00133568,0.00051229,0.00005657,-0.001472
 33,-0.00021688,0.01583808,-0.02229480,-0.00871106,-0.12019275,0.212217
 99,-0.00243852,0.00389494,0.00396268,-0.01032324,0.00904065,0.00251821
 ,0.03490381,-0.04844591,-0.07067421,0.00028585,-0.00019582,-0.00000471
 ,0.00161858,-0.00105510,0.00088213,0.00016179,-0.00008082,-0.00017821,
 0.00088782,-0.00003334,-0.00030919,0.01814885,-0.02644389,-0.00657457,
 -0.00732263,0.01027627,0.00359422,-0.03592231,0.05304303,0.06678366\\-
 0.00002032,-0.00000080,0.00004689,0.00008269,-0.00002265,-0.00001335,-
 0.00011652,0.00000428,-0.00002758,-0.00000368,0.00000348,-0.00000498,0
 .00000221,-0.00000490,-0.00000330,0.00000626,-0.00000052,0.00000261,-0
 .00000981,0.00002258,-0.00001257,0.00001393,0.00000475,0.00000984,0.00
 002272,0.00000584,-0.00000155,0.00002253,-0.00001206,0.00000400\\\@


 IT CANNOT BE MY BEAUTY, FOR I HAVE NONE; AND IT CANNOT BE MY WIT,
 FOR HE HAS NOT ENOUGH TO KNOW THAT I HAVE ANY.
 -- CATHARINE SEDLEY, PUZZLED ABOUT WHY SHE WAS MISTRESS TO JAMES II
 Job cpu time:       0 days  0 hours  0 minutes 37.3 seconds.
 File lengths (MBytes):  RWF=    132 Int=      0 D2E=      0 Chk=      2 Scr=      2
 Normal termination of Gaussian 09 at Thu Mar 20 15:43:02 2025.
