 Entering Gaussian System, Link 0=g09
 Initial command:
 /apps/z_install_tree/linux-rocky8-ivybridge/gcc-12.2.0/gaussian-09-D.01-wczn3gur5lpur3omlkzwa2l5ecyxp5ef/g09/l1.exe "/srv/scratch/z5358697/gauss/Gau-3811645.inp" -scrdir="/srv/scratch/z5358697/gauss/"
 Entering Link 1 = /apps/z_install_tree/linux-rocky8-ivybridge/gcc-12.2.0/gaussian-09-D.01-wczn3gur5lpur3omlkzwa2l5ecyxp5ef/g09/l1.exe PID=   3811647.
  
 Copyright (c) 1988,1990,1992,1993,1995,1998,2003,2009,2013,
            Gaussian, Inc.  All Rights Reserved.
  
 This is part of the Gaussian(R) 09 program.  It is based on
 the Gaussian(R) 03 system (copyright 2003, Gaussian, Inc.),
 the Gaussian(R) 98 system (copyright 1998, Gaussian, Inc.),
 the Gaussian(R) 94 system (copyright 1995, Gaussian, Inc.),
 the Gaussian 92(TM) system (copyright 1992, Gaussian, Inc.),
 the Gaussian 90(TM) system (copyright 1990, Gaussian, Inc.),
 the Gaussian 88(TM) system (copyright 1988, Gaussian, Inc.),
 the Gaussian 86(TM) system (copyright 1986, Carnegie Mellon
 University), and the Gaussian 82(TM) system (copyright 1983,
 Carnegie Mellon University). Gaussian is a federally registered
 trademark of Gaussian, Inc.
  
 This software contains proprietary and confidential information,
 including trade secrets, belonging to Gaussian, Inc.
  
 This software is provided under written license and may be
 used, copied, transmitted, or stored only in accord with that
 written license.
  
 The following legend is applicable only to US Government
 contracts under FAR:
  
                    RESTRICTED RIGHTS LEGEND
  
 Use, reproduction and disclosure by the US Government is
 subject to restrictions as set forth in subparagraphs (a)
 and (c) of the Commercial Computer Software - Restricted
 Rights clause in FAR 52.227-19.
  
 Gaussian, Inc.
 340 Quinnipiac St., Bldg. 40, Wallingford CT 06492
  
  
 ---------------------------------------------------------------
 Warning -- This program may not be used in any manner that
 competes with the business of Gaussian, Inc. or will provide
 assistance to any competitor of Gaussian, Inc.  The licensee
 of this program is prohibited from giving any competitor of
 Gaussian, Inc. access to this program.  By using this program,
 the user acknowledges that Gaussian, Inc. is engaged in the
 business of creating and licensing software in the field of
 computational chemistry and represents and warrants to the
 licensee that it is not a competitor of Gaussian, Inc. and that
 it will not use this program in any manner prohibited above.
 ---------------------------------------------------------------
  

 Cite this work as:
 Gaussian 09, Revision D.01,
 M. J. Frisch, G. W. Trucks, H. B. Schlegel, G. E. Scuseria, 
 M. A. Robb, J. R. Cheeseman, G. Scalmani, V. Barone, B. Mennucci, 
 G. A. Petersson, H. Nakatsuji, M. Caricato, X. Li, H. P. Hratchian, 
 A. F. Izmaylov, J. Bloino, G. Zheng, J. L. Sonnenberg, M. Hada, 
 M. Ehara, K. Toyota, R. Fukuda, J. Hasegawa, M. Ishida, T. Nakajima, 
 Y. Honda, O. Kitao, H. Nakai, T. Vreven, J. A. Montgomery, Jr., 
 J. E. Peralta, F. Ogliaro, M. Bearpark, J. J. Heyd, E. Brothers, 
 K. N. Kudin, V. N. Staroverov, T. Keith, R. Kobayashi, J. Normand, 
 K. Raghavachari, A. Rendell, J. C. Burant, S. S. Iyengar, J. Tomasi, 
 M. Cossi, N. Rega, J. M. Millam, M. Klene, J. E. Knox, J. B. Cross, 
 V. Bakken, C. Adamo, J. Jaramillo, R. Gomperts, R. E. Stratmann, 
 O. Yazyev, A. J. Austin, R. Cammi, C. Pomelli, J. W. Ochterski, 
 R. L. Martin, K. Morokuma, V. G. Zakrzewski, G. A. Voth, 
 P. Salvador, J. J. Dannenberg, S. Dapprich, A. D. Daniels, 
 O. Farkas, J. B. Foresman, J. V. Ortiz, J. Cioslowski, 
 and D. J. Fox, Gaussian, Inc., Wallingford CT, 2013.
 
 ******************************************
 Gaussian 09:  ES64L-G09RevD.01 24-Apr-2013
                20-Mar-2025 
 ******************************************
 ---------------------------------
 #m062X/6-31+G(d) OPT Freq=noraman
 ---------------------------------
 1/14=-1,18=20,19=15,26=3,38=1/1,3;
 2/9=110,12=2,17=6,18=5,40=1/2;
 3/5=1,6=6,7=11,11=2,16=1,25=1,30=1,71=1,74=-55/1,2,3;
 4//1;
 5/5=2,38=5/2;
 6/7=2,8=2,9=2,10=2,28=1/1;
 7//1,2,3,16;
 1/14=-1,18=20,19=15,26=3/3(2);
 2/9=110/2;
 99//99;
 2/9=110/2;
 3/5=1,6=6,7=11,11=2,16=1,25=1,30=1,71=1,74=-55/1,2,3;
 4/5=5,16=3,69=1/1;
 5/5=2,38=5/2;
 7//1,2,3,16;
 1/14=-1,18=20,19=15,26=3/3(-5);
 2/9=110/2;
 6/7=2,8=2,9=2,10=2,19=2,28=1/1;
 99/9=1/99;
 ---------------------
 4-methyl-1H-imidazole
 ---------------------
 Symbolic Z-matrix:
 Charge =  0 Multiplicity = 1
 C                    -0.2079    0.2981    0.1233 
 C                     0.6549   -0.7784   -0.364 
 C                     1.9499   -0.774    -0.8259 
 N                     2.3537   -2.0366   -1.1813 
 C                     1.3133   -2.802    -0.9371 
 N                     0.2603   -2.0844   -0.4416 
 H                    -0.0878    0.4138    1.2048 
 H                     0.0385    1.2474   -0.3639 
 H                    -1.2597    0.0854   -0.0955 
 H                     2.6449    0.0471   -0.9372 
 H                     3.2612   -2.2957   -1.5471 
 H                     1.28     -3.8703   -1.1022 
 

 GradGradGradGradGradGradGradGradGradGradGradGradGradGradGradGradGradGrad
 Berny optimization.
 Initialization pass.
                           ----------------------------
                           !    Initial Parameters    !
                           ! (Angstroms and Degrees)  !
 --------------------------                            --------------------------
 ! Name  Definition              Value          Derivative Info.                !
 --------------------------------------------------------------------------------
 ! R1    R(1,2)                  1.4631         estimate D2E/DX2                !
 ! R2    R(1,7)                  1.0943         estimate D2E/DX2                !
 ! R3    R(1,8)                  1.0951         estimate D2E/DX2                !
 ! R4    R(1,9)                  1.0952         estimate D2E/DX2                !
 ! R5    R(2,3)                  1.3749         estimate D2E/DX2                !
 ! R6    R(2,6)                  1.3665         estimate D2E/DX2                !
 ! R7    R(3,4)                  1.3724         estimate D2E/DX2                !
 ! R8    R(3,10)                 1.0815         estimate D2E/DX2                !
 ! R9    R(4,5)                  1.3145         estimate D2E/DX2                !
 ! R10   R(4,11)                 1.0122         estimate D2E/DX2                !
 ! R11   R(5,6)                  1.3672         estimate D2E/DX2                !
 ! R12   R(5,12)                 1.0815         estimate D2E/DX2                !
 ! A1    A(2,1,7)              110.0131         estimate D2E/DX2                !
 ! A2    A(2,1,8)              110.9124         estimate D2E/DX2                !
 ! A3    A(2,1,9)              110.9105         estimate D2E/DX2                !
 ! A4    A(7,1,8)              108.8653         estimate D2E/DX2                !
 ! A5    A(7,1,9)              108.8683         estimate D2E/DX2                !
 ! A6    A(8,1,9)              107.1915         estimate D2E/DX2                !
 ! A7    A(1,2,3)              131.6788         estimate D2E/DX2                !
 ! A8    A(1,2,6)              123.4906         estimate D2E/DX2                !
 ! A9    A(3,2,6)              104.8305         estimate D2E/DX2                !
 ! A10   A(2,3,4)              111.1725         estimate D2E/DX2                !
 ! A11   A(2,3,10)             129.9623         estimate D2E/DX2                !
 ! A12   A(4,3,10)             118.8652         estimate D2E/DX2                !
 ! A13   A(3,4,5)              104.7559         estimate D2E/DX2                !
 ! A14   A(3,4,11)             126.3621         estimate D2E/DX2                !
 ! A15   A(5,4,11)             128.8818         estimate D2E/DX2                !
 ! A16   A(4,5,6)              111.7955         estimate D2E/DX2                !
 ! A17   A(4,5,12)             124.8327         estimate D2E/DX2                !
 ! A18   A(6,5,12)             123.3718         estimate D2E/DX2                !
 ! A19   A(2,6,5)              107.4456         estimate D2E/DX2                !
 ! D1    D(7,1,2,3)            -90.0605         estimate D2E/DX2                !
 ! D2    D(7,1,2,6)             90.0014         estimate D2E/DX2                !
 ! D3    D(8,1,2,3)             30.4415         estimate D2E/DX2                !
 ! D4    D(8,1,2,6)           -149.4966         estimate D2E/DX2                !
 ! D5    D(9,1,2,3)            149.4351         estimate D2E/DX2                !
 ! D6    D(9,1,2,6)            -30.503          estimate D2E/DX2                !
 ! D7    D(1,2,3,4)           -179.9534         estimate D2E/DX2                !
 ! D8    D(1,2,3,10)             0.0257         estimate D2E/DX2                !
 ! D9    D(6,2,3,4)             -0.0068         estimate D2E/DX2                !
 ! D10   D(6,2,3,10)           179.9723         estimate D2E/DX2                !
 ! D11   D(1,2,6,5)            179.984          estimate D2E/DX2                !
 ! D12   D(3,2,6,5)              0.0318         estimate D2E/DX2                !
 ! D13   D(2,3,4,5)             -0.0217         estimate D2E/DX2                !
 ! D14   D(2,3,4,11)          -179.8868         estimate D2E/DX2                !
 ! D15   D(10,3,4,5)           179.9966         estimate D2E/DX2                !
 ! D16   D(10,3,4,11)            0.1315         estimate D2E/DX2                !
 ! D17   D(3,4,5,6)              0.0427         estimate D2E/DX2                !
 ! D18   D(3,4,5,12)          -179.9097         estimate D2E/DX2                !
 ! D19   D(11,4,5,6)           179.9031         estimate D2E/DX2                !
 ! D20   D(11,4,5,12)           -0.0493         estimate D2E/DX2                !
 ! D21   D(4,5,6,2)             -0.0485         estimate D2E/DX2                !
 ! D22   D(12,5,6,2)           179.9047         estimate D2E/DX2                !
 --------------------------------------------------------------------------------
 Trust Radius=3.00D-01 FncErr=1.00D-07 GrdErr=1.00D-06
 Number of steps in this run=     63 maximum allowed number of steps=    100.
 GradGradGradGradGradGradGradGradGradGradGradGradGradGradGradGradGradGrad

                          Input orientation:                          
 ---------------------------------------------------------------------
 Center     Atomic      Atomic             Coordinates (Angstroms)
 Number     Number       Type             X           Y           Z
 ---------------------------------------------------------------------
      1          6           0       -0.207900    0.298100    0.123300
      2          6           0        0.654900   -0.778400   -0.364000
      3          6           0        1.949900   -0.774000   -0.825900
      4          7           0        2.353700   -2.036600   -1.181300
      5          6           0        1.313300   -2.802000   -0.937100
      6          7           0        0.260300   -2.084400   -0.441600
      7          1           0       -0.087800    0.413800    1.204800
      8          1           0        0.038500    1.247400   -0.363900
      9          1           0       -1.259700    0.085400   -0.095500
     10          1           0        2.644900    0.047100   -0.937200
     11          1           0        3.261200   -2.295700   -1.547100
     12          1           0        1.280000   -3.870300   -1.102200
 ---------------------------------------------------------------------
                    Distance matrix (angstroms):
                    1          2          3          4          5
     1  C    0.000000
     2  C    1.463126   0.000000
     3  C    2.589687   1.374917   0.000000
     4  N    3.703323   2.266488   1.372415   0.000000
     5  C    3.612356   2.203836   2.128476   1.314497   0.000000
     6  N    2.492916   1.366516   2.172460   2.220758   1.367216
     7  H    1.094282   2.105725   3.112368   4.202244   4.110011
     8  H    1.095101   2.117502   2.820098   4.100360   4.283843
     9  H    1.095170   2.117531   3.401997   4.328800   3.957992
    10  H    3.053871   2.229374   1.081489   2.118062   3.144921
    11  H    4.642487   3.239556   2.134293   1.012175   2.103034
    12  H    4.592522   3.239681   3.179966   2.126392   1.081495
                    6          7          8          9         10
     6  N    0.000000
     7  H    3.012111   0.000000
     8  H    3.340078   1.780916   0.000000
     9  H    2.671744   1.781004   1.762840   0.000000
    10  H    3.236546   3.491458   2.926212   3.994475   0.000000
    11  H    3.205024   5.111765   4.933489   5.311809   2.498102
    12  H    2.160004   5.054368   5.317637   4.807399   4.151650
                   11         12
    11  H    0.000000
    12  H    2.569524   0.000000
 Stoichiometry    C4H6N2
 Framework group  C1[X(C4H6N2)]
 Deg. of freedom    30
 Full point group                 C1      NOp   1
 Largest Abelian subgroup         C1      NOp   1
 Largest concise Abelian subgroup C1      NOp   1
                         Standard orientation:                         
 ---------------------------------------------------------------------
 Center     Atomic      Atomic             Coordinates (Angstroms)
 Number     Number       Type             X           Y           Z
 ---------------------------------------------------------------------
      1          6           0       -2.166326    0.013848    0.001294
      2          6           0       -0.703204    0.017278    0.000923
      3          6           0        0.208643    1.046322    0.000238
      4          7           0        1.495215    0.568564   -0.000916
      5          6           0        1.366576   -0.739623   -0.000452
      6          7           0        0.053510   -1.120592    0.000004
      7          1           0       -2.540565    0.012339    1.029592
      8          1           0       -2.559409    0.894646   -0.517289
      9          1           0       -2.555266   -0.868190   -0.518449
     10          1           0        0.048916    2.115950    0.000178
     11          1           0        2.341531    1.123765    0.000019
     12          1           0        2.189579   -1.441262    0.000310
 ---------------------------------------------------------------------
 Rotational constants (GHZ):      9.5664421      3.4130027      2.5564866
 Standard basis: 6-31+G(d) (6D, 7F)
 There are   126 symmetry adapted cartesian basis functions of A   symmetry.
 There are   126 symmetry adapted basis functions of A   symmetry.
   126 basis functions,   216 primitive gaussians,   126 cartesian basis functions
    22 alpha electrons       22 beta electrons
       nuclear repulsion energy       224.6917549769 Hartrees.
 NAtoms=   12 NActive=   12 NUniq=   12 SFac= 1.00D+00 NAtFMM=   60 NAOKFM=F Big=F
 Integral buffers will be    131072 words long.
 Raffenetti 2 integral format.
 Two-electron integral symmetry is turned on.
 One-electron integrals computed using PRISM.
 NBasis=   126 RedAO= T EigKep=  1.79D-05  NBF=   126
 NBsUse=   126 1.00D-06 EigRej= -1.00D+00 NBFU=   126
 ExpMin= 4.38D-02 ExpMax= 4.17D+03 ExpMxC= 6.27D+02 IAcc=2 IRadAn=         4 AccDes= 0.00D+00
 Harris functional with IExCor= 1009 and IRadAn=       4 diagonalized for initial guess.
 HarFok:  IExCor= 1009 AccDes= 0.00D+00 IRadAn=         4 IDoV= 1 UseB2=F ITyADJ=14
 ICtDFT=  3500011 ScaDFX=  1.000000  1.000000  1.000000  1.000000
 FoFCou: FMM=F IPFlag=           0 FMFlag=      100000 FMFlg1=           0
         NFxFlg=           0 DoJE=T BraDBF=F KetDBF=T FulRan=T
         wScrn=  0.000000 ICntrl=     500 IOpCl=  0 I1Cent=   200000004 NGrid=           0
         NMat0=    1 NMatS0=      1 NMatT0=    0 NMatD0=    1 NMtDS0=    0 NMtDT0=    0
 Petite list used in FoFCou.
 Keep R1 ints in memory in canonical form, NReq=33104011.
 Requested convergence on RMS density matrix=1.00D-08 within 128 cycles.
 Requested convergence on MAX density matrix=1.00D-06.
 Requested convergence on             energy=1.00D-06.
 No special actions if energy rises.
 SCF Done:  E(RM062X) =  -265.417705505     A.U. after   13 cycles
            NFock= 13  Conv=0.71D-08     -V/T= 2.0084

 **********************************************************************

            Population analysis using the SCF density.

 **********************************************************************

 Orbital symmetries:
       Occupied  (A) (A) (A) (A) (A) (A) (A) (A) (A) (A) (A) (A)
                 (A) (A) (A) (A) (A) (A) (A) (A) (A) (A)
       Virtual   (A) (A) (A) (A) (A) (A) (A) (A) (A) (A) (A) (A)
                 (A) (A) (A) (A) (A) (A) (A) (A) (A) (A) (A) (A)
                 (A) (A) (A) (A) (A) (A) (A) (A) (A) (A) (A) (A)
                 (A) (A) (A) (A) (A) (A) (A) (A) (A) (A) (A) (A)
                 (A) (A) (A) (A) (A) (A) (A) (A) (A) (A) (A) (A)
                 (A) (A) (A) (A) (A) (A) (A) (A) (A) (A) (A) (A)
                 (A) (A) (A) (A) (A) (A) (A) (A) (A) (A) (A) (A)
                 (A) (A) (A) (A) (A) (A) (A) (A) (A) (A) (A) (A)
                 (A) (A) (A) (A) (A) (A) (A) (A)
 The electronic state is 1-A.
 Alpha  occ. eigenvalues --  -14.83090 -14.73828 -10.60266 -10.57118 -10.56557
 Alpha  occ. eigenvalues --  -10.53836  -1.13822  -0.97686  -0.85916  -0.79359
 Alpha  occ. eigenvalues --   -0.70709  -0.64632  -0.63217  -0.52150  -0.52081
 Alpha  occ. eigenvalues --   -0.49257  -0.47317  -0.46527  -0.43460  -0.33454
 Alpha  occ. eigenvalues --   -0.32659  -0.27234
 Alpha virt. eigenvalues --    0.00789   0.03135   0.03890   0.03923   0.05391
 Alpha virt. eigenvalues --    0.06372   0.07310   0.07451   0.08457   0.09474
 Alpha virt. eigenvalues --    0.10035   0.11670   0.12323   0.13709   0.14585
 Alpha virt. eigenvalues --    0.14868   0.16955   0.18358   0.20081   0.21178
 Alpha virt. eigenvalues --    0.22125   0.22566   0.24752   0.25741   0.26935
 Alpha virt. eigenvalues --    0.27297   0.28040   0.29881   0.30875   0.31389
 Alpha virt. eigenvalues --    0.32884   0.34515   0.37512   0.38495   0.39946
 Alpha virt. eigenvalues --    0.49617   0.51748   0.55363   0.70878   0.72678
 Alpha virt. eigenvalues --    0.73384   0.74444   0.76498   0.79973   0.81571
 Alpha virt. eigenvalues --    0.83679   0.85749   0.91162   0.93170   0.96629
 Alpha virt. eigenvalues --    0.98377   0.98865   1.02678   1.04782   1.05432
 Alpha virt. eigenvalues --    1.07936   1.08068   1.11090   1.13968   1.18482
 Alpha virt. eigenvalues --    1.19781   1.23057   1.30084   1.32104   1.36843
 Alpha virt. eigenvalues --    1.38625   1.41236   1.43604   1.51503   1.53306
 Alpha virt. eigenvalues --    1.60960   1.63932   1.64812   1.80249   1.91741
 Alpha virt. eigenvalues --    1.93449   1.98585   2.06740   2.12509   2.16733
 Alpha virt. eigenvalues --    2.20883   2.25897   2.27786   2.30079   2.34806
 Alpha virt. eigenvalues --    2.38460   2.41326   2.44405   2.48791   2.56540
 Alpha virt. eigenvalues --    2.63707   2.73929   2.77353   2.80712   2.83927
 Alpha virt. eigenvalues --    3.06261   3.11214   3.16125   4.10640   4.20616
 Alpha virt. eigenvalues --    4.28463   4.35487   4.43624   4.60506
          Condensed to atoms (all electrons):
               1          2          3          4          5          6
     1  C    6.930319  -0.518298  -0.505423  -0.055715   0.065513  -0.292379
     2  C   -0.518298   6.093451   0.028164  -0.246260   0.251558   0.377158
     3  C   -0.505423   0.028164   6.321729   0.547310  -0.712391   0.122146
     4  N   -0.055715  -0.246260   0.547310   6.973959   0.194715  -0.029581
     5  C    0.065513   0.251558  -0.712391   0.194715   5.315329   0.371952
     6  N   -0.292379   0.377158   0.122146  -0.029581   0.371952   6.814646
     7  H    0.397581  -0.031189  -0.021712   0.000088  -0.002208  -0.003938
     8  H    0.436650  -0.126058   0.026191   0.000303  -0.001109   0.008227
     9  H    0.432766  -0.080373   0.001000  -0.000484  -0.001903  -0.000081
    10  H    0.004842   0.022569   0.309884  -0.053076   0.025899   0.004213
    11  H    0.004135   0.009729  -0.014685   0.255303  -0.014956   0.007632
    12  H    0.015779   0.042056  -0.017301  -0.080578   0.397251  -0.051437
               7          8          9         10         11         12
     1  C    0.397581   0.436650   0.432766   0.004842   0.004135   0.015779
     2  C   -0.031189  -0.126058  -0.080373   0.022569   0.009729   0.042056
     3  C   -0.021712   0.026191   0.001000   0.309884  -0.014685  -0.017301
     4  N    0.000088   0.000303  -0.000484  -0.053076   0.255303  -0.080578
     5  C   -0.002208  -0.001109  -0.001903   0.025899  -0.014956   0.397251
     6  N   -0.003938   0.008227  -0.000081   0.004213   0.007632  -0.051437
     7  H    0.481789  -0.027167  -0.023933   0.000092   0.000002   0.000003
     8  H   -0.027167   0.495390  -0.025330   0.000573  -0.000006   0.000002
     9  H   -0.023933  -0.025330   0.461981  -0.000031   0.000002  -0.000007
    10  H    0.000092   0.000573  -0.000031   0.477930  -0.001321  -0.000046
    11  H    0.000002  -0.000006   0.000002  -0.001321   0.308421   0.000334
    12  H    0.000003   0.000002  -0.000007  -0.000046   0.000334   0.479766
 Mulliken charges:
               1
     1  C   -0.915771
     2  C    0.177494
     3  C   -0.084913
     4  N   -0.505985
     5  C    0.110349
     6  N   -0.328557
     7  H    0.230594
     8  H    0.212334
     9  H    0.236394
    10  H    0.208472
    11  H    0.445410
    12  H    0.214179
 Sum of Mulliken charges =   0.00000
 Mulliken charges with hydrogens summed into heavy atoms:
               1
     1  C   -0.236448
     2  C    0.177494
     3  C    0.123559
     4  N   -0.060575
     5  C    0.324527
     6  N   -0.328557
 Electronic spatial extent (au):  <R**2>=            504.0302
 Charge=              0.0000 electrons
 Dipole moment (field-independent basis, Debye):
    X=              2.2192    Y=              2.9316    Z=              0.0070  Tot=              3.6768
 Quadrupole moment (field-independent basis, Debye-Ang):
   XX=            -25.8549   YY=            -37.1906   ZZ=            -38.7494
   XY=              1.0606   XZ=              0.0687   YZ=              0.0307
 Traceless Quadrupole moment (field-independent basis, Debye-Ang):
   XX=              8.0767   YY=             -3.2589   ZZ=             -4.8178
   XY=              1.0606   XZ=              0.0687   YZ=              0.0307
 Octapole moment (field-independent basis, Debye-Ang**2):
  XXX=             22.2253  YYY=             13.6484  ZZZ=              0.6956  XYY=              8.2467
  XXY=              3.3315  XXZ=             -0.2822  XZZ=             -1.1841  YZZ=             -0.0823
  YYZ=             -0.6706  XYZ=             -0.0702
 Hexadecapole moment (field-independent basis, Debye-Ang**3):
 XXXX=           -400.8766 YYYY=           -188.9888 ZZZZ=            -50.9561 XXXY=             16.2932
 XXXZ=              1.0581 YYYX=              2.0640 YYYZ=              0.0343 ZZZX=             -1.6713
 ZZZY=              0.0641 XXYY=            -88.5086 XXZZ=            -85.5219 YYZZ=            -43.9192
 XXYZ=              0.2071 YYXZ=              1.8428 ZZXY=              1.3872
 N-N= 2.246917549769D+02 E-N=-1.065531166444D+03  KE= 2.631989428649D+02
 Calling FoFJK, ICntrl=      2127 FMM=F ISym2X=0 I1Cent= 0 IOpClX= 0 NMat=1 NMatS=1 NMatT=0.
 ***** Axes restored to original set *****
 -------------------------------------------------------------------
 Center     Atomic                   Forces (Hartrees/Bohr)
 Number     Number              X              Y              Z
 -------------------------------------------------------------------
      1        6          -0.008847550    0.015038216    0.003961064
      2        6           0.032191185   -0.041545250   -0.022140161
      3        6           0.025316333    0.042551750   -0.002289685
      4        7           0.008350455    0.027276267    0.002331854
      5        6          -0.070560674   -0.008502278    0.024353291
      6        7           0.015668090   -0.038310920   -0.011681463
      7        1          -0.002798892    0.002283352    0.000652272
      8        1           0.001058713    0.000363209    0.002577653
      9        1           0.001919297   -0.002239349    0.001560544
     10        1           0.000130605    0.001800362   -0.000036889
     11        1          -0.003043660    0.000448494    0.001021682
     12        1           0.000616098    0.000836147   -0.000310162
 -------------------------------------------------------------------
 Cartesian Forces:  Max     0.070560674 RMS     0.019992955

 GradGradGradGradGradGradGradGradGradGradGradGradGradGradGradGradGradGrad
 Berny optimization.
 FormGI is forming the generalized inverse of G from B-inverse, IUseBI=4.
 Internal  Forces:  Max     0.050824107 RMS     0.013045480
 Search for a local minimum.
 Step number   1 out of a maximum of   63
 All quantities printed in internal units (Hartrees-Bohrs-Radians)
 Mixed Optimization -- RFO/linear search
 Second derivative matrix not updated -- first step.
 ITU=  0
     Eigenvalues ---    0.01254   0.01739   0.02211   0.02253   0.02405
     Eigenvalues ---    0.02452   0.02629   0.07582   0.07600   0.16000
     Eigenvalues ---    0.16000   0.16000   0.16000   0.16000   0.16000
     Eigenvalues ---    0.22186   0.23985   0.25000   0.34222   0.34230
     Eigenvalues ---    0.34322   0.35814   0.35815   0.36576   0.44450
     Eigenvalues ---    0.45610   0.46384   0.50948   0.51040   0.60639
 RFO step:  Lambda=-2.36773501D-02 EMin= 1.25372118D-02
 Linear search not attempted -- first point.
 Iteration  1 RMS(Cart)=  0.04518815 RMS(Int)=  0.00115153
 Iteration  2 RMS(Cart)=  0.00161376 RMS(Int)=  0.00028998
 Iteration  3 RMS(Cart)=  0.00000057 RMS(Int)=  0.00028998
 Variable       Old X    -DE/DX   Delta X   Delta X   Delta X     New X
                                 (Linear)    (Quad)   (Total)
    R1        2.76491   0.01939   0.00000   0.04979   0.04979   2.81470
    R2        2.06789   0.00058   0.00000   0.00157   0.00157   2.06947
    R3        2.06944  -0.00060   0.00000  -0.00163  -0.00163   2.06782
    R4        2.06957  -0.00172   0.00000  -0.00469  -0.00469   2.06488
    R5        2.59822  -0.00283   0.00000  -0.00405  -0.00346   2.59475
    R6        2.58234   0.01630   0.00000   0.02707   0.02720   2.60954
    R7        2.59349  -0.00298   0.00000  -0.00177  -0.00153   2.59195
    R8        2.04372   0.00146   0.00000   0.00381   0.00381   2.04753
    R9        2.48404   0.04660   0.00000   0.07178   0.07134   2.55538
   R10        1.91273  -0.00321   0.00000  -0.00670  -0.00670   1.90604
   R11        2.58366  -0.05082   0.00000  -0.09734  -0.09787   2.48580
   R12        2.04373  -0.00080   0.00000  -0.00209  -0.00209   2.04164
    A1        1.92009   0.00486   0.00000   0.02475   0.02473   1.94482
    A2        1.93579   0.00121   0.00000   0.00891   0.00887   1.94465
    A3        1.93575  -0.00356   0.00000  -0.02003  -0.01994   1.91581
    A4        1.90006  -0.00284   0.00000  -0.01421  -0.01435   1.88571
    A5        1.90011  -0.00195   0.00000  -0.01507  -0.01496   1.88515
    A6        1.87085   0.00212   0.00000   0.01477   0.01482   1.88567
    A7        2.29823  -0.01606   0.00000  -0.05811  -0.05845   2.23978
    A8        2.15532  -0.01411   0.00000  -0.05099  -0.05132   2.10399
    A9        1.82964   0.03018   0.00000   0.10911   0.10975   1.93938
   A10        1.94033  -0.03429   0.00000  -0.12837  -0.12756   1.81277
   A11        2.26827   0.01608   0.00000   0.05842   0.05801   2.32628
   A12        2.07459   0.01820   0.00000   0.06996   0.06955   2.14414
   A13        1.82834   0.01467   0.00000   0.07276   0.07264   1.90097
   A14        2.20544  -0.00695   0.00000  -0.03425  -0.03419   2.17125
   A15        2.24941  -0.00773   0.00000  -0.03851  -0.03845   2.21097
   A16        1.95120  -0.00262   0.00000  -0.01159  -0.01239   1.93881
   A17        2.17874   0.00059   0.00000   0.00187   0.00227   2.18101
   A18        2.15324   0.00203   0.00000   0.00973   0.01012   2.16337
   A19        1.87528  -0.00795   0.00000  -0.04191  -0.04244   1.83283
    D1       -1.57185  -0.00080   0.00000  -0.01115  -0.01144  -1.58329
    D2        1.57082  -0.00120   0.00000  -0.02069  -0.02061   1.55021
    D3        0.53130  -0.00037   0.00000  -0.00687  -0.00698   0.52433
    D4       -2.60921  -0.00077   0.00000  -0.01641  -0.01615  -2.62536
    D5        2.60813   0.00075   0.00000   0.00440   0.00424   2.61238
    D6       -0.53238   0.00035   0.00000  -0.00514  -0.00493  -0.53731
    D7       -3.14078  -0.00058   0.00000  -0.01303  -0.01310   3.12931
    D8        0.00045  -0.00041   0.00000  -0.00942  -0.00959  -0.00914
    D9       -0.00012  -0.00025   0.00000  -0.00486  -0.00469  -0.00481
   D10        3.14111  -0.00008   0.00000  -0.00126  -0.00119   3.13992
   D11        3.14131   0.00050   0.00000   0.01121   0.01160  -3.13027
   D12        0.00056   0.00021   0.00000   0.00391   0.00396   0.00451
   D13       -0.00038   0.00020   0.00000   0.00386   0.00366   0.00328
   D14       -3.13962   0.00002   0.00000   0.00025   0.00009  -3.13953
   D15        3.14153   0.00005   0.00000   0.00070   0.00062  -3.14103
   D16        0.00229  -0.00013   0.00000  -0.00291  -0.00295  -0.00066
   D17        0.00074  -0.00005   0.00000  -0.00124  -0.00138  -0.00063
   D18       -3.14002  -0.00023   0.00000  -0.00460  -0.00455   3.13862
   D19        3.13990   0.00014   0.00000   0.00251   0.00231  -3.14097
   D20       -0.00086  -0.00004   0.00000  -0.00085  -0.00086  -0.00172
   D21       -0.00085  -0.00008   0.00000  -0.00168  -0.00147  -0.00231
   D22        3.13993   0.00009   0.00000   0.00162   0.00167  -3.14159
         Item               Value     Threshold  Converged?
 Maximum Force            0.050824     0.000450     NO 
 RMS     Force            0.013045     0.000300     NO 
 Maximum Displacement     0.129422     0.001800     NO 
 RMS     Displacement     0.045376     0.001200     NO 
 Predicted change in Energy=-1.270427D-02
 GradGradGradGradGradGradGradGradGradGradGradGradGradGradGradGradGradGrad

                          Input orientation:                          
 ---------------------------------------------------------------------
 Center     Atomic      Atomic             Coordinates (Angstroms)
 Number     Number       Type             X           Y           Z
 ---------------------------------------------------------------------
      1          6           0       -0.187953    0.275467    0.115160
      2          6           0        0.697464   -0.810067   -0.390985
      3          6           0        1.992014   -0.713965   -0.838495
      4          7           0        2.323842   -2.004372   -1.164125
      5          6           0        1.262665   -2.805448   -0.917649
      6          7           0        0.247566   -2.114473   -0.445978
      7          1           0       -0.095571    0.394044    1.199910
      8          1           0        0.050001    1.235818   -0.352245
      9          1           0       -1.230216    0.037965   -0.111208
     10          1           0        2.680230    0.115587   -0.948885
     11          1           0        3.220743   -2.287554   -1.528428
     12          1           0        1.240515   -3.872603   -1.084772
 ---------------------------------------------------------------------
                    Distance matrix (angstroms):
                    1          2          3          4          5
     1  C    0.000000
     2  C    1.489474   0.000000
     3  C    2.576953   1.373084   0.000000
     4  N    3.625376   2.160836   1.371603   0.000000
     5  C    3.558514   2.139713   2.216420   1.352247   0.000000
     6  N    2.493264   1.380908   2.271253   2.199723   1.315426
     7  H    1.095115   2.147030   3.121024   4.146640   4.070088
     8  H    1.094241   2.146242   2.794549   4.040833   4.257002
     9  H    1.092686   2.124473   3.387788   4.232151   3.866497
    10  H    3.063369   2.258196   1.083506   2.160455   3.246986
    11  H    4.570521   3.137463   2.112336   1.008632   2.115498
    12  H    4.548279   3.186749   3.256133   2.161061   1.080389
                    6          7          8          9         10
     6  N    0.000000
     7  H    3.019826   0.000000
     8  H    3.357420   1.771711   0.000000
     9  H    2.632281   1.770097   1.769719   0.000000
    10  H    3.338254   3.521354   2.920446   3.999915   0.000000
    11  H    3.168822   5.062878   4.883765   5.218006   2.530437
    12  H    2.117788   5.020874   5.296214   4.727038   4.242276
                   11         12
    11  H    0.000000
    12  H    2.574978   0.000000
 Stoichiometry    C4H6N2
 Framework group  C1[X(C4H6N2)]
 Deg. of freedom    30
 Full point group                 C1      NOp   1
 Largest Abelian subgroup         C1      NOp   1
 Largest concise Abelian subgroup C1      NOp   1
                         Standard orientation:                         
 ---------------------------------------------------------------------
 Center     Atomic      Atomic             Coordinates (Angstroms)
 Number     Number       Type             X           Y           Z
 ---------------------------------------------------------------------
      1          6           0       -2.135444   -0.018309    0.004129
      2          6           0       -0.646522    0.021366   -0.004091
      3          6           0        0.176076    1.120772   -0.003600
      4          7           0        1.439184    0.586161    0.003130
      5          6           0        1.344330   -0.762754    0.002159
      6          7           0        0.086819   -1.148727   -0.004073
      7          1           0       -2.529320   -0.046460    1.025572
      8          1           0       -2.561265    0.854918   -0.499373
      9          1           0       -2.484175   -0.913031   -0.517237
     10          1           0       -0.010389    2.188111   -0.004773
     11          1           0        2.288364    1.130421    0.006942
     12          1           0        2.184126   -1.442445    0.003890
 ---------------------------------------------------------------------
 Rotational constants (GHZ):      8.9156002      3.5656081      2.5882652
 Standard basis: 6-31+G(d) (6D, 7F)
 There are   126 symmetry adapted cartesian basis functions of A   symmetry.
 There are   126 symmetry adapted basis functions of A   symmetry.
   126 basis functions,   216 primitive gaussians,   126 cartesian basis functions
    22 alpha electrons       22 beta electrons
       nuclear repulsion energy       224.7923359076 Hartrees.
 NAtoms=   12 NActive=   12 NUniq=   12 SFac= 1.00D+00 NAtFMM=   60 NAOKFM=F Big=F
 Integral buffers will be    131072 words long.
 Raffenetti 2 integral format.
 Two-electron integral symmetry is turned on.
 One-electron integrals computed using PRISM.
 NBasis=   126 RedAO= T EigKep=  1.99D-05  NBF=   126
 NBsUse=   126 1.00D-06 EigRej= -1.00D+00 NBFU=   126
 Initial guess from the checkpoint file:  "/srv/scratch/z5358697/gauss/Gau-3811647.chk"
 B after Tr=     0.000000    0.000000    0.000000
         Rot=    0.999974   -0.000549    0.000285   -0.007152 Ang=  -0.82 deg.
 ExpMin= 4.38D-02 ExpMax= 4.17D+03 ExpMxC= 6.27D+02 IAcc=2 IRadAn=         4 AccDes= 0.00D+00
 Harris functional with IExCor= 1009 and IRadAn=       4 diagonalized for initial guess.
 HarFok:  IExCor= 1009 AccDes= 0.00D+00 IRadAn=         4 IDoV= 1 UseB2=F ITyADJ=14
 ICtDFT=  3500011 ScaDFX=  1.000000  1.000000  1.000000  1.000000
 FoFCou: FMM=F IPFlag=           0 FMFlag=      100000 FMFlg1=           0
         NFxFlg=           0 DoJE=T BraDBF=F KetDBF=T FulRan=T
         wScrn=  0.000000 ICntrl=     500 IOpCl=  0 I1Cent=   200000004 NGrid=           0
         NMat0=    1 NMatS0=      1 NMatT0=    0 NMatD0=    1 NMtDS0=    0 NMtDT0=    0
 Petite list used in FoFCou.
 Keep R1 ints in memory in canonical form, NReq=33104011.
 Requested convergence on RMS density matrix=1.00D-08 within 128 cycles.
 Requested convergence on MAX density matrix=1.00D-06.
 Requested convergence on             energy=1.00D-06.
 No special actions if energy rises.
 SCF Done:  E(RM062X) =  -265.427633427     A.U. after   12 cycles
            NFock= 12  Conv=0.70D-08     -V/T= 2.0085
 Calling FoFJK, ICntrl=      2127 FMM=F ISym2X=0 I1Cent= 0 IOpClX= 0 NMat=1 NMatS=1 NMatT=0.
 ***** Axes restored to original set *****
 -------------------------------------------------------------------
 Center     Atomic                   Forces (Hartrees/Bohr)
 Number     Number              X              Y              Z
 -------------------------------------------------------------------
      1        6          -0.002670896    0.004487938    0.000695396
      2        6          -0.007010763    0.002541718    0.001494679
      3        6          -0.007313217   -0.003760194    0.002150321
      4        7           0.017148894   -0.004947892   -0.006594773
      5        6          -0.009984941    0.002042842    0.004110590
      6        7           0.007809299    0.005611818   -0.001071038
      7        1          -0.000723853   -0.000078360    0.000334247
      8        1           0.000689502    0.000164971    0.000743108
      9        1          -0.000139708   -0.000372088    0.000383650
     10        1          -0.002377681   -0.002552862    0.000260913
     11        1           0.000214033   -0.002854658   -0.000759951
     12        1           0.004359332   -0.000283233   -0.001747142
 -------------------------------------------------------------------
 Cartesian Forces:  Max     0.017148894 RMS     0.004653107

 GradGradGradGradGradGradGradGradGradGradGradGradGradGradGradGradGradGrad
 Berny optimization.
 Using GEDIIS/GDIIS optimizer.
 FormGI is forming the generalized inverse of G from B-inverse, IUseBI=4.
 Internal  Forces:  Max     0.009369842 RMS     0.003219648
 Search for a local minimum.
 Step number   2 out of a maximum of   63
 All quantities printed in internal units (Hartrees-Bohrs-Radians)
 Mixed Optimization -- RFO/linear search
 Update second derivatives using D2CorX and points    1    2
 DE= -9.93D-03 DEPred=-1.27D-02 R= 7.81D-01
 TightC=F SS=  1.41D+00  RLast= 2.71D-01 DXNew= 5.0454D-01 8.1433D-01
 Trust test= 7.81D-01 RLast= 2.71D-01 DXMaxT set to 5.05D-01
 ITU=  1  0
 Use linear search instead of GDIIS.
     Eigenvalues ---    0.01253   0.01773   0.02211   0.02255   0.02420
     Eigenvalues ---    0.02456   0.02626   0.07442   0.07630   0.15692
     Eigenvalues ---    0.16000   0.16000   0.16000   0.16000   0.16064
     Eigenvalues ---    0.22931   0.24995   0.31012   0.34223   0.34229
     Eigenvalues ---    0.34320   0.35400   0.35816   0.36072   0.44035
     Eigenvalues ---    0.45422   0.45654   0.51003   0.52751   0.59418
 RFO step:  Lambda=-1.15107988D-03 EMin= 1.25291778D-02
 Quartic linear search produced a step of -0.14221.
 Iteration  1 RMS(Cart)=  0.01871828 RMS(Int)=  0.00016106
 Iteration  2 RMS(Cart)=  0.00017669 RMS(Int)=  0.00005720
 Iteration  3 RMS(Cart)=  0.00000002 RMS(Int)=  0.00005720
 Variable       Old X    -DE/DX   Delta X   Delta X   Delta X     New X
                                 (Linear)    (Quad)   (Total)
    R1        2.81470   0.00549  -0.00708   0.02293   0.01585   2.83055
    R2        2.06947   0.00026  -0.00022   0.00098   0.00075   2.07022
    R3        2.06782  -0.00003   0.00023  -0.00041  -0.00017   2.06764
    R4        2.06488   0.00014   0.00067  -0.00061   0.00006   2.06494
    R5        2.59475   0.00225   0.00049   0.00255   0.00296   2.59771
    R6        2.60954  -0.00457  -0.00387  -0.00326  -0.00717   2.60237
    R7        2.59195   0.00653   0.00022   0.01163   0.01184   2.60379
    R8        2.04753  -0.00349  -0.00054  -0.00755  -0.00810   2.03943
    R9        2.55538   0.00171  -0.01014   0.01730   0.00724   2.56261
   R10        1.90604   0.00127   0.00095   0.00103   0.00199   1.90803
   R11        2.48580   0.00171   0.01392  -0.01686  -0.00288   2.48291
   R12        2.04164   0.00046   0.00030   0.00067   0.00097   2.04261
    A1        1.94482   0.00040  -0.00352   0.00620   0.00268   1.94751
    A2        1.94465   0.00008  -0.00126   0.00355   0.00229   1.94695
    A3        1.91581  -0.00021   0.00284  -0.00534  -0.00252   1.91329
    A4        1.88571  -0.00033   0.00204  -0.00512  -0.00306   1.88265
    A5        1.88515  -0.00055   0.00213  -0.00857  -0.00647   1.87869
    A6        1.88567   0.00060  -0.00211   0.00905   0.00693   1.89260
    A7        2.23978   0.00341   0.00831   0.00088   0.00922   2.24901
    A8        2.10399   0.00399   0.00730   0.00433   0.01165   2.11565
    A9        1.93938  -0.00740  -0.01561  -0.00531  -0.02105   1.91833
   A10        1.81277   0.00872   0.01814   0.00796   0.02601   1.83878
   A11        2.32628  -0.00453  -0.00825  -0.00611  -0.01431   2.31196
   A12        2.14414  -0.00420  -0.00989  -0.00184  -0.01169   2.13245
   A13        1.90097  -0.00937  -0.01033  -0.01730  -0.02757   1.87341
   A14        2.17125   0.00722   0.00486   0.02260   0.02742   2.19867
   A15        2.21097   0.00215   0.00547  -0.00530   0.00014   2.21110
   A16        1.93881   0.00227   0.00176   0.00756   0.00945   1.94825
   A17        2.18101  -0.00592  -0.00032  -0.03013  -0.03052   2.15049
   A18        2.16337   0.00366  -0.00144   0.02256   0.02105   2.18442
   A19        1.83283   0.00579   0.00604   0.00711   0.01318   1.84601
    D1       -1.58329  -0.00036   0.00163  -0.02200  -0.02028  -1.60357
    D2        1.55021  -0.00067   0.00293  -0.03886  -0.03599   1.51422
    D3        0.52433  -0.00045   0.00099  -0.02180  -0.02074   0.50358
    D4       -2.62536  -0.00076   0.00230  -0.03866  -0.03645  -2.66181
    D5        2.61238   0.00021  -0.00060  -0.01174  -0.01227   2.60011
    D6       -0.53731  -0.00010   0.00070  -0.02860  -0.02798  -0.56529
    D7        3.12931  -0.00014   0.00186  -0.01170  -0.00976   3.11955
    D8       -0.00914  -0.00027   0.00136  -0.01495  -0.01348  -0.02263
    D9       -0.00481   0.00011   0.00067   0.00383   0.00442  -0.00039
   D10        3.13992  -0.00002   0.00017   0.00058   0.00070   3.14062
   D11       -3.13027   0.00012  -0.00165   0.01046   0.00873  -3.12155
   D12        0.00451  -0.00010  -0.00056  -0.00370  -0.00418   0.00033
   D13        0.00328  -0.00008  -0.00052  -0.00251  -0.00299   0.00029
   D14       -3.13953  -0.00016  -0.00001  -0.00623  -0.00623   3.13742
   D15       -3.14103   0.00003  -0.00009   0.00029   0.00024  -3.14079
   D16       -0.00066  -0.00006   0.00042  -0.00343  -0.00300  -0.00366
   D17       -0.00063   0.00003   0.00020   0.00032   0.00053  -0.00010
   D18        3.13862  -0.00008   0.00065  -0.00399  -0.00330   3.13532
   D19       -3.14097   0.00011  -0.00033   0.00412   0.00378  -3.13719
   D20       -0.00172   0.00000   0.00012  -0.00019  -0.00005  -0.00177
   D21       -0.00231   0.00003   0.00021   0.00201   0.00217  -0.00014
   D22       -3.14159   0.00015  -0.00024   0.00635   0.00618  -3.13541
         Item               Value     Threshold  Converged?
 Maximum Force            0.009370     0.000450     NO 
 RMS     Force            0.003220     0.000300     NO 
 Maximum Displacement     0.047559     0.001800     NO 
 RMS     Displacement     0.018705     0.001200     NO 
 Predicted change in Energy=-8.681859D-04
 GradGradGradGradGradGradGradGradGradGradGradGradGradGradGradGradGradGrad

                          Input orientation:                          
 ---------------------------------------------------------------------
 Center     Atomic      Atomic             Coordinates (Angstroms)
 Number     Number       Type             X           Y           Z
 ---------------------------------------------------------------------
      1          6           0       -0.196716    0.287992    0.119631
      2          6           0        0.689211   -0.805015   -0.394233
      3          6           0        1.985420   -0.724465   -0.844802
      4          7           0        2.338953   -2.015478   -1.171633
      5          6           0        1.267942   -2.805766   -0.912169
      6          7           0        0.256060   -2.111325   -0.442934
      7          1           0       -0.120580    0.390439    1.207683
      8          1           0        0.056608    1.254138   -0.327078
      9          1           0       -1.238131    0.059154   -0.119370
     10          1           0        2.666622    0.104654   -0.959882
     11          1           0        3.231433   -2.310836   -1.540013
     12          1           0        1.264476   -3.873094   -1.082899
 ---------------------------------------------------------------------
                    Distance matrix (angstroms):
                    1          2          3          4          5
     1  C    0.000000
     2  C    1.497861   0.000000
     3  C    2.591702   1.374648   0.000000
     4  N    3.661004   2.188885   1.377867   0.000000
     5  C    3.575076   2.146204   2.202527   1.356075   0.000000
     6  N    2.505635   1.377112   2.252902   2.208763   1.313901
     7  H    1.095513   2.156619   3.144987   4.183166   4.078908
     8  H    1.094148   2.155181   2.811268   4.075875   4.276971
     9  H    1.092719   2.130020   3.395820   4.266952   3.888020
    10  H    3.065561   2.248913   1.079222   2.155729   3.229416
    11  H    4.610914   3.169101   2.133644   1.009684   2.120009
    12  H    4.571192   3.196607   3.238875   2.147815   1.080902
                    6          7          8          9         10
     6  N    0.000000
     7  H    3.020797   0.000000
     8  H    3.373358   1.769989   0.000000
     9  H    2.654859   1.766278   1.774114   0.000000
    10  H    3.314908   3.542387   2.921289   3.994450   0.000000
    11  H    3.177457   5.107123   4.925420   5.254720   2.547579
    12  H    2.128448   5.034169   5.321533   4.759622   4.219434
                   11         12
    11  H    0.000000
    12  H    2.553139   0.000000
 Stoichiometry    C4H6N2
 Framework group  C1[X(C4H6N2)]
 Deg. of freedom    30
 Full point group                 C1      NOp   1
 Largest Abelian subgroup         C1      NOp   1
 Largest concise Abelian subgroup C1      NOp   1
                         Standard orientation:                         
 ---------------------------------------------------------------------
 Center     Atomic      Atomic             Coordinates (Angstroms)
 Number     Number       Type             X           Y           Z
 ---------------------------------------------------------------------
      1          6           0       -2.152463   -0.009463    0.005446
      2          6           0       -0.654990    0.020985   -0.009834
      3          6           0        0.185632    1.108634   -0.004085
      4          7           0        1.459994    0.584766    0.004842
      5          6           0        1.341621   -0.766133    0.003768
      6          7           0        0.082633   -1.141911   -0.005088
      7          1           0       -2.544019   -0.064650    1.027104
      8          1           0       -2.577423    0.879994   -0.469357
      9          1           0       -2.507097   -0.891575   -0.533206
     10          1           0        0.001316    2.171999   -0.005939
     11          1           0        2.319236    1.115008    0.007367
     12          1           0        2.190800   -1.434896    0.003986
 ---------------------------------------------------------------------
 Rotational constants (GHZ):      9.0167956      3.5102283      2.5670297
 Standard basis: 6-31+G(d) (6D, 7F)
 There are   126 symmetry adapted cartesian basis functions of A   symmetry.
 There are   126 symmetry adapted basis functions of A   symmetry.
   126 basis functions,   216 primitive gaussians,   126 cartesian basis functions
    22 alpha electrons       22 beta electrons
       nuclear repulsion energy       224.3085572332 Hartrees.
 NAtoms=   12 NActive=   12 NUniq=   12 SFac= 1.00D+00 NAtFMM=   60 NAOKFM=F Big=F
 Integral buffers will be    131072 words long.
 Raffenetti 2 integral format.
 Two-electron integral symmetry is turned on.
 One-electron integrals computed using PRISM.
 NBasis=   126 RedAO= T EigKep=  2.04D-05  NBF=   126
 NBsUse=   126 1.00D-06 EigRej= -1.00D+00 NBFU=   126
 Initial guess from the checkpoint file:  "/srv/scratch/z5358697/gauss/Gau-3811647.chk"
 B after Tr=     0.000000    0.000000    0.000000
         Rot=    0.999997   -0.001239   -0.000061    0.002159 Ang=  -0.29 deg.
 ExpMin= 4.38D-02 ExpMax= 4.17D+03 ExpMxC= 6.27D+02 IAcc=2 IRadAn=         4 AccDes= 0.00D+00
 Harris functional with IExCor= 1009 and IRadAn=       4 diagonalized for initial guess.
 HarFok:  IExCor= 1009 AccDes= 0.00D+00 IRadAn=         4 IDoV= 1 UseB2=F ITyADJ=14
 ICtDFT=  3500011 ScaDFX=  1.000000  1.000000  1.000000  1.000000
 FoFCou: FMM=F IPFlag=           0 FMFlag=      100000 FMFlg1=           0
         NFxFlg=           0 DoJE=T BraDBF=F KetDBF=T FulRan=T
         wScrn=  0.000000 ICntrl=     500 IOpCl=  0 I1Cent=   200000004 NGrid=           0
         NMat0=    1 NMatS0=      1 NMatT0=    0 NMatD0=    1 NMtDS0=    0 NMtDT0=    0
 Petite list used in FoFCou.
 Keep R1 ints in memory in canonical form, NReq=33104011.
 Requested convergence on RMS density matrix=1.00D-08 within 128 cycles.
 Requested convergence on MAX density matrix=1.00D-06.
 Requested convergence on             energy=1.00D-06.
 No special actions if energy rises.
 SCF Done:  E(RM062X) =  -265.428599543     A.U. after   11 cycles
            NFock= 11  Conv=0.54D-08     -V/T= 2.0087
 Calling FoFJK, ICntrl=      2127 FMM=F ISym2X=0 I1Cent= 0 IOpClX= 0 NMat=1 NMatS=1 NMatT=0.
 ***** Axes restored to original set *****
 -------------------------------------------------------------------
 Center     Atomic                   Forces (Hartrees/Bohr)
 Number     Number              X              Y              Z
 -------------------------------------------------------------------
      1        6           0.000051506    0.000348342   -0.000453568
      2        6           0.000297347    0.001152445    0.000538200
      3        6          -0.002282316   -0.001281328    0.000171386
      4        7           0.003495758    0.001703398   -0.000691963
      5        6          -0.005475006   -0.000256735    0.001857798
      6        7           0.002696200    0.000023063   -0.000650024
      7        1           0.000048258   -0.000727207   -0.000020400
      8        1           0.000568089   -0.000346394    0.000138520
      9        1          -0.000068056   -0.000115256   -0.000338038
     10        1          -0.000074366    0.000253484   -0.000052983
     11        1          -0.000599923   -0.000546162   -0.000015537
     12        1           0.001342510   -0.000207650   -0.000483392
 -------------------------------------------------------------------
 Cartesian Forces:  Max     0.005475006 RMS     0.001390825

 GradGradGradGradGradGradGradGradGradGradGradGradGradGradGradGradGradGrad
 Berny optimization.
 Using GEDIIS/GDIIS optimizer.
 FormGI is forming the generalized inverse of G from B-inverse, IUseBI=4.
 Internal  Forces:  Max     0.002044355 RMS     0.000644480
 Search for a local minimum.
 Step number   3 out of a maximum of   63
 All quantities printed in internal units (Hartrees-Bohrs-Radians)
 Mixed Optimization -- En-DIIS/RFO-DIIS
 Update second derivatives using D2CorX and points    1    2    3
 DE= -9.66D-04 DEPred=-8.68D-04 R= 1.11D+00
 TightC=F SS=  1.41D+00  RLast= 1.02D-01 DXNew= 8.4853D-01 3.0665D-01
 Trust test= 1.11D+00 RLast= 1.02D-01 DXMaxT set to 5.05D-01
 ITU=  1  1  0
 Use linear search instead of GDIIS.
     Eigenvalues ---    0.01160   0.01776   0.02210   0.02253   0.02412
     Eigenvalues ---    0.02449   0.02618   0.07416   0.07602   0.14003
     Eigenvalues ---    0.16000   0.16000   0.16000   0.16016   0.16185
     Eigenvalues ---    0.23010   0.24986   0.29408   0.34222   0.34226
     Eigenvalues ---    0.34326   0.35782   0.35964   0.36848   0.43323
     Eigenvalues ---    0.45185   0.45693   0.50997   0.55261   0.60121
 RFO step:  Lambda=-1.42546660D-04 EMin= 1.15997424D-02
 Quartic linear search produced a step of  0.13999.
 Iteration  1 RMS(Cart)=  0.01448616 RMS(Int)=  0.00017063
 Iteration  2 RMS(Cart)=  0.00017510 RMS(Int)=  0.00000805
 Iteration  3 RMS(Cart)=  0.00000002 RMS(Int)=  0.00000805
 Variable       Old X    -DE/DX   Delta X   Delta X   Delta X     New X
                                 (Linear)    (Quad)   (Total)
    R1        2.83055  -0.00120   0.00222  -0.00383  -0.00161   2.82894
    R2        2.07022  -0.00008   0.00011  -0.00029  -0.00019   2.07003
    R3        2.06764  -0.00024  -0.00002  -0.00083  -0.00086   2.06678
    R4        2.06494   0.00017   0.00001   0.00050   0.00051   2.06545
    R5        2.59771  -0.00137   0.00041  -0.00373  -0.00332   2.59439
    R6        2.60237  -0.00038  -0.00100  -0.00051  -0.00152   2.60084
    R7        2.60379  -0.00022   0.00166  -0.00087   0.00079   2.60458
    R8        2.03943   0.00016  -0.00113   0.00095  -0.00018   2.03925
    R9        2.56261   0.00204   0.00101   0.00488   0.00590   2.56851
   R10        1.90803  -0.00036   0.00028  -0.00112  -0.00085   1.90718
   R11        2.48291  -0.00203  -0.00040  -0.00588  -0.00629   2.47663
   R12        2.04261   0.00028   0.00014   0.00082   0.00096   2.04356
    A1        1.94751  -0.00072   0.00038  -0.00548  -0.00511   1.94239
    A2        1.94695  -0.00047   0.00032  -0.00316  -0.00285   1.94410
    A3        1.91329  -0.00008  -0.00035  -0.00051  -0.00087   1.91242
    A4        1.88265   0.00057  -0.00043   0.00359   0.00316   1.88581
    A5        1.87869   0.00033  -0.00091   0.00207   0.00116   1.87984
    A6        1.89260   0.00043   0.00097   0.00398   0.00495   1.89755
    A7        2.24901   0.00001   0.00129  -0.00067   0.00062   2.24963
    A8        2.11565   0.00013   0.00163  -0.00013   0.00149   2.11714
    A9        1.91833  -0.00013  -0.00295   0.00086  -0.00210   1.91623
   A10        1.83878   0.00060   0.00364  -0.00012   0.00353   1.84230
   A11        2.31196  -0.00051  -0.00200  -0.00147  -0.00347   2.30849
   A12        2.13245  -0.00010  -0.00164   0.00158  -0.00006   2.13239
   A13        1.87341  -0.00092  -0.00386  -0.00092  -0.00478   1.86863
   A14        2.19867   0.00113   0.00384   0.00468   0.00852   2.20718
   A15        2.21110  -0.00021   0.00002  -0.00378  -0.00377   2.20733
   A16        1.94825  -0.00029   0.00132  -0.00110   0.00023   1.94848
   A17        2.15049  -0.00131  -0.00427  -0.00890  -0.01317   2.13732
   A18        2.18442   0.00160   0.00295   0.00999   0.01294   2.19736
   A19        1.84601   0.00074   0.00184   0.00128   0.00312   1.84913
    D1       -1.60357  -0.00036  -0.00284  -0.03140  -0.03423  -1.63781
    D2        1.51422  -0.00032  -0.00504  -0.02821  -0.03326   1.48096
    D3        0.50358  -0.00045  -0.00290  -0.03281  -0.03570   0.46788
    D4       -2.66181  -0.00042  -0.00510  -0.02962  -0.03472  -2.69654
    D5        2.60011  -0.00027  -0.00172  -0.03019  -0.03191   2.56820
    D6       -0.56529  -0.00023  -0.00392  -0.02701  -0.03093  -0.59622
    D7        3.11955  -0.00001  -0.00137  -0.00002  -0.00138   3.11817
    D8       -0.02263  -0.00005  -0.00189  -0.00172  -0.00360  -0.02623
    D9       -0.00039  -0.00005   0.00062  -0.00291  -0.00230  -0.00269
   D10        3.14062  -0.00009   0.00010  -0.00461  -0.00452   3.13609
   D11       -3.12155   0.00002   0.00122   0.00013   0.00135  -3.12020
   D12        0.00033   0.00005  -0.00059   0.00275   0.00218   0.00252
   D13        0.00029   0.00003  -0.00042   0.00195   0.00153   0.00183
   D14        3.13742  -0.00006  -0.00087  -0.00202  -0.00291   3.13451
   D15       -3.14079   0.00007   0.00003   0.00343   0.00348  -3.13731
   D16       -0.00366  -0.00002  -0.00042  -0.00054  -0.00097  -0.00463
   D17       -0.00010   0.00000   0.00007  -0.00030  -0.00022  -0.00032
   D18        3.13532  -0.00001  -0.00046  -0.00088  -0.00132   3.13399
   D19       -3.13719   0.00008   0.00053   0.00368   0.00419  -3.13300
   D20       -0.00177   0.00007  -0.00001   0.00310   0.00308   0.00131
   D21       -0.00014  -0.00003   0.00030  -0.00149  -0.00119  -0.00133
   D22       -3.13541   0.00000   0.00086  -0.00081   0.00007  -3.13534
         Item               Value     Threshold  Converged?
 Maximum Force            0.002044     0.000450     NO 
 RMS     Force            0.000644     0.000300     NO 
 Maximum Displacement     0.041957     0.001800     NO 
 RMS     Displacement     0.014490     0.001200     NO 
 Predicted change in Energy=-8.698977D-05
 GradGradGradGradGradGradGradGradGradGradGradGradGradGradGradGradGradGrad

                          Input orientation:                          
 ---------------------------------------------------------------------
 Center     Atomic      Atomic             Coordinates (Angstroms)
 Number     Number       Type             X           Y           Z
 ---------------------------------------------------------------------
      1          6           0       -0.196607    0.289181    0.120063
      2          6           0        0.688269   -0.803779   -0.393234
      3          6           0        1.980359   -0.723707   -0.850322
      4          7           0        2.339036   -2.014838   -1.172823
      5          6           0        1.266778   -2.805652   -0.903945
      6          7           0        0.259020   -2.110742   -0.435831
      7          1           0       -0.137553    0.369465    1.210934
      8          1           0        0.078050    1.258136   -0.306384
      9          1           0       -1.235467    0.072523   -0.141572
     10          1           0        2.656192    0.108423   -0.974107
     11          1           0        3.227308   -2.315095   -1.546154
     12          1           0        1.275915   -3.873514   -1.074325
 ---------------------------------------------------------------------
                    Distance matrix (angstroms):
                    1          2          3          4          5
     1  C    0.000000
     2  C    1.497010   0.000000
     3  C    2.589743   1.372894   0.000000
     4  N    3.661904   2.190766   1.378287   0.000000
     5  C    3.573244   2.145459   2.201492   1.359198   0.000000
     6  N    2.505243   1.376307   2.249150   2.208805   1.310574
     7  H    1.095414   2.152171   3.151087   4.183383   4.065246
     8  H    1.093694   2.152069   2.800420   4.071257   4.276040
     9  H    1.092988   2.128848   3.387896   4.265867   3.889258
    10  H    3.060775   2.245495   1.079127   2.155995   3.229122
    11  H    4.613212   3.171753   2.138125   1.009236   2.120556
    12  H    4.574157   3.198826   3.235383   2.143503   1.081408
                    6          7          8          9         10
     6  N    0.000000
     7  H    3.003420   0.000000
     8  H    3.376217   1.771574   0.000000
     9  H    2.662090   1.767162   1.777123   0.000000
    10  H    3.310720   3.556341   2.900778   3.979876   0.000000
    11  H    3.175737   5.111818   4.921670   5.252611   2.554770
    12  H    2.132865   5.022267   5.325265   4.769515   4.215570
                   11         12
    11  H    0.000000
    12  H    2.541501   0.000000
 Stoichiometry    C4H6N2
 Framework group  C1[X(C4H6N2)]
 Deg. of freedom    30
 Full point group                 C1      NOp   1
 Largest Abelian subgroup         C1      NOp   1
 Largest concise Abelian subgroup C1      NOp   1
                         Standard orientation:                         
 ---------------------------------------------------------------------
 Center     Atomic      Atomic             Coordinates (Angstroms)
 Number     Number       Type             X           Y           Z
 ---------------------------------------------------------------------
      1          6           0       -2.152373   -0.009412    0.005690
      2          6           0       -0.655750    0.020883   -0.009930
      3          6           0        0.184568    1.106550   -0.004599
      4          7           0        1.460781    0.586124    0.005970
      5          6           0        1.339496   -0.767651    0.004191
      6          7           0        0.083064   -1.140307   -0.006316
      7          1           0       -2.537746   -0.099218    1.027137
      8          1           0       -2.574310    0.897232   -0.437180
      9          1           0       -2.507045   -0.874318   -0.560673
     10          1           0       -0.002647    2.169302   -0.009516
     11          1           0        2.322660    1.111215    0.006358
     12          1           0        2.196526   -1.427152    0.004185
 ---------------------------------------------------------------------
 Rotational constants (GHZ):      9.0315982      3.5111347      2.5687523
 Standard basis: 6-31+G(d) (6D, 7F)
 There are   126 symmetry adapted cartesian basis functions of A   symmetry.
 There are   126 symmetry adapted basis functions of A   symmetry.
   126 basis functions,   216 primitive gaussians,   126 cartesian basis functions
    22 alpha electrons       22 beta electrons
       nuclear repulsion energy       224.3856214972 Hartrees.
 NAtoms=   12 NActive=   12 NUniq=   12 SFac= 1.00D+00 NAtFMM=   60 NAOKFM=F Big=F
 Integral buffers will be    131072 words long.
 Raffenetti 2 integral format.
 Two-electron integral symmetry is turned on.
 One-electron integrals computed using PRISM.
 NBasis=   126 RedAO= T EigKep=  2.03D-05  NBF=   126
 NBsUse=   126 1.00D-06 EigRej= -1.00D+00 NBFU=   126
 Initial guess from the checkpoint file:  "/srv/scratch/z5358697/gauss/Gau-3811647.chk"
 B after Tr=     0.000000    0.000000    0.000000
         Rot=    0.999999   -0.001572   -0.000059   -0.000071 Ang=  -0.18 deg.
 ExpMin= 4.38D-02 ExpMax= 4.17D+03 ExpMxC= 6.27D+02 IAcc=2 IRadAn=         4 AccDes= 0.00D+00
 Harris functional with IExCor= 1009 and IRadAn=       4 diagonalized for initial guess.
 HarFok:  IExCor= 1009 AccDes= 0.00D+00 IRadAn=         4 IDoV= 1 UseB2=F ITyADJ=14
 ICtDFT=  3500011 ScaDFX=  1.000000  1.000000  1.000000  1.000000
 FoFCou: FMM=F IPFlag=           0 FMFlag=      100000 FMFlg1=           0
         NFxFlg=           0 DoJE=T BraDBF=F KetDBF=T FulRan=T
         wScrn=  0.000000 ICntrl=     500 IOpCl=  0 I1Cent=   200000004 NGrid=           0
         NMat0=    1 NMatS0=      1 NMatT0=    0 NMatD0=    1 NMtDS0=    0 NMtDT0=    0
 Petite list used in FoFCou.
 Keep R1 ints in memory in canonical form, NReq=33104011.
 Requested convergence on RMS density matrix=1.00D-08 within 128 cycles.
 Requested convergence on MAX density matrix=1.00D-06.
 Requested convergence on             energy=1.00D-06.
 No special actions if energy rises.
 SCF Done:  E(RM062X) =  -265.428721387     A.U. after   11 cycles
            NFock= 11  Conv=0.28D-08     -V/T= 2.0086
 Calling FoFJK, ICntrl=      2127 FMM=F ISym2X=0 I1Cent= 0 IOpClX= 0 NMat=1 NMatS=1 NMatT=0.
 ***** Axes restored to original set *****
 -------------------------------------------------------------------
 Center     Atomic                   Forces (Hartrees/Bohr)
 Number     Number              X              Y              Z
 -------------------------------------------------------------------
      1        6           0.000152506   -0.000396149   -0.000248590
      2        6           0.000308763    0.000829225    0.000075382
      3        6           0.000162216   -0.000568131   -0.000530847
      4        7           0.000147942    0.001150141    0.000251254
      5        6          -0.000441426   -0.000745977   -0.000166427
      6        7          -0.000463654   -0.000517312    0.000745110
      7        1          -0.000217482   -0.000330893   -0.000011076
      8        1           0.000252955   -0.000047735    0.000179083
      9        1           0.000013494    0.000316781   -0.000285885
     10        1           0.000136037    0.000298118    0.000012916
     11        1          -0.000101221    0.000015640   -0.000059529
     12        1           0.000049871   -0.000003709    0.000038609
 -------------------------------------------------------------------
 Cartesian Forces:  Max     0.001150141 RMS     0.000389060

 GradGradGradGradGradGradGradGradGradGradGradGradGradGradGradGradGradGrad
 Berny optimization.
 Using GEDIIS/GDIIS optimizer.
 FormGI is forming the generalized inverse of G from B-inverse, IUseBI=4.
 Internal  Forces:  Max     0.000786883 RMS     0.000251753
 Search for a local minimum.
 Step number   4 out of a maximum of   63
 All quantities printed in internal units (Hartrees-Bohrs-Radians)
 Mixed Optimization -- En-DIIS/RFO-DIIS
 Swapping is turned off.
 Update second derivatives using D2CorX and points    1    2    3    4
 DE= -1.22D-04 DEPred=-8.70D-05 R= 1.40D+00
 TightC=F SS=  1.41D+00  RLast= 8.65D-02 DXNew= 8.4853D-01 2.5964D-01
 Trust test= 1.40D+00 RLast= 8.65D-02 DXMaxT set to 5.05D-01
 ITU=  1  1  1  0
     Eigenvalues ---    0.00537   0.01779   0.02216   0.02260   0.02420
     Eigenvalues ---    0.02459   0.02610   0.07456   0.07689   0.15436
     Eigenvalues ---    0.15999   0.16000   0.16011   0.16216   0.16583
     Eigenvalues ---    0.23076   0.25001   0.31525   0.34224   0.34238
     Eigenvalues ---    0.34326   0.35821   0.36179   0.38511   0.45095
     Eigenvalues ---    0.45712   0.49463   0.51241   0.54487   0.58608
 En-DIIS/RFO-DIIS IScMMF=        0 using points:     4    3
 RFO step:  Lambda=-1.34185156D-05.
 DidBck=F Rises=F RFO-DIIS coefs:    1.66090   -0.66090
 Iteration  1 RMS(Cart)=  0.02572218 RMS(Int)=  0.00054491
 Iteration  2 RMS(Cart)=  0.00056401 RMS(Int)=  0.00000879
 Iteration  3 RMS(Cart)=  0.00000022 RMS(Int)=  0.00000879
 Variable       Old X    -DE/DX   Delta X   Delta X   Delta X     New X
                                 (Linear)    (Quad)   (Total)
    R1        2.82894  -0.00058  -0.00106  -0.00006  -0.00112   2.82782
    R2        2.07003  -0.00004  -0.00012  -0.00007  -0.00019   2.06984
    R3        2.06678  -0.00006  -0.00057  -0.00017  -0.00074   2.06604
    R4        2.06545   0.00000   0.00034  -0.00011   0.00023   2.06568
    R5        2.59439  -0.00002  -0.00219   0.00064  -0.00155   2.59284
    R6        2.60084   0.00065  -0.00101   0.00164   0.00064   2.60148
    R7        2.60458  -0.00064   0.00052  -0.00091  -0.00038   2.60420
    R8        2.03925   0.00032  -0.00012   0.00050   0.00038   2.03963
    R9        2.56851   0.00079   0.00390   0.00248   0.00638   2.57489
   R10        1.90718  -0.00007  -0.00056   0.00008  -0.00048   1.90670
   R11        2.47663   0.00019  -0.00416   0.00069  -0.00347   2.47316
   R12        2.04356   0.00000   0.00063  -0.00006   0.00057   2.04414
    A1        1.94239  -0.00016  -0.00338  -0.00027  -0.00365   1.93874
    A2        1.94410  -0.00016  -0.00188  -0.00104  -0.00293   1.94117
    A3        1.91242   0.00024  -0.00057   0.00220   0.00163   1.91405
    A4        1.88581   0.00014   0.00209   0.00025   0.00232   1.88813
    A5        1.87984  -0.00001   0.00076  -0.00073   0.00003   1.87987
    A6        1.89755  -0.00005   0.00327  -0.00044   0.00283   1.90038
    A7        2.24963  -0.00013   0.00041  -0.00014   0.00027   2.24990
    A8        2.11714  -0.00021   0.00099  -0.00044   0.00055   2.11769
    A9        1.91623   0.00033  -0.00139   0.00051  -0.00088   1.91536
   A10        1.84230  -0.00011   0.00233   0.00027   0.00260   1.84490
   A11        2.30849  -0.00005  -0.00230  -0.00113  -0.00343   2.30506
   A12        2.13239   0.00016  -0.00004   0.00085   0.00081   2.13320
   A13        1.86863   0.00033  -0.00316  -0.00002  -0.00318   1.86545
   A14        2.20718  -0.00016   0.00563   0.00075   0.00637   2.21355
   A15        2.20733  -0.00017  -0.00249  -0.00074  -0.00323   2.20410
   A16        1.94848  -0.00018   0.00015   0.00013   0.00027   1.94875
   A17        2.13732   0.00004  -0.00870  -0.00164  -0.01034   2.12698
   A18        2.19736   0.00014   0.00855   0.00153   0.01008   2.20744
   A19        1.84913  -0.00037   0.00206  -0.00086   0.00119   1.85032
    D1       -1.63781  -0.00030  -0.02263  -0.03836  -0.06099  -1.69879
    D2        1.48096  -0.00032  -0.02198  -0.04217  -0.06416   1.41680
    D3        0.46788  -0.00034  -0.02359  -0.03893  -0.06252   0.40536
    D4       -2.69654  -0.00036  -0.02295  -0.04275  -0.06569  -2.76223
    D5        2.56820  -0.00035  -0.02109  -0.03870  -0.05979   2.50841
    D6       -0.59622  -0.00037  -0.02044  -0.04251  -0.06296  -0.65918
    D7        3.11817   0.00005  -0.00091   0.00245   0.00154   3.11971
    D8       -0.02623  -0.00001  -0.00238  -0.00158  -0.00396  -0.03019
    D9       -0.00269   0.00007  -0.00152   0.00593   0.00440   0.00171
   D10        3.13609   0.00001  -0.00299   0.00189  -0.00110   3.13500
   D11       -3.12020  -0.00006   0.00089  -0.00338  -0.00248  -3.12268
   D12        0.00252  -0.00008   0.00144  -0.00654  -0.00509  -0.00258
   D13        0.00183  -0.00003   0.00101  -0.00306  -0.00205  -0.00022
   D14        3.13451  -0.00006  -0.00193  -0.00465  -0.00661   3.12790
   D15       -3.13731   0.00001   0.00230   0.00047   0.00279  -3.13452
   D16       -0.00463  -0.00001  -0.00064  -0.00112  -0.00177  -0.00640
   D17       -0.00032  -0.00002  -0.00014  -0.00098  -0.00112  -0.00144
   D18        3.13399   0.00004  -0.00087   0.00202   0.00115   3.13514
   D19       -3.13300   0.00001   0.00277   0.00060   0.00334  -3.12965
   D20        0.00131   0.00007   0.00204   0.00360   0.00561   0.00693
   D21       -0.00133   0.00006  -0.00079   0.00458   0.00379   0.00246
   D22       -3.13534   0.00000   0.00005   0.00147   0.00150  -3.13384
         Item               Value     Threshold  Converged?
 Maximum Force            0.000787     0.000450     NO 
 RMS     Force            0.000252     0.000300     YES
 Maximum Displacement     0.077012     0.001800     NO 
 RMS     Displacement     0.025723     0.001200     NO 
 Predicted change in Energy=-6.804329D-05
 GradGradGradGradGradGradGradGradGradGradGradGradGradGradGradGradGradGrad

                          Input orientation:                          
 ---------------------------------------------------------------------
 Center     Atomic      Atomic             Coordinates (Angstroms)
 Number     Number       Type             X           Y           Z
 ---------------------------------------------------------------------
      1          6           0       -0.196455    0.289813    0.120672
      2          6           0        0.687858   -0.803422   -0.391282
      3          6           0        1.974993   -0.722570   -0.859606
      4          7           0        2.337947   -2.013360   -1.177791
      5          6           0        1.268251   -2.807240   -0.891238
      6          7           0        0.265121   -2.113301   -0.416916
      7          1           0       -0.173230    0.335514    1.214784
      8          1           0        0.112830    1.263729   -0.268093
      9          1           0       -1.229388    0.099737   -0.182326
     10          1           0        2.643249    0.113734   -0.997368
     11          1           0        3.220546   -2.316261   -1.561604
     12          1           0        1.289579   -3.875972   -1.056933
 ---------------------------------------------------------------------
                    Distance matrix (angstroms):
                    1          2          3          4          5
     1  C    0.000000
     2  C    1.496419   0.000000
     3  C    2.588639   1.372072   0.000000
     4  N    3.662486   2.192109   1.378084   0.000000
     5  C    3.572263   2.145250   2.201439   1.362574   0.000000
     6  N    2.505396   1.376644   2.248059   2.210322   1.308740
     7  H    1.095312   2.148975   3.168201   4.188989   4.048468
     8  H    1.093301   2.149173   2.786202   4.064235   4.277393
     9  H    1.093109   2.129599   3.376826   4.264036   3.897598
    10  H    3.056949   2.243227   1.079328   2.156453   3.230166
    11  H    4.614929   3.173774   2.141040   1.008981   2.121770
    12  H    4.576987   3.200894   3.233059   2.140795   1.081710
                    6          7          8          9         10
     6  N    0.000000
     7  H    2.975112   0.000000
     8  H    3.383737   1.772664   0.000000
     9  H    2.680695   1.767194   1.778702   0.000000
    10  H    3.309396   3.588224   2.873561   3.957500   0.000000
    11  H    3.175852   5.124251   4.914000   5.247986   2.560568
    12  H    2.136853   5.003710   5.331372   4.787107   4.213516
                   11         12
    11  H    0.000000
    12  H    2.532987   0.000000
 Stoichiometry    C4H6N2
 Framework group  C1[X(C4H6N2)]
 Deg. of freedom    30
 Full point group                 C1      NOp   1
 Largest Abelian subgroup         C1      NOp   1
 Largest concise Abelian subgroup C1      NOp   1
                         Standard orientation:                         
 ---------------------------------------------------------------------
 Center     Atomic      Atomic             Coordinates (Angstroms)
 Number     Number       Type             X           Y           Z
 ---------------------------------------------------------------------
      1          6           0       -2.152288   -0.009170    0.004520
      2          6           0       -0.656243    0.020821   -0.010229
      3          6           0        0.184095    1.105421   -0.002661
      4          7           0        1.461227    0.587752    0.005709
      5          6           0        1.338175   -0.769252    0.003154
      6          7           0        0.083180   -1.140371   -0.004411
      7          1           0       -2.533281   -0.162528    1.019919
      8          1           0       -2.570636    0.925148   -0.379331
      9          1           0       -2.509764   -0.837046   -0.613314
     10          1           0       -0.006246    2.167813   -0.009140
     11          1           0        2.325128    1.109000    0.001571
     12          1           0        2.201518   -1.420969    0.002509
 ---------------------------------------------------------------------
 Rotational constants (GHZ):      9.0313415      3.5115553      2.5689323
 Standard basis: 6-31+G(d) (6D, 7F)
 There are   126 symmetry adapted cartesian basis functions of A   symmetry.
 There are   126 symmetry adapted basis functions of A   symmetry.
   126 basis functions,   216 primitive gaussians,   126 cartesian basis functions
    22 alpha electrons       22 beta electrons
       nuclear repulsion energy       224.3827374245 Hartrees.
 NAtoms=   12 NActive=   12 NUniq=   12 SFac= 1.00D+00 NAtFMM=   60 NAOKFM=F Big=F
 Integral buffers will be    131072 words long.
 Raffenetti 2 integral format.
 Two-electron integral symmetry is turned on.
 One-electron integrals computed using PRISM.
 NBasis=   126 RedAO= T EigKep=  2.03D-05  NBF=   126
 NBsUse=   126 1.00D-06 EigRej= -1.00D+00 NBFU=   126
 Initial guess from the checkpoint file:  "/srv/scratch/z5358697/gauss/Gau-3811647.chk"
 B after Tr=     0.000000    0.000000    0.000000
         Rot=    0.999996   -0.002925   -0.000054   -0.000028 Ang=  -0.34 deg.
 ExpMin= 4.38D-02 ExpMax= 4.17D+03 ExpMxC= 6.27D+02 IAcc=2 IRadAn=         4 AccDes= 0.00D+00
 Harris functional with IExCor= 1009 and IRadAn=       4 diagonalized for initial guess.
 HarFok:  IExCor= 1009 AccDes= 0.00D+00 IRadAn=         4 IDoV= 1 UseB2=F ITyADJ=14
 ICtDFT=  3500011 ScaDFX=  1.000000  1.000000  1.000000  1.000000
 FoFCou: FMM=F IPFlag=           0 FMFlag=      100000 FMFlg1=           0
         NFxFlg=           0 DoJE=T BraDBF=F KetDBF=T FulRan=T
         wScrn=  0.000000 ICntrl=     500 IOpCl=  0 I1Cent=   200000004 NGrid=           0
         NMat0=    1 NMatS0=      1 NMatT0=    0 NMatD0=    1 NMtDS0=    0 NMtDT0=    0
 Petite list used in FoFCou.
 Keep R1 ints in memory in canonical form, NReq=33104011.
 Requested convergence on RMS density matrix=1.00D-08 within 128 cycles.
 Requested convergence on MAX density matrix=1.00D-06.
 Requested convergence on             energy=1.00D-06.
 No special actions if energy rises.
 SCF Done:  E(RM062X) =  -265.428823071     A.U. after   11 cycles
            NFock= 11  Conv=0.34D-08     -V/T= 2.0086
 Calling FoFJK, ICntrl=      2127 FMM=F ISym2X=0 I1Cent= 0 IOpClX= 0 NMat=1 NMatS=1 NMatT=0.
 ***** Axes restored to original set *****
 -------------------------------------------------------------------
 Center     Atomic                   Forces (Hartrees/Bohr)
 Number     Number              X              Y              Z
 -------------------------------------------------------------------
      1        6           0.000373720   -0.000913859   -0.000054624
      2        6           0.000553402    0.000100958    0.000529733
      3        6           0.001079946    0.000333967   -0.001322685
      4        7          -0.002742618   -0.000112848    0.001128970
      5        6           0.003485037   -0.000267597   -0.001259525
      6        7          -0.001915607   -0.000437185    0.000682482
      7        1          -0.000320560   -0.000087929    0.000012799
      8        1           0.000031767    0.000188620    0.000115670
      9        1          -0.000003178    0.000527614   -0.000282078
     10        1           0.000175074    0.000158057    0.000028269
     11        1           0.000223045    0.000431922   -0.000026013
     12        1          -0.000940026    0.000078279    0.000447002
 -------------------------------------------------------------------
 Cartesian Forces:  Max     0.003485037 RMS     0.000963831

 GradGradGradGradGradGradGradGradGradGradGradGradGradGradGradGradGradGrad
 Berny optimization.
 Using GEDIIS/GDIIS optimizer.
 FormGI is forming the generalized inverse of G from B-inverse, IUseBI=4.
 Internal  Forces:  Max     0.001113473 RMS     0.000445275
 Search for a local minimum.
 Step number   5 out of a maximum of   63
 All quantities printed in internal units (Hartrees-Bohrs-Radians)
 Mixed Optimization -- En-DIIS/RFO-DIIS
 Swapping is turned off.
 Update second derivatives using D2CorX and points    1    2    3    4    5
 DE= -1.02D-04 DEPred=-6.80D-05 R= 1.49D+00
 TightC=F SS=  1.41D+00  RLast= 1.55D-01 DXNew= 8.4853D-01 4.6648D-01
 Trust test= 1.49D+00 RLast= 1.55D-01 DXMaxT set to 5.05D-01
 ITU=  1  1  1  1  0
     Eigenvalues ---    0.00195   0.01813   0.02250   0.02364   0.02429
     Eigenvalues ---    0.02466   0.02612   0.07500   0.07718   0.15868
     Eigenvalues ---    0.15999   0.16000   0.16011   0.16217   0.19759
     Eigenvalues ---    0.23203   0.25001   0.33639   0.34231   0.34322
     Eigenvalues ---    0.34405   0.35858   0.36403   0.37997   0.44948
     Eigenvalues ---    0.45697   0.50825   0.51788   0.57036   0.67132
 En-DIIS/RFO-DIIS IScMMF=        0 using points:     5    4    3
 RFO step:  Lambda=-2.13065064D-05.
 DidBck=F Rises=F RFO-DIIS coefs:    1.68828   -0.47121   -0.21706
 Iteration  1 RMS(Cart)=  0.04398060 RMS(Int)=  0.00159298
 Iteration  2 RMS(Cart)=  0.00165335 RMS(Int)=  0.00001383
 Iteration  3 RMS(Cart)=  0.00000188 RMS(Int)=  0.00001375
 Iteration  4 RMS(Cart)=  0.00000000 RMS(Int)=  0.00001375
 Variable       Old X    -DE/DX   Delta X   Delta X   Delta X     New X
                                 (Linear)    (Quad)   (Total)
    R1        2.82782  -0.00033  -0.00112  -0.00087  -0.00199   2.82583
    R2        2.06984   0.00001  -0.00017  -0.00001  -0.00019   2.06965
    R3        2.06604   0.00012  -0.00070   0.00006  -0.00063   2.06541
    R4        2.06568   0.00000   0.00027   0.00021   0.00048   2.06616
    R5        2.59284   0.00033  -0.00179  -0.00016  -0.00195   2.59089
    R6        2.60148   0.00067   0.00011   0.00111   0.00121   2.60269
[...]
 Alpha virt. eigenvalues --    2.63587   2.73366   2.76367   2.80435   2.82706
 Alpha virt. eigenvalues --    3.04853   3.11021   3.15381   4.09714   4.22296
 Alpha virt. eigenvalues --    4.28426   4.34462   4.44490   4.60311
          Condensed to atoms (all electrons):
               1          2          3          4          5          6
     1  C    6.774024  -0.370798  -0.477178  -0.047265   0.007773  -0.284137
     2  C   -0.370798   6.102419   0.058801  -0.277960   0.201466   0.318687
     3  C   -0.477178   0.058801   6.112630   0.492915  -0.564865   0.159929
     4  N   -0.047265  -0.277960   0.492915   7.015904   0.253853  -0.024207
     5  C    0.007773   0.201466  -0.564865   0.253853   5.179600   0.368198
     6  N   -0.284137   0.318687   0.159929  -0.024207   0.368198   6.810359
     7  H    0.416016  -0.055160  -0.009688  -0.000292  -0.001447  -0.003704
     8  H    0.444817  -0.131762   0.025587   0.000626  -0.001920   0.008519
     9  H    0.416047  -0.055205  -0.009673  -0.000293  -0.001445  -0.003701
    10  H   -0.001891   0.014928   0.330401  -0.042428   0.015291   0.003319
    11  H    0.005266   0.020282  -0.018335   0.259930  -0.024596   0.007650
    12  H    0.016998   0.060927  -0.030170  -0.080360   0.390994  -0.057533
               7          8          9         10         11         12
     1  C    0.416016   0.444817   0.416047  -0.001891   0.005266   0.016998
     2  C   -0.055160  -0.131762  -0.055205   0.014928   0.020282   0.060927
     3  C   -0.009688   0.025587  -0.009673   0.330401  -0.018335  -0.030170
     4  N   -0.000292   0.000626  -0.000293  -0.042428   0.259930  -0.080360
     5  C   -0.001447  -0.001920  -0.001445   0.015291  -0.024596   0.390994
     6  N   -0.003704   0.008519  -0.003701   0.003319   0.007650  -0.057533
     7  H    0.480498  -0.025648  -0.028954   0.000020   0.000003   0.000000
     8  H   -0.025648   0.501792  -0.025645   0.000716  -0.000007   0.000002
     9  H   -0.028954  -0.025645   0.480486   0.000020   0.000003   0.000000
    10  H    0.000020   0.000716   0.000020   0.456573  -0.001457  -0.000035
    11  H    0.000003  -0.000007   0.000003  -0.001457   0.313098   0.000685
    12  H    0.000000   0.000002   0.000000  -0.000035   0.000685   0.486793
 Mulliken charges:
               1
     1  C   -0.899671
     2  C    0.113376
     3  C   -0.070355
     4  N   -0.550423
     5  C    0.177097
     6  N   -0.303379
     7  H    0.228356
     8  H    0.202921
     9  H    0.228359
    10  H    0.224543
    11  H    0.437477
    12  H    0.211698
 Sum of Mulliken charges =   0.00000
 Mulliken charges with hydrogens summed into heavy atoms:
               1
     1  C   -0.240034
     2  C    0.113376
     3  C    0.154188
     4  N   -0.112946
     5  C    0.388795
     6  N   -0.303379
 Electronic spatial extent (au):  <R**2>=            501.9685
 Charge=              0.0000 electrons
 Dipole moment (field-independent basis, Debye):
    X=              2.1928    Y=              2.8134    Z=              0.0000  Tot=              3.5670
 Quadrupole moment (field-independent basis, Debye-Ang):
   XX=            -26.9308   YY=            -36.3893   ZZ=            -38.8028
   XY=              0.6588   XZ=              0.0001   YZ=              0.0007
 Traceless Quadrupole moment (field-independent basis, Debye-Ang):
   XX=              7.1101   YY=             -2.3483   ZZ=             -4.7618
   XY=              0.6588   XZ=              0.0001   YZ=              0.0007
 Octapole moment (field-independent basis, Debye-Ang**2):
  XXX=             22.0522  YYY=             15.0797  ZZZ=              0.0003  XYY=              7.8331
  XXY=              2.4350  XXZ=              0.0000  XZZ=             -0.9135  YZZ=             -1.0531
  YYZ=              0.0000  XYZ=              0.0005
 Hexadecapole moment (field-independent basis, Debye-Ang**3):
 XXXX=           -397.5367 YYYY=           -191.3570 ZZZZ=            -50.7949 XXXY=             13.2128
 XXXZ=             -0.0002 YYYX=             -0.4682 YYYZ=              0.0029 ZZZX=             -0.0007
 ZZZY=              0.0007 XXYY=            -89.1915 XXZZ=            -84.6784 YYZZ=            -44.6915
 XXYZ=              0.0018 YYXZ=              0.0009 ZZXY=              2.8493
 N-N= 2.244220781141D+02 E-N=-1.065004656227D+03  KE= 2.631534853958D+02
 1\1\GINC-KATANA3\FOpt\RM062X\6-31+G(d)\C4H6N2\Z5358697\20-Mar-2025\0\\
 #m062X/6-31+G(d) OPT Freq=noraman\\4-methyl-1H-imidazole\\0,1\C,-0.191
 9675131,0.285465764,0.1296743121\C,0.6957071321,-0.8076945019,-0.37139
 73731\C,1.9437689833,-0.7126951807,-0.9337416619\N,2.3198533213,-2.007
 1358754,-1.2185610215\C,1.2998507155,-2.8156181493,-0.8226865192\N,0.3
 09094207,-2.1283164898,-0.3097326714\H,-0.412275972,0.1457565798,1.192
 5842977\H,0.2791544024,1.2636847868,-0.0006642106\H,-1.1447170691,0.28
 50797312,-0.4089344778\H,2.5783728862,0.133420238,-1.1499989525\H,3.18
 79809088,-2.3007622522,-1.640986897\H,1.3364779976,-3.8907846506,-0.93
 32548247\\Version=ES64L-G09RevD.01\State=1-A\HF=-265.429251\RMSD=3.715
 e-09\RMSF=1.034e-05\Dipole=1.2766125,0.0906794,-0.5757392\Quadrupole=0
 .7089243,1.6611903,-2.3701147,-3.0461894,-2.207789,1.8464903\PG=C01 [X
 (C4H6N2)]\\@


 AND THIS OUR LIFE, EXEMPT FROM PUBLIC HAUNT,
 FINDS TONGUES IN TREES, BOOKS IN THE RUNNING BROOKS,
 SERMONS IN STONES, AND GOOD IN EVERYTHING.
 I WOULD NOT CHANGE IT. -- W. SHAKESPEARE
 AS YOU LIKE IT, ACT II, SCENE 1.
 Job cpu time:       0 days  0 hours  4 minutes 27.1 seconds.
 File lengths (MBytes):  RWF=    132 Int=      0 D2E=      0 Chk=      3 Scr=      2
 Normal termination of Gaussian 09 at Thu Mar 20 23:48:23 2025.
 Link1:  Proceeding to internal job step number  2.
 ---------------------------------------------------------------------
 #N Geom=AllCheck Guess=TCheck SCRF=Check GenChk RM062X/6-31+G(d) Freq
 ---------------------------------------------------------------------
 1/10=4,29=7,30=1,38=1,40=1/1,3;
 2/12=2,40=1/2;
 3/5=1,6=6,7=11,11=2,14=-4,16=1,25=1,30=1,70=2,71=2,74=-55,116=1,140=1/1,2,3;
 4/5=101/1;
 5/5=2,98=1/2;
 8/6=4,10=90,11=11/1;
 11/6=1,8=1,9=11,15=111,16=1/1,2,10;
 10/6=1/2;
 6/7=2,8=2,9=2,10=2,18=1,28=1/1;
 7/8=1,10=1,25=1/1,2,3,16;
 1/10=4,30=1/3;
 99//99;
 Structure from the checkpoint file:  "/srv/scratch/z5358697/gauss/Gau-3811647.chk"
 ---------------------
 4-methyl-1H-imidazole
 ---------------------
 Charge =  0 Multiplicity = 1
 Redundant internal coordinates found in file.
 C,0,-0.1919675131,0.285465764,0.1296743121
 C,0,0.6957071321,-0.8076945019,-0.3713973731
 C,0,1.9437689833,-0.7126951807,-0.9337416619
 N,0,2.3198533213,-2.0071358754,-1.2185610215
 C,0,1.2998507155,-2.8156181493,-0.8226865192
 N,0,0.309094207,-2.1283164898,-0.3097326714
 H,0,-0.412275972,0.1457565798,1.1925842977
 H,0,0.2791544024,1.2636847868,-0.0006642106
 H,0,-1.1447170691,0.2850797312,-0.4089344778
 H,0,2.5783728862,0.133420238,-1.1499989525
 H,0,3.1879809088,-2.3007622522,-1.640986897
 H,0,1.3364779976,-3.8907846506,-0.9332548247
 Recover connectivity data from disk.

 GradGradGradGradGradGradGradGradGradGradGradGradGradGradGradGradGradGrad
 Berny optimization.
 Initialization pass.
                           ----------------------------
                           !    Initial Parameters    !
                           ! (Angstroms and Degrees)  !
 --------------------------                            --------------------------
 ! Name  Definition              Value          Derivative Info.                !
 --------------------------------------------------------------------------------
 ! R1    R(1,2)                  1.4947         calculate D2E/DX2 analytically  !
 ! R2    R(1,7)                  1.0945         calculate D2E/DX2 analytically  !
 ! R3    R(1,8)                  1.0936         calculate D2E/DX2 analytically  !
 ! R4    R(1,9)                  1.0945         calculate D2E/DX2 analytically  !
 ! R5    R(2,3)                  1.3722         calculate D2E/DX2 analytically  !
 ! R6    R(2,6)                  1.3774         calculate D2E/DX2 analytically  !
 ! R7    R(3,4)                  1.3777         calculate D2E/DX2 analytically  !
 ! R8    R(3,10)                 1.0795         calculate D2E/DX2 analytically  !
 ! R9    R(4,5)                  1.3604         calculate D2E/DX2 analytically  !
 ! R10   R(4,11)                 1.0091         calculate D2E/DX2 analytically  !
 ! R11   R(5,6)                  1.3104         calculate D2E/DX2 analytically  !
 ! R12   R(5,12)                 1.0815         calculate D2E/DX2 analytically  !
 ! A1    A(2,1,7)              110.5952         calculate D2E/DX2 analytically  !
 ! A2    A(2,1,8)              111.0032         calculate D2E/DX2 analytically  !
 ! A3    A(2,1,9)              110.5951         calculate D2E/DX2 analytically  !
 ! A4    A(7,1,8)              108.4613         calculate D2E/DX2 analytically  !
 ! A5    A(7,1,9)              107.6176         calculate D2E/DX2 analytically  !
 ! A6    A(8,1,9)              108.4633         calculate D2E/DX2 analytically  !
 ! A7    A(1,2,3)              128.8233         calculate D2E/DX2 analytically  !
 ! A8    A(1,2,6)              121.2993         calculate D2E/DX2 analytically  !
 ! A9    A(3,2,6)              109.8774         calculate D2E/DX2 analytically  !
 ! A10   A(2,3,4)              105.5426         calculate D2E/DX2 analytically  !
 ! A11   A(2,3,10)             132.1465         calculate D2E/DX2 analytically  !
 ! A12   A(4,3,10)             122.3109         calculate D2E/DX2 analytically  !
 ! A13   A(3,4,5)              107.0697         calculate D2E/DX2 analytically  !
 ! A14   A(3,4,11)             126.4956         calculate D2E/DX2 analytically  !
 ! A15   A(5,4,11)             126.4347         calculate D2E/DX2 analytically  !
 ! A16   A(4,5,6)              111.6594         calculate D2E/DX2 analytically  !
 ! A17   A(4,5,12)             122.3903         calculate D2E/DX2 analytically  !
 ! A18   A(6,5,12)             125.9503         calculate D2E/DX2 analytically  !
 ! A19   A(2,6,5)              105.8508         calculate D2E/DX2 analytically  !
 ! D1    D(7,1,2,3)           -120.432          calculate D2E/DX2 analytically  !
 ! D2    D(7,1,2,6)             59.5706         calculate D2E/DX2 analytically  !
 ! D3    D(8,1,2,3)              0.0076         calculate D2E/DX2 analytically  !
 ! D4    D(8,1,2,6)           -179.9897         calculate D2E/DX2 analytically  !
 ! D5    D(9,1,2,3)            120.4498         calculate D2E/DX2 analytically  !
 ! D6    D(9,1,2,6)            -59.5475         calculate D2E/DX2 analytically  !
 ! D7    D(1,2,3,4)           -179.9955         calculate D2E/DX2 analytically  !
 ! D8    D(1,2,3,10)             0.0119         calculate D2E/DX2 analytically  !
 ! D9    D(6,2,3,4)              0.0021         calculate D2E/DX2 analytically  !
 ! D10   D(6,2,3,10)          -179.9905         calculate D2E/DX2 analytically  !
 ! D11   D(1,2,6,5)            179.9949         calculate D2E/DX2 analytically  !
 ! D12   D(3,2,6,5)             -0.0029         calculate D2E/DX2 analytically  !
 ! D13   D(2,3,4,5)             -0.0006         calculate D2E/DX2 analytically  !
 ! D14   D(2,3,4,11)          -179.9939         calculate D2E/DX2 analytically  !
 ! D15   D(10,3,4,5)           179.993          calculate D2E/DX2 analytically  !
 ! D16   D(10,3,4,11)           -0.0004         calculate D2E/DX2 analytically  !
 ! D17   D(3,4,5,6)             -0.0013         calculate D2E/DX2 analytically  !
 ! D18   D(3,4,5,12)           179.9957         calculate D2E/DX2 analytically  !
 ! D19   D(11,4,5,6)           179.9921         calculate D2E/DX2 analytically  !
 ! D20   D(11,4,5,12)           -0.0109         calculate D2E/DX2 analytically  !
 ! D21   D(4,5,6,2)              0.0026         calculate D2E/DX2 analytically  !
 ! D22   D(12,5,6,2)          -179.9943         calculate D2E/DX2 analytically  !
 --------------------------------------------------------------------------------
 Trust Radius=3.00D-01 FncErr=1.00D-07 GrdErr=1.00D-07
 Number of steps in this run=      2 maximum allowed number of steps=      2.
 GradGradGradGradGradGradGradGradGradGradGradGradGradGradGradGradGradGrad

                          Input orientation:                          
 ---------------------------------------------------------------------
 Center     Atomic      Atomic             Coordinates (Angstroms)
 Number     Number       Type             X           Y           Z
 ---------------------------------------------------------------------
      1          6           0       -0.191968    0.285466    0.129674
      2          6           0        0.695707   -0.807695   -0.371397
      3          6           0        1.943769   -0.712695   -0.933742
      4          7           0        2.319853   -2.007136   -1.218561
      5          6           0        1.299851   -2.815618   -0.822687
      6          7           0        0.309094   -2.128316   -0.309733
      7          1           0       -0.412276    0.145757    1.192584
      8          1           0        0.279154    1.263685   -0.000664
      9          1           0       -1.144717    0.285080   -0.408934
     10          1           0        2.578373    0.133420   -1.149999
     11          1           0        3.187981   -2.300762   -1.640987
     12          1           0        1.336478   -3.890785   -0.933255
 ---------------------------------------------------------------------
                    Distance matrix (angstroms):
                    1          2          3          4          5
     1  C    0.000000
     2  C    1.494670   0.000000
     3  C    2.586223   1.372193   0.000000
     4  N    3.658279   2.189565   1.377729   0.000000
     5  C    3.570607   2.144856   2.202101   1.360428   0.000000
     6  N    2.504094   1.377430   2.250674   2.209933   1.310383
     7  H    1.094455   2.140732   3.287727   4.232387   3.970193
     8  H    1.093552   2.145127   2.747299   4.043018   4.284653
     9  H    1.094455   2.140730   3.287814   4.232375   3.970067
    10  H    3.055400   2.244181   1.079537   2.157200   3.230879
    11  H    4.609541   3.170574   2.137806   1.009111   2.121256
    12  H    4.572421   3.198705   3.235592   2.143959   1.081457
                    6          7          8          9         10
     6  N    0.000000
     7  H    2.819351   0.000000
     8  H    3.406184   1.775298   0.000000
     9  H    2.819200   1.766563   1.775320   0.000000
    10  H    3.312269   3.798925   2.808002   3.799155   0.000000
    11  H    3.176470   5.193884   4.884385   5.193920   2.556939
    12  H    2.133212   4.885795   5.343801   4.885600   4.217049
                   11         12
    11  H    0.000000
    12  H    2.541086   0.000000
 Stoichiometry    C4H6N2
 Framework group  C1[X(C4H6N2)]
 Deg. of freedom    30
 Full point group                 C1      NOp   1
 Largest Abelian subgroup         C1      NOp   1
 Largest concise Abelian subgroup C1      NOp   1
                         Standard orientation:                         
 ---------------------------------------------------------------------
 Center     Atomic      Atomic             Coordinates (Angstroms)
 Number     Number       Type             X           Y           Z
 ---------------------------------------------------------------------
      1          6           0       -2.149941   -0.009899   -0.000031
      2          6           0       -0.655575    0.020247    0.000024
      3          6           0        0.182944    1.106432    0.000004
      4          7           0        1.459224    0.587540   -0.000029
      5          6           0        1.339347   -0.767596   -0.000014
      6          7           0        0.083604   -1.142048    0.000053
      7          1           0       -2.524419   -0.536445    0.883342
      8          1           0       -2.562403    1.002885   -0.000230
      9          1           0       -2.524345   -0.536804   -0.883220
     10          1           0       -0.007964    2.168955    0.000112
     11          1           0        2.320741    1.112987    0.000035
     12          1           0        2.197949   -1.425130   -0.000102
 ---------------------------------------------------------------------
 Rotational constants (GHZ):      9.0203334      3.5172522      2.5710238
 Standard basis: 6-31+G(d) (6D, 7F)
 There are   126 symmetry adapted cartesian basis functions of A   symmetry.
 There are   126 symmetry adapted basis functions of A   symmetry.
   126 basis functions,   216 primitive gaussians,   126 cartesian basis functions
    22 alpha electrons       22 beta electrons
       nuclear repulsion energy       224.4220781141 Hartrees.
 NAtoms=   12 NActive=   12 NUniq=   12 SFac= 1.00D+00 NAtFMM=   60 NAOKFM=F Big=F
 Integral buffers will be    131072 words long.
 Raffenetti 2 integral format.
 Two-electron integral symmetry is turned on.
 One-electron integrals computed using PRISM.
 NBasis=   126 RedAO= T EigKep=  2.03D-05  NBF=   126
 NBsUse=   126 1.00D-06 EigRej= -1.00D+00 NBFU=   126
 Initial guess from the checkpoint file:  "/srv/scratch/z5358697/gauss/Gau-3811647.chk"
 B after Tr=     0.000000    0.000000    0.000000
         Rot=    1.000000    0.000000    0.000000    0.000000 Ang=   0.00 deg.
 Keep R1 ints in memory in canonical form, NReq=33104011.
 Requested convergence on RMS density matrix=1.00D-08 within 128 cycles.
 Requested convergence on MAX density matrix=1.00D-06.
 Requested convergence on             energy=1.00D-06.
 No special actions if energy rises.
 SCF Done:  E(RM062X) =  -265.429250959     A.U. after    1 cycles
            NFock=  1  Conv=0.18D-08     -V/T= 2.0086
 DoSCS=F DFT=T ScalE2(SS,OS)=  1.000000  1.000000
 Range of M.O.s used for correlation:     1   126
 NBasis=   126 NAE=    22 NBE=    22 NFC=     0 NFV=     0
 NROrb=    126 NOA=    22 NOB=    22 NVA=   104 NVB=   104

 **** Warning!!: The largest alpha MO coefficient is  0.78952418D+02

 Symmetrizing basis deriv contribution to polar:
 IMax=3 JMax=2 DiffMx= 0.00D+00
 G2DrvN: will do    13 centers at a time, making    1 passes.
 Calling FoFCou, ICntrl=  3107 FMM=F I1Cent=   0 AccDes= 0.00D+00.
 End of G2Drv F.D. properties file   721 does not exist.
 End of G2Drv F.D. properties file   722 does not exist.
 End of G2Drv F.D. properties file   788 does not exist.
          IDoAtm=111111111111
          Differentiating once with respect to electric field.
                with respect to dipole field.
          Differentiating once with respect to nuclear coordinates.
 Keep R1 ints in memory in canonical form, NReq=33040122.
 CalDSu would require      161709 more words of memory to run efficiently.
 CalDSu:  MaxMB=  32 is small; additional memory will improve performance.
 CalDSu would require      152658 more words of memory to run efficiently.
 CalDSu:  MaxMB=  33 is small; additional memory will improve performance.
          There are    39 degrees of freedom in the 1st order CPHF.  IDoFFX=6 NUNeed=     3.
     39 vectors produced by pass  0 Test12= 5.87D-15 2.56D-09 XBig12= 3.81D+01 2.96D+00.
 AX will form    20 AO Fock derivatives at one time.
 CalDSu would require      153198 more words of memory to run efficiently.
 CalDSu:  MaxMB=  33 is small; additional memory will improve performance.
 CalDSu would require      152658 more words of memory to run efficiently.
 CalDSu:  MaxMB=  33 is small; additional memory will improve performance.
     36 vectors produced by pass  1 Test12= 5.87D-15 2.56D-09 XBig12= 5.22D+00 5.02D-01.
 Not enough memory to run CalDSu, short by      180220 words.
 Error termination via Lnk1e in /apps/z_install_tree/linux-rocky8-ivybridge/gcc-12.2.0/gaussian-09-D.01-wczn3gur5lpur3omlkzwa2l5ecyxp5ef/g09/l1002.exe at Thu Mar 20 23:49:28 2025.
 Job cpu time:       0 days  0 hours  1 minutes  2.8 seconds.
 File lengths (MBytes):  RWF=    132 Int=      0 D2E=      0 Chk=      3 Scr=      2
