 Entering Gaussian System, Link 0=g09
 Initial command:
 /apps/z_install_tree/linux-rocky8-ivybridge/gcc-12.2.0/gaussian-09-D.01-wczn3gur5lpur3omlkzwa2l5ecyxp5ef/g09/l1.exe "/srv/scratch/z5358697/gauss/Gau-11013.inp" -scrdir="/srv/scratch/z5358697/gauss/"
 Entering Link 1 = /apps/z_install_tree/linux-rocky8-ivybridge/gcc-12.2.0/gaussian-09-D.01-wczn3gur5lpur3omlkzwa2l5ecyxp5ef/g09/l1.exe PID=     11015.
  
 Copyright (c) 1988,1990,1992,1993,1995,1998,2003,2009,2013,
            Gaussian, Inc.  All Rights Reserved.
  
 This is part of the Gaussian(R) 09 program.  It is based on
 the Gaussian(R) 03 system (copyright 2003, Gaussian, Inc.),
 the Gaussian(R) 98 system (copyright 1998, Gaussian, Inc.),
 the Gaussian(R) 94 system (copyright 1995, Gaussian, Inc.),
 the Gaussian 92(TM) system (copyright 1992, Gaussian, Inc.),
 the Gaussian 90(TM) system (copyright 1990, Gaussian, Inc.),
 the Gaussian 88(TM) system (copyright 1988, Gaussian, Inc.),
 the Gaussian 86(TM) system (copyright 1986, Carnegie Mellon
 University), and the Gaussian 82(TM) system (copyright 1983,
 Carnegie Mellon University). Gaussian is a federally registered
 trademark of Gaussian, Inc.
  
 This software contains proprietary and confidential information,
 including trade secrets, belonging to Gaussian, Inc.
  
 This software is provided under written license and may be
 used, copied, transmitted, or stored only in accord with that
 written license.
  
 The following legend is applicable only to US Government
 contracts under FAR:
  
                    RESTRICTED RIGHTS LEGEND
  
 Use, reproduction and disclosure by the US Government is
 subject to restrictions as set forth in subparagraphs (a)
 and (c) of the Commercial Computer Software - Restricted
 Rights clause in FAR 52.227-19.
  
 Gaussian, Inc.
 340 Quinnipiac St., Bldg. 40, Wallingford CT 06492
  
  
 ---------------------------------------------------------------
 Warning -- This program may not be used in any manner that
 competes with the business of Gaussian, Inc. or will provide
 assistance to any competitor of Gaussian, Inc.  The licensee
 of this program is prohibited from giving any competitor of
 Gaussian, Inc. access to this program.  By using this program,
 the user acknowledges that Gaussian, Inc. is engaged in the
 business of creating and licensing software in the field of
 computational chemistry and represents and warrants to the
 licensee that it is not a competitor of Gaussian, Inc. and that
 it will not use this program in any manner prohibited above.
 ---------------------------------------------------------------
  

 Cite this work as:
 Gaussian 09, Revision D.01,
 M. J. Frisch, G. W. Trucks, H. B. Schlegel, G. E. Scuseria, 
 M. A. Robb, J. R. Cheeseman, G. Scalmani, V. Barone, B. Mennucci, 
 G. A. Petersson, H. Nakatsuji, M. Caricato, X. Li, H. P. Hratchian, 
 A. F. Izmaylov, J. Bloino, G. Zheng, J. L. Sonnenberg, M. Hada, 
 M. Ehara, K. Toyota, R. Fukuda, J. Hasegawa, M. Ishida, T. Nakajima, 
 Y. Honda, O. Kitao, H. Nakai, T. Vreven, J. A. Montgomery, Jr., 
 J. E. Peralta, F. Ogliaro, M. Bearpark, J. J. Heyd, E. Brothers, 
 K. N. Kudin, V. N. Staroverov, T. Keith, R. Kobayashi, J. Normand, 
 K. Raghavachari, A. Rendell, J. C. Burant, S. S. Iyengar, J. Tomasi, 
 M. Cossi, N. Rega, J. M. Millam, M. Klene, J. E. Knox, J. B. Cross, 
 V. Bakken, C. Adamo, J. Jaramillo, R. Gomperts, R. E. Stratmann, 
 O. Yazyev, A. J. Austin, R. Cammi, C. Pomelli, J. W. Ochterski, 
 R. L. Martin, K. Morokuma, V. G. Zakrzewski, G. A. Voth, 
 P. Salvador, J. J. Dannenberg, S. Dapprich, A. D. Daniels, 
 O. Farkas, J. B. Foresman, J. V. Ortiz, J. Cioslowski, 
 and D. J. Fox, Gaussian, Inc., Wallingford CT, 2013.
 
 ******************************************
 Gaussian 09:  ES64L-G09RevD.01 24-Apr-2013
                21-Mar-2025 
 ******************************************
 ---------------------------------
 #m062X/6-31+G(d) OPT Freq=noraman
 ---------------------------------
 1/14=-1,18=20,19=15,26=3,38=1/1,3;
 2/9=110,12=2,17=6,18=5,40=1/2;
 3/5=1,6=6,7=11,11=2,16=1,25=1,30=1,71=1,74=-55/1,2,3;
 4//1;
 5/5=2,38=5/2;
 6/7=2,8=2,9=2,10=2,28=1/1;
 7//1,2,3,16;
 1/14=-1,18=20,19=15,26=3/3(2);
 2/9=110/2;
 99//99;
 2/9=110/2;
 3/5=1,6=6,7=11,11=2,16=1,25=1,30=1,71=1,74=-55/1,2,3;
 4/5=5,16=3,69=1/1;
 5/5=2,38=5/2;
 7//1,2,3,16;
 1/14=-1,18=20,19=15,26=3/3(-5);
 2/9=110/2;
 6/7=2,8=2,9=2,10=2,19=2,28=1/1;
 99/9=1/99;
 ----------------
 3-methylpyridine
 ----------------
 Symbolic Z-matrix:
 Charge =  0 Multiplicity = 1
 C                     2.8852   -0.2665    3.6509 
 C                     1.652    -0.6227    2.8997 
 C                     1.3879   -0.0684    1.6522 
 C                     0.2265   -0.4197    0.9733 
 C                    -0.6317   -1.3224    1.5803 
 N                    -0.4092   -1.8816    2.7908 
 C                     0.7299   -1.5161    3.4206 
 H                     3.6948   -0.9547    3.3895 
 H                     3.2016    0.7562    3.4206 
 H                     2.713    -0.3164    4.7313 
 H                     2.0808    0.6373    1.202 
 H                     0.       -0.0001   -0.0002 
 H                    -1.5507   -1.6289    1.0916 
 H                     0.882    -1.9806    4.39 
 

 GradGradGradGradGradGradGradGradGradGradGradGradGradGradGradGradGradGrad
 Berny optimization.
 Initialization pass.
                           ----------------------------
                           !    Initial Parameters    !
                           ! (Angstroms and Degrees)  !
 --------------------------                            --------------------------
 ! Name  Definition              Value          Derivative Info.                !
 --------------------------------------------------------------------------------
 ! R1    R(1,2)                  1.4873         estimate D2E/DX2                !
 ! R2    R(1,8)                  1.0943         estimate D2E/DX2                !
 ! R3    R(1,9)                  1.095          estimate D2E/DX2                !
 ! R4    R(1,10)                 1.0952         estimate D2E/DX2                !
 ! R5    R(2,3)                  1.3904         estimate D2E/DX2                !
 ! R6    R(2,7)                  1.3856         estimate D2E/DX2                !
 ! R7    R(3,4)                  1.3904         estimate D2E/DX2                !
 ! R8    R(3,11)                 1.0866         estimate D2E/DX2                !
 ! R9    R(4,5)                  1.3856         estimate D2E/DX2                !
 ! R10   R(4,12)                 1.084          estimate D2E/DX2                !
 ! R11   R(5,6)                  1.3519         estimate D2E/DX2                !
 ! R12   R(5,13)                 1.085          estimate D2E/DX2                !
 ! R13   R(6,7)                  1.352          estimate D2E/DX2                !
 ! R14   R(7,14)                 1.0856         estimate D2E/DX2                !
 ! A1    A(2,1,8)              110.0103         estimate D2E/DX2                !
 ! A2    A(2,1,9)              110.9185         estimate D2E/DX2                !
 ! A3    A(2,1,10)             110.9152         estimate D2E/DX2                !
 ! A4    A(8,1,9)              108.8665         estimate D2E/DX2                !
 ! A5    A(8,1,10)             108.8649         estimate D2E/DX2                !
 ! A6    A(9,1,10)             107.1855         estimate D2E/DX2                !
 ! A7    A(1,2,3)              121.0101         estimate D2E/DX2                !
 ! A8    A(1,2,7)              121.0885         estimate D2E/DX2                !
 ! A9    A(3,2,7)              117.9014         estimate D2E/DX2                !
 ! A10   A(2,3,4)              119.7376         estimate D2E/DX2                !
 ! A11   A(2,3,11)             120.6305         estimate D2E/DX2                !
 ! A12   A(4,3,11)             119.6318         estimate D2E/DX2                !
 ! A13   A(3,4,5)              117.9094         estimate D2E/DX2                !
 ! A14   A(3,4,12)             121.0135         estimate D2E/DX2                !
 ! A15   A(5,4,12)             121.0771         estimate D2E/DX2                !
 ! A16   A(4,5,6)              124.0438         estimate D2E/DX2                !
 ! A17   A(4,5,13)             120.7515         estimate D2E/DX2                !
 ! A18   A(6,5,13)             115.2046         estimate D2E/DX2                !
 ! A19   A(5,6,7)              116.3579         estimate D2E/DX2                !
 ! A20   A(2,7,6)              124.0499         estimate D2E/DX2                !
 ! A21   A(2,7,14)             121.2206         estimate D2E/DX2                !
 ! A22   A(6,7,14)             114.7295         estimate D2E/DX2                !
 ! D1    D(8,1,2,3)            -90.0451         estimate D2E/DX2                !
 ! D2    D(8,1,2,7)             89.9982         estimate D2E/DX2                !
 ! D3    D(9,1,2,3)             30.4605         estimate D2E/DX2                !
 ! D4    D(9,1,2,7)           -149.4963         estimate D2E/DX2                !
 ! D5    D(10,1,2,3)           149.4535         estimate D2E/DX2                !
 ! D6    D(10,1,2,7)           -30.5032         estimate D2E/DX2                !
 ! D7    D(1,2,3,4)           -179.9736         estimate D2E/DX2                !
 ! D8    D(1,2,3,11)             0.0294         estimate D2E/DX2                !
 ! D9    D(7,2,3,4)             -0.0155         estimate D2E/DX2                !
 ! D10   D(7,2,3,11)           179.9874         estimate D2E/DX2                !
 ! D11   D(1,2,7,6)            179.9754         estimate D2E/DX2                !
 ! D12   D(1,2,7,14)            -0.0282         estimate D2E/DX2                !
 ! D13   D(3,2,7,6)              0.0174         estimate D2E/DX2                !
 ! D14   D(3,2,7,14)          -179.9862         estimate D2E/DX2                !
 ! D15   D(2,3,4,5)              0.0032         estimate D2E/DX2                !
 ! D16   D(2,3,4,12)           179.9935         estimate D2E/DX2                !
 ! D17   D(11,3,4,5)          -179.9997         estimate D2E/DX2                !
 ! D18   D(11,3,4,12)           -0.0094         estimate D2E/DX2                !
 ! D19   D(3,4,5,6)              0.0091         estimate D2E/DX2                !
 ! D20   D(3,4,5,13)          -179.9821         estimate D2E/DX2                !
 ! D21   D(12,4,5,6)          -179.9811         estimate D2E/DX2                !
 ! D22   D(12,4,5,13)            0.0276         estimate D2E/DX2                !
 ! D23   D(4,5,6,7)             -0.008          estimate D2E/DX2                !
 ! D24   D(13,5,6,7)           179.9837         estimate D2E/DX2                !
 ! D25   D(5,6,7,2)             -0.0057         estimate D2E/DX2                !
 ! D26   D(5,6,7,14)           179.9976         estimate D2E/DX2                !
 --------------------------------------------------------------------------------
 Trust Radius=3.00D-01 FncErr=1.00D-07 GrdErr=1.00D-06
 Number of steps in this run=     72 maximum allowed number of steps=    100.
 GradGradGradGradGradGradGradGradGradGradGradGradGradGradGradGradGradGrad

                          Input orientation:                          
 ---------------------------------------------------------------------
 Center     Atomic      Atomic             Coordinates (Angstroms)
 Number     Number       Type             X           Y           Z
 ---------------------------------------------------------------------
      1          6           0        2.885200   -0.266500    3.650900
      2          6           0        1.652000   -0.622700    2.899700
      3          6           0        1.387900   -0.068400    1.652200
      4          6           0        0.226500   -0.419700    0.973300
      5          6           0       -0.631700   -1.322400    1.580300
      6          7           0       -0.409200   -1.881600    2.790800
      7          6           0        0.729900   -1.516100    3.420600
      8          1           0        3.694800   -0.954700    3.389500
      9          1           0        3.201600    0.756200    3.420600
     10          1           0        2.713000   -0.316400    4.731300
     11          1           0        2.080800    0.637300    1.202000
     12          1           0        0.000000   -0.000100   -0.000200
     13          1           0       -1.550700   -1.628900    1.091600
     14          1           0        0.882000   -1.980600    4.390000
 ---------------------------------------------------------------------
                    Distance matrix (angstroms):
                    1          2          3          4          5
     1  C    0.000000
     2  C    1.487267   0.000000
     3  C    2.505185   1.390415   0.000000
     4  C    3.776466   2.405052   1.390384   0.000000
     5  C    4.215554   2.728678   2.378333   1.385577   0.000000
     6  N    3.768473   2.417692   2.795295   2.417555   1.351858
     7  C    2.501970   1.385557   2.378243   2.728513   2.297429
     8  H    1.094258   2.126772   3.020849   4.260675   4.703936
     9  H    1.095017   2.138682   2.663965   4.027808   4.733019
    10  H    1.095174   2.138761   3.361287   4.507318   4.704025
    11  H    2.731488   2.157233   1.086648   2.146621   3.367669
    12  H    4.661103   3.395019   2.159018   1.084006   2.155343
    13  H    5.299373   3.812998   3.374137   2.152812   1.085049
    14  H    2.738105   2.158191   3.377572   3.813126   3.258670
                    6          7          8          9         10
     6  N    0.000000
     7  C    1.351957   0.000000
     8  H    4.249753   3.017742   0.000000
     9  H    4.515807   3.357476   1.780840   0.000000
    10  H    3.995438   2.662687   1.780951   1.762707   0.000000
    11  H    3.881912   3.374055   3.150336   2.488477   3.710145
    12  H    3.390747   3.812202   5.104202   4.745957   5.463287
    13  H    2.062562   3.261610   5.766295   5.804937   5.757535
    14  H    2.057775   1.085648   3.156789   3.716229   2.497721
                   11         12         13         14
    11  H    0.000000
    12  H    2.486220   0.000000
    13  H    4.282014   2.499937   0.000000
    14  H    4.295796   4.896342   4.113534   0.000000
 Stoichiometry    C6H7N
 Framework group  C1[X(C6H7N)]
 Deg. of freedom    36
 Full point group                 C1      NOp   1
 Largest Abelian subgroup         C1      NOp   1
 Largest concise Abelian subgroup C1      NOp   1
                         Standard orientation:                         
 ---------------------------------------------------------------------
 Center     Atomic      Atomic             Coordinates (Angstroms)
 Number     Number       Type             X           Y           Z
 ---------------------------------------------------------------------
      1          6           0       -2.375483    0.027082    0.001042
      2          6           0       -0.888270    0.014430    0.000872
      3          6           0       -0.161832    1.199986    0.000365
      4          6           0        1.227896    1.157286   -0.000339
      5          6           0        1.838541   -0.086472   -0.000577
      6          7           0        1.166568   -1.259491   -0.000345
      7          6           0       -0.182941   -1.178163    0.000318
      8          1           0       -2.749800    0.029824    1.029284
      9          1           0       -2.758994    0.911861   -0.517752
     10          1           0       -2.773986   -0.850782   -0.518532
     11          1           0       -0.669837    2.160576    0.000562
     12          1           0        1.814686    2.068738   -0.000849
     13          1           0        2.920092   -0.173530   -0.000831
     14          1           0       -0.695601   -2.135143    0.000449
 ---------------------------------------------------------------------
 Rotational constants (GHZ):      5.6773224      2.6192716      1.8130464
 Standard basis: 6-31+G(d) (6D, 7F)
 There are   147 symmetry adapted cartesian basis functions of A   symmetry.
 There are   147 symmetry adapted basis functions of A   symmetry.
   147 basis functions,   252 primitive gaussians,   147 cartesian basis functions
    25 alpha electrons       25 beta electrons
       nuclear repulsion energy       272.5897529210 Hartrees.
 NAtoms=   14 NActive=   14 NUniq=   14 SFac= 1.00D+00 NAtFMM=   60 NAOKFM=F Big=F
 Integral buffers will be    131072 words long.
 Raffenetti 2 integral format.
 Two-electron integral symmetry is turned on.
 One-electron integrals computed using PRISM.
 NBasis=   147 RedAO= T EigKep=  1.15D-05  NBF=   147
 NBsUse=   147 1.00D-06 EigRej= -1.00D+00 NBFU=   147
 ExpMin= 4.38D-02 ExpMax= 4.17D+03 ExpMxC= 6.27D+02 IAcc=2 IRadAn=         4 AccDes= 0.00D+00
 Harris functional with IExCor= 1009 and IRadAn=       4 diagonalized for initial guess.
 HarFok:  IExCor= 1009 AccDes= 0.00D+00 IRadAn=         4 IDoV= 1 UseB2=F ITyADJ=14
 ICtDFT=  3500011 ScaDFX=  1.000000  1.000000  1.000000  1.000000
 FoFCou: FMM=F IPFlag=           0 FMFlag=      100000 FMFlg1=           0
         NFxFlg=           0 DoJE=T BraDBF=F KetDBF=T FulRan=T
         wScrn=  0.000000 ICntrl=     500 IOpCl=  0 I1Cent=   200000004 NGrid=           0
         NMat0=    1 NMatS0=      1 NMatT0=    0 NMatD0=    1 NMtDS0=    0 NMtDT0=    0
 Petite list used in FoFCou.
 Requested convergence on RMS density matrix=1.00D-08 within 128 cycles.
 Requested convergence on MAX density matrix=1.00D-06.
 Requested convergence on             energy=1.00D-06.
 No special actions if energy rises.
 SCF Done:  E(RM062X) =  -287.476152785     A.U. after   13 cycles
            NFock= 13  Conv=0.99D-08     -V/T= 2.0087

 **********************************************************************

            Population analysis using the SCF density.

 **********************************************************************

 Orbital symmetries:
       Occupied  (A) (A) (A) (A) (A) (A) (A) (A) (A) (A) (A) (A)
                 (A) (A) (A) (A) (A) (A) (A) (A) (A) (A) (A) (A)
                 (A)
       Virtual   (A) (A) (A) (A) (A) (A) (A) (A) (A) (A) (A) (A)
                 (A) (A) (A) (A) (A) (A) (A) (A) (A) (A) (A) (A)
                 (A) (A) (A) (A) (A) (A) (A) (A) (A) (A) (A) (A)
                 (A) (A) (A) (A) (A) (A) (A) (A) (A) (A) (A) (A)
                 (A) (A) (A) (A) (A) (A) (A) (A) (A) (A) (A) (A)
                 (A) (A) (A) (A) (A) (A) (A) (A) (A) (A) (A) (A)
                 (A) (A) (A) (A) (A) (A) (A) (A) (A) (A) (A) (A)
                 (A) (A) (A) (A) (A) (A) (A) (A) (A) (A) (A) (A)
                 (A) (A) (A) (A) (A) (A) (A) (A) (A) (A) (A) (A)
                 (A) (A) (A) (A) (A) (A) (A) (A) (A) (A) (A) (A)
                 (A) (A)
 The electronic state is 1-A.
 Alpha  occ. eigenvalues --  -14.76661 -10.58541 -10.58520 -10.57172 -10.56989
 Alpha  occ. eigenvalues --  -10.56406 -10.55360  -1.04880  -0.92240  -0.87884
 Alpha  occ. eigenvalues --   -0.79532  -0.72024  -0.69135  -0.59944  -0.56127
 Alpha  occ. eigenvalues --   -0.53297  -0.50836  -0.48555  -0.47143  -0.46118
 Alpha  occ. eigenvalues --   -0.45569  -0.41849  -0.34122  -0.32586  -0.31093
 Alpha virt. eigenvalues --   -0.00147   0.01476   0.01712   0.02886   0.03697
 Alpha virt. eigenvalues --    0.04943   0.04991   0.05576   0.06909   0.08027
 Alpha virt. eigenvalues --    0.08356   0.08670   0.09343   0.12869   0.12999
 Alpha virt. eigenvalues --    0.13223   0.13890   0.14480   0.15977   0.16114
 Alpha virt. eigenvalues --    0.18184   0.19038   0.20063   0.20529   0.21255
 Alpha virt. eigenvalues --    0.22380   0.23256   0.23869   0.25387   0.26553
 Alpha virt. eigenvalues --    0.26811   0.27148   0.29137   0.30042   0.30361
 Alpha virt. eigenvalues --    0.32526   0.32951   0.35706   0.36487   0.38102
 Alpha virt. eigenvalues --    0.39175   0.41845   0.42906   0.59646   0.60605
 Alpha virt. eigenvalues --    0.68693   0.70214   0.72473   0.74884   0.75380
 Alpha virt. eigenvalues --    0.75776   0.76270   0.78173   0.80077   0.80643
 Alpha virt. eigenvalues --    0.81194   0.82746   0.86142   0.96104   0.97297
 Alpha virt. eigenvalues --    0.99683   1.00521   1.02677   1.03284   1.05908
 Alpha virt. eigenvalues --    1.07518   1.07987   1.10835   1.14818   1.15352
 Alpha virt. eigenvalues --    1.17603   1.19019   1.20797   1.24739   1.25358
 Alpha virt. eigenvalues --    1.28611   1.30044   1.40987   1.43275   1.46511
 Alpha virt. eigenvalues --    1.49046   1.53258   1.55401   1.56208   1.57179
 Alpha virt. eigenvalues --    1.79532   1.88285   1.90482   1.92516   1.92823
 Alpha virt. eigenvalues --    1.94749   1.97040   2.03859   2.15407   2.18088
 Alpha virt. eigenvalues --    2.20189   2.23507   2.25148   2.26932   2.31392
 Alpha virt. eigenvalues --    2.33808   2.37925   2.40088   2.42089   2.47585
 Alpha virt. eigenvalues --    2.63983   2.65008   2.71626   2.73429   2.79164
 Alpha virt. eigenvalues --    2.81405   2.85896   2.91997   3.09801   3.41395
 Alpha virt. eigenvalues --    4.20480   4.26630   4.29355   4.33719   4.40950
 Alpha virt. eigenvalues --    4.46476   4.67823
          Condensed to atoms (all electrons):
               1          2          3          4          5          6
     1  C    5.880540  -0.273235  -0.051818  -0.053262   0.032185   0.004919
     2  C   -0.273235   5.944398   0.128335   0.221797  -0.231750   0.171196
     3  C   -0.051818   0.128335   5.891917   0.292091  -0.087558  -0.118792
     4  C   -0.053262   0.221797   0.292091   5.502803   0.050801   0.101997
     5  C    0.032185  -0.231750  -0.087558   0.050801   5.636109   0.220813
     6  N    0.004919   0.171196  -0.118792   0.101997   0.220813   6.781129
     7  C    0.166977  -0.153406  -0.230883  -0.341155   0.220808   0.149473
     8  H    0.365866   0.010938  -0.028673  -0.002104   0.000385  -0.000484
     9  H    0.434622  -0.126779   0.042627   0.008854   0.000263  -0.000295
    10  H    0.441882  -0.115637   0.000606  -0.004429   0.000612   0.000308
    11  H   -0.005767   0.072392   0.181364   0.054595  -0.016899   0.001111
    12  H    0.001497   0.008784  -0.018877   0.293327   0.028043   0.002273
    13  H    0.002016  -0.010470   0.025269  -0.109159   0.425308  -0.080570
    14  H    0.013137  -0.117040   0.041350  -0.028878   0.034712  -0.078375
               7          8          9         10         11         12
     1  C    0.166977   0.365866   0.434622   0.441882  -0.005767   0.001497
     2  C   -0.153406   0.010938  -0.126779  -0.115637   0.072392   0.008784
     3  C   -0.230883  -0.028673   0.042627   0.000606   0.181364  -0.018877
     4  C   -0.341155  -0.002104   0.008854  -0.004429   0.054595   0.293327
     5  C    0.220808   0.000385   0.000263   0.000612  -0.016899   0.028043
     6  N    0.149473  -0.000484  -0.000295   0.000308   0.001111   0.002273
     7  C    6.245175  -0.009131  -0.014845   0.021851   0.008892  -0.004921
     8  H   -0.009131   0.470908  -0.025447  -0.024647   0.000280   0.000001
     9  H   -0.014845  -0.025447   0.487830  -0.025605   0.002003  -0.000005
    10  H    0.021851  -0.024647  -0.025605   0.482420   0.000074   0.000002
    11  H    0.008892   0.000280   0.002003   0.000074   0.496563  -0.003678
    12  H   -0.004921   0.000001  -0.000005   0.000002  -0.003678   0.479099
    13  H    0.027730   0.000000   0.000000   0.000000  -0.000134  -0.001677
    14  H    0.409294   0.000259  -0.000026   0.002304  -0.000123   0.000020
              13         14
     1  C    0.002016   0.013137
     2  C   -0.010470  -0.117040
     3  C    0.025269   0.041350
     4  C   -0.109159  -0.028878
     5  C    0.425308   0.034712
     6  N   -0.080570  -0.078375
     7  C    0.027730   0.409294
     8  H    0.000000   0.000259
     9  H    0.000000  -0.000026
    10  H    0.000000   0.002304
    11  H   -0.000134  -0.000123
    12  H   -0.001677   0.000020
    13  H    0.518622  -0.000009
    14  H   -0.000009   0.523092
 Mulliken charges:
               1
     1  C   -0.959559
     2  C    0.470479
     3  C   -0.066957
     4  C    0.012722
     5  C   -0.313832
     6  N   -0.154705
     7  C   -0.495858
     8  H    0.241849
     9  H    0.216804
    10  H    0.220260
    11  H    0.209327
    12  H    0.216112
    13  H    0.203075
    14  H    0.200282
 Sum of Mulliken charges =   0.00000
 Mulliken charges with hydrogens summed into heavy atoms:
               1
     1  C   -0.280646
     2  C    0.470479
     3  C    0.142370
     4  C    0.228834
     5  C   -0.110757
     6  N   -0.154705
     7  C   -0.295576
 Electronic spatial extent (au):  <R**2>=            686.7913
 Charge=              0.0000 electrons
 Dipole moment (field-independent basis, Debye):
    X=             -1.5742    Y=              2.1004    Z=              0.0304  Tot=              2.6250
 Quadrupole moment (field-independent basis, Debye-Ang):
   XX=            -38.6257   YY=            -41.8993   ZZ=            -44.5914
   XY=              4.2438   XZ=             -0.0142   YZ=             -0.0044
 Traceless Quadrupole moment (field-independent basis, Debye-Ang):
   XX=              3.0798   YY=             -0.1938   ZZ=             -2.8860
   XY=              4.2438   XZ=             -0.0142   YZ=             -0.0044
 Octapole moment (field-independent basis, Debye-Ang**2):
  XXX=              4.6270  YYY=             10.0936  ZZZ=              0.7241  XYY=             -7.8190
  XXY=              6.2374  XXZ=             -0.0578  XZZ=             -2.8301  YZZ=             -1.0944
  YYZ=             -0.6023  XYZ=             -0.0212
 Hexadecapole moment (field-independent basis, Debye-Ang**3):
 XXXX=           -576.8647 YYYY=           -287.9015 ZZZZ=            -57.8483 XXXY=              9.3971
 XXXZ=              0.4422 YYYX=             20.8941 YYYZ=             -0.0774 ZZZX=             -1.9244
 ZZZY=              0.0111 XXYY=           -153.0621 XXZZ=           -112.6860 YYZZ=            -63.8654
 XXYZ=              0.0405 YYXZ=              1.8582 ZZXY=             -0.7285
 N-N= 2.725897529210D+02 E-N=-1.211007622084D+03  KE= 2.849974307658D+02
 Calling FoFJK, ICntrl=      2127 FMM=F ISym2X=0 I1Cent= 0 IOpClX= 0 NMat=1 NMatS=1 NMatT=0.
 ***** Axes restored to original set *****
 -------------------------------------------------------------------
 Center     Atomic                   Forces (Hartrees/Bohr)
 Number     Number              X              Y              Z
 -------------------------------------------------------------------
      1        6           0.006400248    0.003632165    0.006908241
      2        6           0.000729400    0.005471304   -0.003310677
      3        6          -0.003467157    0.000765713   -0.005948747
      4        6           0.005022169    0.001790189    0.001130268
      5        6          -0.003902203   -0.011773609    0.015666764
      6        7           0.011975517    0.011790013   -0.008045614
      7        6          -0.023894574   -0.010165814   -0.009303778
      8        1           0.002693563    0.001106710    0.001933056
      9        1           0.001678692   -0.001516521   -0.000755396
     10        1           0.001942726   -0.001836578   -0.000497073
     11        1           0.001623064    0.000807967    0.001272457
     12        1          -0.001133665   -0.000130036   -0.000762838
     13        1          -0.001545306   -0.000301447   -0.000760878
     14        1           0.001877525    0.000359944    0.002474216
 -------------------------------------------------------------------
 Cartesian Forces:  Max     0.023894574 RMS     0.006497669

 GradGradGradGradGradGradGradGradGradGradGradGradGradGradGradGradGradGrad
 Berny optimization.
 FormGI is forming the generalized inverse of G from B-inverse, IUseBI=4.
 GSVD:  received Info=                   1 from GESDD.
 Internal  Forces:  Max     0.015782125 RMS     0.004041563
 Search for a local minimum.
 Step number   1 out of a maximum of   72
 All quantities printed in internal units (Hartrees-Bohrs-Radians)
 Mixed Optimization -- RFO/linear search
 Second derivative matrix not updated -- first step.
 ITU=  0
     Eigenvalues ---    0.00934   0.01700   0.02216   0.02231   0.02248
     Eigenvalues ---    0.02271   0.02292   0.02295   0.02315   0.07398
     Eigenvalues ---    0.07418   0.16000   0.16000   0.16000   0.16000
     Eigenvalues ---    0.16000   0.16000   0.16000   0.22000   0.23178
     Eigenvalues ---    0.23454   0.25000   0.33751   0.34221   0.34239
     Eigenvalues ---    0.34325   0.35203   0.35320   0.35391   0.35515
     Eigenvalues ---    0.43606   0.44782   0.47444   0.48097   0.52843
     Eigenvalues ---    0.53955
 RFO step:  Lambda=-2.71402780D-03 EMin= 9.34385107D-03
 Linear search not attempted -- first point.
 Iteration  1 RMS(Cart)=  0.02364665 RMS(Int)=  0.00017204
 Iteration  2 RMS(Cart)=  0.00023993 RMS(Int)=  0.00005336
 Iteration  3 RMS(Cart)=  0.00000003 RMS(Int)=  0.00005336
 Variable       Old X    -DE/DX   Delta X   Delta X   Delta X     New X
                                 (Linear)    (Quad)   (Total)
    R1        2.81053   0.01471   0.00000   0.04322   0.04322   2.85375
    R2        2.06785   0.00083   0.00000   0.00241   0.00241   2.07026
    R3        2.06928  -0.00078   0.00000  -0.00227  -0.00227   2.06702
    R4        2.06958  -0.00070   0.00000  -0.00204  -0.00204   2.06754
    R5        2.62750   0.00333   0.00000   0.00871   0.00873   2.63624
    R6        2.61832   0.01023   0.00000   0.02134   0.02138   2.63970
    R7        2.62744   0.00123   0.00000   0.00402   0.00401   2.63145
    R8        2.05347   0.00104   0.00000   0.00292   0.00292   2.05639
    R9        2.61836   0.00642   0.00000   0.01294   0.01290   2.63126
   R10        2.04847   0.00088   0.00000   0.00245   0.00245   2.05092
   R11        2.55464  -0.01578   0.00000  -0.03021  -0.03023   2.52441
   R12        2.05045   0.00174   0.00000   0.00487   0.00487   2.05532
   R13        2.55483  -0.01383   0.00000  -0.02642  -0.02641   2.52842
   R14        2.05158   0.00231   0.00000   0.00650   0.00650   2.05808
    A1        1.92004   0.00380   0.00000   0.01992   0.01989   1.93994
    A2        1.93589   0.00069   0.00000   0.00600   0.00593   1.94182
    A3        1.93584   0.00108   0.00000   0.00832   0.00825   1.94408
    A4        1.90008  -0.00294   0.00000  -0.02121  -0.02123   1.87885
    A5        1.90005  -0.00318   0.00000  -0.02291  -0.02294   1.87711
    A6        1.87074   0.00029   0.00000   0.00832   0.00822   1.87896
    A7        2.11202   0.00478   0.00000   0.01690   0.01681   2.12884
    A8        2.11339   0.00137   0.00000   0.00341   0.00331   2.11671
    A9        2.05777  -0.00615   0.00000  -0.02030  -0.02027   2.03750
   A10        2.08982  -0.00259   0.00000  -0.00449  -0.00446   2.08536
   A11        2.10540  -0.00069   0.00000  -0.00995  -0.00997   2.09543
   A12        2.08797   0.00328   0.00000   0.01444   0.01443   2.10240
   A13        2.05791   0.00173   0.00000   0.01064   0.01060   2.06850
   A14        2.11208   0.00020   0.00000   0.00122   0.00123   2.11332
   A15        2.11319  -0.00193   0.00000  -0.01186  -0.01184   2.10135
   A16        2.16497  -0.00175   0.00000  -0.01170  -0.01176   2.15321
   A17        2.10751   0.00077   0.00000   0.00524   0.00527   2.11278
   A18        2.01070   0.00097   0.00000   0.00646   0.00648   2.01718
   A19        2.03083   0.00497   0.00000   0.01104   0.01102   2.04185
   A20        2.16508   0.00379   0.00000   0.01481   0.01487   2.17995
   A21        2.11570  -0.00399   0.00000  -0.02025  -0.02028   2.09542
   A22        2.00241   0.00019   0.00000   0.00544   0.00541   2.00782
    D1       -1.57158   0.00026   0.00000   0.01645   0.01655  -1.55504
    D2        1.57077  -0.00012   0.00000  -0.00301  -0.00310   1.56766
    D3        0.53164  -0.00047   0.00000   0.00691   0.00697   0.53861
    D4       -2.60920  -0.00085   0.00000  -0.01255  -0.01268  -2.62188
    D5        2.60846   0.00104   0.00000   0.02661   0.02673   2.63519
    D6       -0.53238   0.00066   0.00000   0.00715   0.00708  -0.52530
    D7       -3.14113  -0.00052   0.00000  -0.02313  -0.02311   3.11895
    D8        0.00051  -0.00052   0.00000  -0.02302  -0.02298  -0.02247
    D9       -0.00027  -0.00015   0.00000  -0.00426  -0.00429  -0.00456
   D10        3.14137  -0.00014   0.00000  -0.00416  -0.00417   3.13720
   D11        3.14116   0.00053   0.00000   0.02296   0.02284  -3.11919
   D12       -0.00049   0.00054   0.00000   0.02355   0.02342   0.02293
   D13        0.00030   0.00015   0.00000   0.00407   0.00415   0.00446
   D14       -3.14135   0.00016   0.00000   0.00467   0.00474  -3.13661
   D15        0.00006   0.00008   0.00000   0.00262   0.00266   0.00272
   D16        3.14148  -0.00005   0.00000  -0.00241  -0.00240   3.13908
   D17       -3.14159   0.00007   0.00000   0.00252   0.00254  -3.13905
   D18       -0.00016  -0.00006   0.00000  -0.00252  -0.00252  -0.00268
   D19        0.00016   0.00000   0.00000  -0.00052  -0.00048  -0.00032
   D20       -3.14128  -0.00016   0.00000  -0.00629  -0.00629   3.13562
   D21       -3.14126   0.00013   0.00000   0.00452   0.00454  -3.13672
   D22        0.00048  -0.00003   0.00000  -0.00125  -0.00126  -0.00078
   D23       -0.00014  -0.00001   0.00000   0.00015   0.00011  -0.00003
   D24        3.14131   0.00015   0.00000   0.00563   0.00562  -3.13625
   D25       -0.00010  -0.00007   0.00000  -0.00199  -0.00205  -0.00215
   D26        3.14155  -0.00008   0.00000  -0.00255  -0.00261   3.13895
         Item               Value     Threshold  Converged?
 Maximum Force            0.015782     0.000450     NO 
 RMS     Force            0.004042     0.000300     NO 
 Maximum Displacement     0.073005     0.001800     NO 
 RMS     Displacement     0.023583     0.001200     NO 
 Predicted change in Energy=-1.372889D-03
 GradGradGradGradGradGradGradGradGradGradGradGradGradGradGradGradGradGrad

                          Input orientation:                          
 ---------------------------------------------------------------------
 Center     Atomic      Atomic             Coordinates (Angstroms)
 Number     Number       Type             X           Y           Z
 ---------------------------------------------------------------------
      1          6           0        2.903828   -0.265847    3.665129
      2          6           0        1.648613   -0.605335    2.897207
      3          6           0        1.378814   -0.057040    1.643131
      4          6           0        0.218138   -0.427161    0.968661
      5          6           0       -0.642314   -1.337585    1.576554
      6          7           0       -0.412493   -1.877158    2.776788
      7          6           0        0.709297   -1.506162    3.404595
      8          1           0        3.721142   -0.948694    3.408391
      9          1           0        3.240232    0.751498    3.445404
     10          1           0        2.742206   -0.335977    4.744946
     11          1           0        2.072311    0.653923    1.198433
     12          1           0       -0.018563   -0.015021   -0.007040
     13          1           0       -1.562766   -1.651057    1.089282
     14          1           0        0.863654   -1.962984    4.381120
 ---------------------------------------------------------------------
                    Distance matrix (angstroms):
                    1          2          3          4          5
     1  C    0.000000
     2  C    1.510139   0.000000
     3  C    2.541209   1.395036   0.000000
     4  C    3.809185   2.407758   1.392505   0.000000
     5  C    4.252751   2.743841   2.393572   1.392402   0.000000
     6  N    3.792553   2.424910   2.794063   2.401981   1.335859
     7  C    2.534211   1.396870   2.377175   2.709106   2.279694
     8  H    1.095535   2.162078   3.065565   4.300619   4.748327
     9  H    1.093818   2.162121   2.714185   4.081244   4.788636
    10  H    1.094096   2.163940   3.399691   4.543079   4.743090
    11  H    2.760795   2.156638   1.088193   2.158587   3.387960
    12  H    4.699798   3.400382   2.162751   1.085301   2.155460
    13  H    5.338938   3.830807   3.391244   2.164276   1.087626
    14  H    2.748677   2.159020   3.375588   3.797410   3.244173
                    6          7          8          9         10
     6  N    0.000000
     7  C    1.337981   0.000000
     8  H    4.283446   3.063004   0.000000
     9  H    4.549646   3.391803   1.767285   0.000000
    10  H    4.025048   2.701591   1.766386   1.766194   0.000000
    11  H    3.882245   3.375045   3.189191   2.534254   3.742515
    12  H    3.372304   3.793749   5.149981   4.809019   5.505109
    13  H    2.054733   3.247143   5.813026   5.864501   5.798802
    14  H    2.051779   1.089089   3.184372   3.727211   2.511669
                   11         12         13         14
    11  H    0.000000
    12  H    2.504477   0.000000
    13  H    4.305651   2.502618   0.000000
    14  H    4.294014   4.881477   4.101343   0.000000
 Stoichiometry    C6H7N
 Framework group  C1[X(C6H7N)]
 Deg. of freedom    36
 Full point group                 C1      NOp   1
 Largest Abelian subgroup         C1      NOp   1
 Largest concise Abelian subgroup C1      NOp   1
                         Standard orientation:                         
 ---------------------------------------------------------------------
 Center     Atomic      Atomic             Coordinates (Angstroms)
 Number     Number       Type             X           Y           Z
 ---------------------------------------------------------------------
      1          6           0       -2.402887    0.013478    0.008444
      2          6           0       -0.892876    0.020681   -0.009807
      3          6           0       -0.159741    1.207539   -0.007425
      4          6           0        1.231681    1.153555    0.002632
      5          6           0        1.848485   -0.094772    0.006701
      6          7           0        1.173811   -1.247729    0.001811
      7          6           0       -0.161857   -1.169635   -0.007426
      8          1           0       -2.785819    0.017988    1.034865
      9          1           0       -2.809859    0.891573   -0.501224
     10          1           0       -2.803695   -0.874570   -0.489320
     11          1           0       -0.674551    2.166237   -0.013236
     12          1           0        1.827648    2.060583    0.002375
     13          1           0        2.932359   -0.185005    0.008953
     14          1           0       -0.679585   -2.127774   -0.013805
 ---------------------------------------------------------------------
 Rotational constants (GHZ):      5.7149227      2.5780838      1.7965589
 Standard basis: 6-31+G(d) (6D, 7F)
 There are   147 symmetry adapted cartesian basis functions of A   symmetry.
 There are   147 symmetry adapted basis functions of A   symmetry.
   147 basis functions,   252 primitive gaussians,   147 cartesian basis functions
    25 alpha electrons       25 beta electrons
       nuclear repulsion energy       271.9782467275 Hartrees.
 NAtoms=   14 NActive=   14 NUniq=   14 SFac= 1.00D+00 NAtFMM=   60 NAOKFM=F Big=F
 Integral buffers will be    131072 words long.
 Raffenetti 2 integral format.
 Two-electron integral symmetry is turned on.
 One-electron integrals computed using PRISM.
 NBasis=   147 RedAO= T EigKep=  1.22D-05  NBF=   147
 NBsUse=   147 1.00D-06 EigRej= -1.00D+00 NBFU=   147
 Initial guess from the checkpoint file:  "/srv/scratch/z5358697/gauss/Gau-11015.chk"
 B after Tr=     0.000000    0.000000    0.000000
         Rot=    0.999999    0.000170   -0.000024   -0.001334 Ang=   0.15 deg.
 ExpMin= 4.38D-02 ExpMax= 4.17D+03 ExpMxC= 6.27D+02 IAcc=2 IRadAn=         4 AccDes= 0.00D+00
 Harris functional with IExCor= 1009 and IRadAn=       4 diagonalized for initial guess.
 HarFok:  IExCor= 1009 AccDes= 0.00D+00 IRadAn=         4 IDoV= 1 UseB2=F ITyADJ=14
 ICtDFT=  3500011 ScaDFX=  1.000000  1.000000  1.000000  1.000000
 FoFCou: FMM=F IPFlag=           0 FMFlag=      100000 FMFlg1=           0
         NFxFlg=           0 DoJE=T BraDBF=F KetDBF=T FulRan=T
         wScrn=  0.000000 ICntrl=     500 IOpCl=  0 I1Cent=   200000004 NGrid=           0
         NMat0=    1 NMatS0=      1 NMatT0=    0 NMatD0=    1 NMtDS0=    0 NMtDT0=    0
 Petite list used in FoFCou.
 Requested convergence on RMS density matrix=1.00D-08 within 128 cycles.
 Requested convergence on MAX density matrix=1.00D-06.
 Requested convergence on             energy=1.00D-06.
 No special actions if energy rises.
 SCF Done:  E(RM062X) =  -287.477514025     A.U. after   12 cycles
            NFock= 12  Conv=0.59D-08     -V/T= 2.0089
 Calling FoFJK, ICntrl=      2127 FMM=F ISym2X=0 I1Cent= 0 IOpClX= 0 NMat=1 NMatS=1 NMatT=0.
 ***** Axes restored to original set *****
 -------------------------------------------------------------------
 Center     Atomic                   Forces (Hartrees/Bohr)
 Number     Number              X              Y              Z
 -------------------------------------------------------------------
      1        6          -0.001553337    0.000090001    0.000219970
      2        6           0.002462710    0.001138281    0.000374989
      3        6          -0.001064475   -0.000493610   -0.000991777
      4        6           0.001346841    0.000969064    0.000268474
      5        6          -0.001362938   -0.001762613    0.001812584
      6        7           0.004188526    0.003043756   -0.000255102
      7        6          -0.004384919   -0.003129784    0.000086163
      8        1          -0.000185943   -0.000220433   -0.000386522
      9        1          -0.000188182    0.000004019   -0.000670945
     10        1          -0.000475751   -0.000677837   -0.000211265
     11        1          -0.000053515    0.000043200    0.000117040
     12        1          -0.000156327   -0.000046472   -0.000111341
     13        1           0.000304736    0.000474373   -0.000921678
     14        1           0.001122574    0.000568056    0.000669409
 -------------------------------------------------------------------
 Cartesian Forces:  Max     0.004384919 RMS     0.001414332

 GradGradGradGradGradGradGradGradGradGradGradGradGradGradGradGradGradGrad
 Berny optimization.
 Using GEDIIS/GDIIS optimizer.
 FormGI is forming the generalized inverse of G from B-inverse, IUseBI=4.
 GSVD:  received Info=                   1 from GESDD.
 Internal  Forces:  Max     0.003327428 RMS     0.000773493
 Search for a local minimum.
 Step number   2 out of a maximum of   72
 All quantities printed in internal units (Hartrees-Bohrs-Radians)
 Mixed Optimization -- En-DIIS/RFO-DIIS
 Update second derivatives using D2CorX and points    1    2
 DE= -1.36D-03 DEPred=-1.37D-03 R= 9.92D-01
 TightC=F SS=  1.41D+00  RLast= 1.08D-01 DXNew= 5.0454D-01 3.2460D-01
 Trust test= 9.92D-01 RLast= 1.08D-01 DXMaxT set to 3.25D-01
 ITU=  1  0
 Use linear search instead of GDIIS.
     Eigenvalues ---    0.00933   0.01697   0.02214   0.02234   0.02249
     Eigenvalues ---    0.02268   0.02291   0.02297   0.02317   0.07185
     Eigenvalues ---    0.07294   0.15149   0.16000   0.16000   0.16000
     Eigenvalues ---    0.16000   0.16000   0.16599   0.22022   0.22946
     Eigenvalues ---    0.24100   0.24844   0.34214   0.34238   0.34318
     Eigenvalues ---    0.35180   0.35217   0.35376   0.35509   0.37192
     Eigenvalues ---    0.43422   0.44421   0.46572   0.47844   0.50152
     Eigenvalues ---    0.54791
 RFO step:  Lambda=-1.42015937D-04 EMin= 9.32811500D-03
 Quartic linear search produced a step of  0.00705.
 Iteration  1 RMS(Cart)=  0.00604529 RMS(Int)=  0.00002488
 Iteration  2 RMS(Cart)=  0.00002511 RMS(Int)=  0.00000543
 Iteration  3 RMS(Cart)=  0.00000000 RMS(Int)=  0.00000543
 Variable       Old X    -DE/DX   Delta X   Delta X   Delta X     New X
                                 (Linear)    (Quad)   (Total)
    R1        2.85375  -0.00271   0.00030  -0.00615  -0.00585   2.84790
    R2        2.07026   0.00009   0.00002   0.00037   0.00038   2.07064
    R3        2.06702   0.00008  -0.00002   0.00012   0.00011   2.06712
    R4        2.06754  -0.00009  -0.00001  -0.00035  -0.00037   2.06717
    R5        2.63624   0.00027   0.00006   0.00108   0.00114   2.63738
    R6        2.63970   0.00068   0.00015   0.00236   0.00251   2.64221
    R7        2.63145  -0.00141   0.00003  -0.00270  -0.00267   2.62878
    R8        2.05639  -0.00005   0.00002  -0.00002   0.00000   2.05639
    R9        2.63126   0.00046   0.00009   0.00155   0.00165   2.63290
   R10        2.05092   0.00012   0.00002   0.00045   0.00046   2.05138
   R11        2.52441  -0.00058  -0.00021  -0.00251  -0.00272   2.52168
   R12        2.05532   0.00002   0.00003   0.00027   0.00031   2.05562
   R13        2.52842  -0.00333  -0.00019  -0.00743  -0.00761   2.52080
   R14        2.05808   0.00052   0.00005   0.00177   0.00182   2.05990
    A1        1.93994  -0.00053   0.00014  -0.00360  -0.00347   1.93647
    A2        1.94182  -0.00046   0.00004  -0.00200  -0.00196   1.93986
    A3        1.94408  -0.00065   0.00006  -0.00322  -0.00317   1.94091
    A4        1.87885   0.00036  -0.00015   0.00037   0.00021   1.87906
    A5        1.87711   0.00043  -0.00016   0.00055   0.00038   1.87749
    A6        1.87896   0.00095   0.00006   0.00845   0.00851   1.88746
    A7        2.12884   0.00044   0.00012   0.00235   0.00247   2.13131
    A8        2.11671  -0.00098   0.00002  -0.00396  -0.00394   2.11277
    A9        2.03750   0.00054  -0.00014   0.00162   0.00148   2.03897
   A10        2.08536  -0.00015  -0.00003  -0.00014  -0.00017   2.08518
   A11        2.09543   0.00001  -0.00007  -0.00090  -0.00097   2.09447
   A12        2.10240   0.00014   0.00010   0.00103   0.00114   2.10353
   A13        2.06850  -0.00039   0.00007  -0.00076  -0.00069   2.06782
   A14        2.11332   0.00035   0.00001   0.00165   0.00166   2.11498
   A15        2.10135   0.00004  -0.00008  -0.00089  -0.00097   2.10038
   A16        2.15321  -0.00040  -0.00008  -0.00235  -0.00243   2.15078
   A17        2.11278  -0.00090   0.00004  -0.00578  -0.00574   2.10703
   A18        2.01718   0.00130   0.00005   0.00814   0.00818   2.02537
   A19        2.04185   0.00160   0.00008   0.00655   0.00663   2.04848
   A20        2.17995  -0.00120   0.00010  -0.00494  -0.00483   2.17511
   A21        2.09542  -0.00075  -0.00014  -0.00658  -0.00673   2.08869
   A22        2.00782   0.00195   0.00004   0.01152   0.01155   2.01937
    D1       -1.55504   0.00004   0.00012   0.00716   0.00728  -1.54776
    D2        1.56766   0.00007  -0.00002   0.00802   0.00800   1.57566
    D3        0.53861  -0.00017   0.00005   0.00387   0.00392   0.54253
    D4       -2.62188  -0.00013  -0.00009   0.00473   0.00464  -2.61724
    D5        2.63519   0.00029   0.00019   0.01105   0.01124   2.64643
    D6       -0.52530   0.00032   0.00005   0.01192   0.01196  -0.51334
    D7        3.11895   0.00001  -0.00016  -0.00004  -0.00020   3.11874
    D8       -0.02247  -0.00004  -0.00016  -0.00231  -0.00247  -0.02495
    D9       -0.00456  -0.00001  -0.00003  -0.00081  -0.00084  -0.00540
   D10        3.13720  -0.00006  -0.00003  -0.00308  -0.00311   3.13409
   D11       -3.11919  -0.00002   0.00016   0.00034   0.00051  -3.11868
   D12        0.02293   0.00009   0.00017   0.00497   0.00512   0.02805
   D13        0.00446   0.00002   0.00003   0.00117   0.00121   0.00566
   D14       -3.13661   0.00012   0.00003   0.00580   0.00582  -3.13079
   D15        0.00272  -0.00003   0.00002  -0.00120  -0.00118   0.00154
   D16        3.13908   0.00003  -0.00002   0.00119   0.00117   3.14025
   D17       -3.13905   0.00002   0.00002   0.00108   0.00110  -3.13795
   D18       -0.00268   0.00008  -0.00002   0.00347   0.00345   0.00077
   D19       -0.00032   0.00007   0.00000   0.00316   0.00316   0.00283
   D20        3.13562   0.00014  -0.00004   0.00581   0.00576   3.14138
   D21       -3.13672   0.00001   0.00003   0.00078   0.00082  -3.13591
   D22       -0.00078   0.00008  -0.00001   0.00343   0.00342   0.00264
   D23       -0.00003  -0.00006   0.00000  -0.00282  -0.00282  -0.00285
   D24       -3.13625  -0.00012   0.00004  -0.00529  -0.00527  -3.14152
   D25       -0.00215   0.00002  -0.00001   0.00060   0.00058  -0.00156
   D26        3.13895  -0.00009  -0.00002  -0.00383  -0.00387   3.13507
         Item               Value     Threshold  Converged?
 Maximum Force            0.003327     0.000450     NO 
 RMS     Force            0.000773     0.000300     NO 
 Maximum Displacement     0.026443     0.001800     NO 
 RMS     Displacement     0.006047     0.001200     NO 
 Predicted change in Energy=-7.113579D-05
 GradGradGradGradGradGradGradGradGradGradGradGradGradGradGradGradGradGrad

                          Input orientation:                          
 ---------------------------------------------------------------------
 Center     Atomic      Atomic             Coordinates (Angstroms)
 Number     Number       Type             X           Y           Z
 ---------------------------------------------------------------------
      1          6           0        2.901011   -0.267624    3.664860
      2          6           0        1.648954   -0.604211    2.896586
      3          6           0        1.378636   -0.056429    1.641724
      4          6           0        0.218734   -0.426520    0.968828
      5          6           0       -0.640743   -1.338108    1.578349
      6          7           0       -0.408104   -1.872494    2.778757
      7          6           0        0.709411   -1.504826    3.407573
      8          1           0        3.717659   -0.948880    3.401009
      9          1           0        3.235343    0.751032    3.447778
     10          1           0        2.737649   -0.349970    4.743354
     11          1           0        2.071660    0.655644    1.198061
     12          1           0       -0.019476   -0.016757   -0.007778
     13          1           0       -1.557793   -1.652723    1.085076
     14          1           0        0.869158   -1.952736    4.388422
 ---------------------------------------------------------------------
                    Distance matrix (angstroms):
                    1          2          3          4          5
     1  C    0.000000
     2  C    1.507045   0.000000
     3  C    2.540730   1.395642   0.000000
     4  C    3.806369   2.406938   1.391089   0.000000
     5  C    4.247763   2.742091   2.392616   1.393273   0.000000
     6  N    3.782992   2.419486   2.789871   2.399919   1.334417
     7  C    2.529817   1.398197   2.379903   2.711269   2.279642
     8  H    1.095738   2.157030   3.059833   4.293115   4.740175
     9  H    1.093875   2.158038   2.713150   4.078204   4.783651
    10  H    1.093901   2.158808   3.398999   4.538484   4.733625
    11  H    2.761402   2.156596   1.088195   2.158000   3.387743
    12  H    4.698984   3.400602   2.162672   1.085546   2.155863
    13  H    5.334297   3.829383   3.388308   2.161744   1.087788
    14  H    2.737074   2.156890   3.376374   3.800791   3.248704
                    6          7          8          9         10
     6  N    0.000000
     7  C    1.333952   0.000000
     8  H    4.273427   3.059195   0.000000
     9  H    4.539293   3.386863   1.767630   0.000000
    10  H    4.009175   2.689192   1.766636   1.771559   0.000000
    11  H    3.878056   3.377173   3.183832   2.534656   3.744850
    12  H    3.370396   3.796083   5.143428   4.808764   5.503275
    13  H    2.058796   3.249012   5.804252   5.859569   5.790595
    14  H    2.056419   1.090050   3.177526   3.714028   2.487186
                   11         12         13         14
    11  H    0.000000
    12  H    2.505798   0.000000
    13  H    4.302820   2.497426   0.000000
    14  H    4.292792   4.885106   4.110012   0.000000
 Stoichiometry    C6H7N
 Framework group  C1[X(C6H7N)]
 Deg. of freedom    36
 Full point group                 C1      NOp   1
 Largest Abelian subgroup         C1      NOp   1
 Largest concise Abelian subgroup C1      NOp   1
                         Standard orientation:                         
 ---------------------------------------------------------------------
 Center     Atomic      Atomic             Coordinates (Angstroms)
 Number     Number       Type             X           Y           Z
 ---------------------------------------------------------------------
      1          6           0       -2.399143    0.017039    0.008867
      2          6           0       -0.892229    0.023736   -0.009793
      3          6           0       -0.155459    1.209056   -0.008066
      4          6           0        1.234383    1.151008    0.001809
      5          6           0        1.846997   -0.100342    0.007811
      6          7           0        1.166079   -1.247939    0.001395
      7          6           0       -0.165609   -1.170825   -0.008015
      8          1           0       -2.778315    0.029482    1.036833
      9          1           0       -2.804042    0.893796   -0.504860
     10          1           0       -2.796934   -0.877561   -0.479060
     11          1           0       -0.668501    2.168685   -0.016392
     12          1           0        1.834670    2.055477    0.002149
     13          1           0        2.931196   -0.188312    0.015369
     14          1           0       -0.694267   -2.124029   -0.019484
 ---------------------------------------------------------------------
 Rotational constants (GHZ):      5.7141201      2.5853532      1.7999892
 Standard basis: 6-31+G(d) (6D, 7F)
 There are   147 symmetry adapted cartesian basis functions of A   symmetry.
 There are   147 symmetry adapted basis functions of A   symmetry.
   147 basis functions,   252 primitive gaussians,   147 cartesian basis functions
    25 alpha electrons       25 beta electrons
       nuclear repulsion energy       272.1654674501 Hartrees.
 NAtoms=   14 NActive=   14 NUniq=   14 SFac= 1.00D+00 NAtFMM=   60 NAOKFM=F Big=F
 Integral buffers will be    131072 words long.
 Raffenetti 2 integral format.
 Two-electron integral symmetry is turned on.
 One-electron integrals computed using PRISM.
 NBasis=   147 RedAO= T EigKep=  1.21D-05  NBF=   147
 NBsUse=   147 1.00D-06 EigRej= -1.00D+00 NBFU=   147
 Initial guess from the checkpoint file:  "/srv/scratch/z5358697/gauss/Gau-11015.chk"
 B after Tr=     0.000000    0.000000    0.000000
         Rot=    0.999999    0.000225   -0.000015    0.001224 Ang=   0.14 deg.
 ExpMin= 4.38D-02 ExpMax= 4.17D+03 ExpMxC= 6.27D+02 IAcc=2 IRadAn=         4 AccDes= 0.00D+00
 Harris functional with IExCor= 1009 and IRadAn=       4 diagonalized for initial guess.
 HarFok:  IExCor= 1009 AccDes= 0.00D+00 IRadAn=         4 IDoV= 1 UseB2=F ITyADJ=14
 ICtDFT=  3500011 ScaDFX=  1.000000  1.000000  1.000000  1.000000
 FoFCou: FMM=F IPFlag=           0 FMFlag=      100000 FMFlg1=           0
         NFxFlg=           0 DoJE=T BraDBF=F KetDBF=T FulRan=T
         wScrn=  0.000000 ICntrl=     500 IOpCl=  0 I1Cent=   200000004 NGrid=           0
         NMat0=    1 NMatS0=      1 NMatT0=    0 NMatD0=    1 NMtDS0=    0 NMtDT0=    0
 Petite list used in FoFCou.
 Requested convergence on RMS density matrix=1.00D-08 within 128 cycles.
 Requested convergence on MAX density matrix=1.00D-06.
 Requested convergence on             energy=1.00D-06.
 No special actions if energy rises.
 SCF Done:  E(RM062X) =  -287.477594502     A.U. after   11 cycles
            NFock= 11  Conv=0.42D-08     -V/T= 2.0088
 Calling FoFJK, ICntrl=      2127 FMM=F ISym2X=0 I1Cent= 0 IOpClX= 0 NMat=1 NMatS=1 NMatT=0.
 ***** Axes restored to original set *****
 -------------------------------------------------------------------
 Center     Atomic                   Forces (Hartrees/Bohr)
 Number     Number              X              Y              Z
 -------------------------------------------------------------------
      1        6          -0.000470149    0.000039436   -0.000116072
      2        6           0.000746062    0.000394831   -0.000157875
      3        6           0.000048401   -0.000229728    0.000276568
      4        6           0.000067578    0.000084870   -0.000151332
      5        6          -0.000167986   -0.000228730    0.000030547
      6        7           0.000301772    0.000058396    0.000173161
      7        6          -0.000761272   -0.000266185    0.000206158
      8        1           0.000009313   -0.000023062   -0.000169165
      9        1           0.000005222    0.000001425    0.000051944
     10        1          -0.000040678   -0.000091804   -0.000075083
     11        1          -0.000007685   -0.000000405    0.000028352
     12        1          -0.000045879   -0.000005007    0.000049214
     13        1           0.000119872    0.000135838   -0.000050625
     14        1           0.000195430    0.000130124   -0.000095791
 -------------------------------------------------------------------
 Cartesian Forces:  Max     0.000761272 RMS     0.000228420

 GradGradGradGradGradGradGradGradGradGradGradGradGradGradGradGradGradGrad
 Berny optimization.
 Using GEDIIS/GDIIS optimizer.
 FormGI is forming the generalized inverse of G from B-inverse, IUseBI=4.
 GSVD:  received Info=                   1 from GESDD.
 Internal  Forces:  Max     0.000587546 RMS     0.000126055
 Search for a local minimum.
 Step number   3 out of a maximum of   72
 All quantities printed in internal units (Hartrees-Bohrs-Radians)
 Mixed Optimization -- En-DIIS/RFO-DIIS
 Swapping is turned off.
 Update second derivatives using D2CorX and points    1    2    3
 DE= -8.05D-05 DEPred=-7.11D-05 R= 1.13D+00
 TightC=F SS=  1.41D+00  RLast= 3.50D-02 DXNew= 5.4592D-01 1.0503D-01
 Trust test= 1.13D+00 RLast= 3.50D-02 DXMaxT set to 3.25D-01
 ITU=  1  1  0
     Eigenvalues ---    0.00884   0.01697   0.02210   0.02232   0.02246
     Eigenvalues ---    0.02256   0.02294   0.02313   0.02334   0.07141
     Eigenvalues ---    0.07342   0.14368   0.16000   0.16000   0.16000
     Eigenvalues ---    0.16000   0.16093   0.16438   0.22057   0.23183
     Eigenvalues ---    0.24462   0.24784   0.34171   0.34235   0.34298
     Eigenvalues ---    0.35172   0.35347   0.35448   0.35519   0.35662
     Eigenvalues ---    0.43528   0.45055   0.46026   0.48045   0.50643
     Eigenvalues ---    0.54493
 En-DIIS/RFO-DIIS IScMMF=        0 using points:     3    2
 RFO step:  Lambda=-2.26698669D-06.
 DidBck=F Rises=F RFO-DIIS coefs:    1.13345   -0.13345
 Iteration  1 RMS(Cart)=  0.00369685 RMS(Int)=  0.00001233
 Iteration  2 RMS(Cart)=  0.00001264 RMS(Int)=  0.00000065
 Iteration  3 RMS(Cart)=  0.00000000 RMS(Int)=  0.00000065
 Variable       Old X    -DE/DX   Delta X   Delta X   Delta X     New X
                                 (Linear)    (Quad)   (Total)
    R1        2.84790  -0.00059  -0.00078  -0.00104  -0.00182   2.84608
    R2        2.07064   0.00006   0.00005   0.00018   0.00024   2.07088
    R3        2.06712  -0.00001   0.00001  -0.00007  -0.00006   2.06707
    R4        2.06717  -0.00005  -0.00005  -0.00016  -0.00021   2.06696
    R5        2.63738  -0.00036   0.00015  -0.00090  -0.00075   2.63663
    R6        2.64221   0.00032   0.00033   0.00069   0.00102   2.64323
    R7        2.62878  -0.00001  -0.00036   0.00025  -0.00011   2.62867
    R8        2.05639  -0.00001   0.00000  -0.00002  -0.00002   2.05637
    R9        2.63290   0.00009   0.00022   0.00020   0.00042   2.63332
   R10        2.05138  -0.00003   0.00006  -0.00013  -0.00007   2.05132
   R11        2.52168   0.00011  -0.00036   0.00023  -0.00013   2.52155
   R12        2.05562  -0.00012   0.00004  -0.00036  -0.00032   2.05530
   R13        2.52080  -0.00026  -0.00102  -0.00006  -0.00107   2.51973
   R14        2.05990  -0.00011   0.00024  -0.00047  -0.00023   2.05966
    A1        1.93647  -0.00017  -0.00046  -0.00085  -0.00132   1.93515
    A2        1.93986   0.00011  -0.00026   0.00115   0.00088   1.94074
    A3        1.94091  -0.00009  -0.00042  -0.00025  -0.00068   1.94024
    A4        1.87906   0.00002   0.00003  -0.00018  -0.00015   1.87891
    A5        1.87749   0.00011   0.00005   0.00029   0.00033   1.87782
    A6        1.88746   0.00004   0.00114  -0.00016   0.00097   1.88844
    A7        2.13131   0.00007   0.00033   0.00025   0.00058   2.13189
    A8        2.11277  -0.00010  -0.00053  -0.00003  -0.00055   2.11222
    A9        2.03897   0.00004   0.00020  -0.00022  -0.00003   2.03895
   A10        2.08518   0.00003  -0.00002   0.00006   0.00003   2.08522
   A11        2.09447  -0.00004  -0.00013  -0.00022  -0.00035   2.09412
   A12        2.10353   0.00001   0.00015   0.00016   0.00031   2.10385
   A13        2.06782  -0.00002  -0.00009   0.00006  -0.00003   2.06779
   A14        2.11498   0.00004   0.00022   0.00013   0.00035   2.11533
   A15        2.10038  -0.00002  -0.00013  -0.00019  -0.00032   2.10007
   A16        2.15078   0.00000  -0.00032   0.00020  -0.00012   2.15066
   A17        2.10703  -0.00016  -0.00077  -0.00060  -0.00136   2.10567
   A18        2.02537   0.00016   0.00109   0.00039   0.00148   2.02684
   A19        2.04848  -0.00006   0.00089  -0.00072   0.00016   2.04865
   A20        2.17511   0.00001  -0.00065   0.00061  -0.00003   2.17508
   A21        2.08869  -0.00023  -0.00090  -0.00114  -0.00204   2.08665
   A22        2.01937   0.00022   0.00154   0.00054   0.00208   2.02145
    D1       -1.54776   0.00006   0.00097   0.00792   0.00889  -1.53887
    D2        1.57566   0.00007   0.00107   0.00794   0.00901   1.58467
    D3        0.54253   0.00005   0.00052   0.00789   0.00841   0.55094
    D4       -2.61724   0.00005   0.00062   0.00791   0.00853  -2.60870
    D5        2.64643   0.00010   0.00150   0.00829   0.00979   2.65621
    D6       -0.51334   0.00011   0.00160   0.00831   0.00991  -0.50343
    D7        3.11874  -0.00003  -0.00003  -0.00139  -0.00141   3.11733
    D8       -0.02495  -0.00002  -0.00033  -0.00104  -0.00137  -0.02632
    D9       -0.00540  -0.00003  -0.00011  -0.00141  -0.00153  -0.00693
   D10        3.13409  -0.00003  -0.00042  -0.00107  -0.00149   3.13261
   D11       -3.11868   0.00004   0.00007   0.00224   0.00231  -3.11637
   D12        0.02805  -0.00002   0.00068  -0.00120  -0.00052   0.02753
   D13        0.00566   0.00005   0.00016   0.00227   0.00243   0.00810
   D14       -3.13079  -0.00001   0.00078  -0.00117  -0.00040  -3.13118
   D15        0.00154   0.00000  -0.00016  -0.00006  -0.00021   0.00133
   D16        3.14025  -0.00001   0.00016  -0.00083  -0.00067   3.13958
   D17       -3.13795  -0.00001   0.00015  -0.00040  -0.00025  -3.13820
   D18        0.00077  -0.00002   0.00046  -0.00118  -0.00072   0.00005
   D19        0.00283   0.00003   0.00042   0.00096   0.00138   0.00421
   D20        3.14138  -0.00001   0.00077  -0.00114  -0.00037   3.14100
   D21       -3.13591   0.00004   0.00011   0.00173   0.00183  -3.13407
   D22        0.00264   0.00000   0.00046  -0.00037   0.00008   0.00272
   D23       -0.00285  -0.00001  -0.00038  -0.00024  -0.00061  -0.00346
   D24       -3.14152   0.00003  -0.00070   0.00177   0.00107  -3.14045
   D25       -0.00156  -0.00003   0.00008  -0.00144  -0.00137  -0.00293
   D26        3.13507   0.00003  -0.00052   0.00187   0.00136   3.13643
         Item               Value     Threshold  Converged?
 Maximum Force            0.000588     0.000450     NO 
 RMS     Force            0.000126     0.000300     YES
 Maximum Displacement     0.016670     0.001800     NO 
 RMS     Displacement     0.003697     0.001200     NO 
 Predicted change in Energy=-4.327270D-06
 GradGradGradGradGradGradGradGradGradGradGradGradGradGradGradGradGradGrad

                          Input orientation:                          
 ---------------------------------------------------------------------
 Center     Atomic      Atomic             Coordinates (Angstroms)
 Number     Number       Type             X           Y           Z
 ---------------------------------------------------------------------
      1          6           0        2.900381   -0.267938    3.664457
      2          6           0        1.648859   -0.603219    2.896628
      3          6           0        1.379086   -0.056807    1.641494
      4          6           0        0.219538   -0.427574    0.968476
      5          6           0       -0.640132   -1.338980    1.578500
      6          7           0       -0.408455   -1.871125    2.780014
      7          6           0        0.707857   -1.502310    3.409089
      8          1           0        3.717888   -0.945727    3.393903
      9          1           0        3.232225    0.752806    3.453611
     10          1           0        2.738676   -0.358791    4.742404
     11          1           0        2.072477    0.654825    1.197723
     12          1           0       -0.018895   -0.018485   -0.008319
     13          1           0       -1.556666   -1.652947    1.084226
     14          1           0        0.869260   -1.948327    4.390394
 ---------------------------------------------------------------------
                    Distance matrix (angstroms):
                    1          2          3          4          5
     1  C    0.000000
     2  C    1.506082   0.000000
     3  C    2.539940   1.395244   0.000000
     4  C    3.805354   2.406571   1.391033   0.000000
     5  C    4.246596   2.741949   2.392735   1.393493   0.000000
     6  N    3.781646   2.419447   2.789853   2.399975   1.334349
     7  C    2.529041   1.398737   2.380005   2.711108   2.279212
     8  H    1.095862   2.155336   3.054687   4.288313   4.737370
     9  H    1.093844   2.157796   2.715394   4.079887   4.784011
    10  H    1.093788   2.157390   3.399312   4.537986   4.731532
    11  H    2.760741   2.156016   1.088184   2.158131   3.387994
    12  H    4.698264   3.400300   2.162800   1.085511   2.155839
    13  H    5.333020   3.829115   3.387750   2.160980   1.087619
    14  H    2.734254   2.156021   3.375533   3.800572   3.249048
                    6          7          8          9         10
     6  N    0.000000
     7  C    1.333384   0.000000
     8  H    4.273163   3.061094   0.000000
     9  H    4.537984   3.385257   1.767611   0.000000
    10  H    4.005316   2.685067   1.766863   1.772068   0.000000
    11  H    3.878027   3.377212   3.176846   2.538433   3.746465
    12  H    3.370287   3.795865   5.137941   4.811407   5.503578
    13  H    2.059535   3.248960   5.801351   5.859617   5.788528
    14  H    2.057144   1.089927   3.180075   3.709082   2.478962
                   11         12         13         14
    11  H    0.000000
    12  H    2.506337   0.000000
    13  H    4.302252   2.495969   0.000000
    14  H    4.291536   4.884853   4.111339   0.000000
 Stoichiometry    C6H7N
 Framework group  C1[X(C6H7N)]
 Deg. of freedom    36
 Full point group                 C1      NOp   1
 Largest Abelian subgroup         C1      NOp   1
 Largest concise Abelian subgroup C1      NOp   1
                         Standard orientation:                         
 ---------------------------------------------------------------------
 Center     Atomic      Atomic             Coordinates (Angstroms)
 Number     Number       Type             X           Y           Z
 ---------------------------------------------------------------------
      1          6           0       -2.398236    0.017038    0.009573
      2          6           0       -0.892302    0.024313   -0.010203
      3          6           0       -0.155508    1.209150   -0.008745
      4          6           0        1.234265    1.150880    0.001777
      5          6           0        1.846726   -0.100784    0.008943
      6          7           0        1.165495   -1.248110    0.001512
      7          6           0       -0.165603   -1.170833   -0.009405
      8          1           0       -2.775376    0.038192    1.038277
      9          1           0       -2.804819    0.889049   -0.510795
     10          1           0       -2.795180   -0.882515   -0.469606
     11          1           0       -0.668684    2.168688   -0.017745
     12          1           0        1.835001    2.055009    0.001305
     13          1           0        2.930857   -0.187472    0.016684
     14          1           0       -0.696319   -2.122758   -0.020351
 ---------------------------------------------------------------------
 Rotational constants (GHZ):      5.7140817      2.5867161      1.8006599
 Standard basis: 6-31+G(d) (6D, 7F)
 There are   147 symmetry adapted cartesian basis functions of A   symmetry.
 There are   147 symmetry adapted basis functions of A   symmetry.
   147 basis functions,   252 primitive gaussians,   147 cartesian basis functions
    25 alpha electrons       25 beta electrons
       nuclear repulsion energy       272.2017235693 Hartrees.
 NAtoms=   14 NActive=   14 NUniq=   14 SFac= 1.00D+00 NAtFMM=   60 NAOKFM=F Big=F
 Integral buffers will be    131072 words long.
 Raffenetti 2 integral format.
 Two-electron integral symmetry is turned on.
 One-electron integrals computed using PRISM.
 NBasis=   147 RedAO= T EigKep=  1.21D-05  NBF=   147
 NBsUse=   147 1.00D-06 EigRej= -1.00D+00 NBFU=   147
 Initial guess from the checkpoint file:  "/srv/scratch/z5358697/gauss/Gau-11015.chk"
 B after Tr=     0.000000    0.000000    0.000000
         Rot=    1.000000    0.000261   -0.000023    0.000040 Ang=   0.03 deg.
 Requested convergence on RMS density matrix=1.00D-08 within 128 cycles.
 Requested convergence on MAX density matrix=1.00D-06.
 Requested convergence on             energy=1.00D-06.
 No special actions if energy rises.
 SCF Done:  E(RM062X) =  -287.477600624     A.U. after   10 cycles
            NFock= 10  Conv=0.72D-08     -V/T= 2.0088
 Calling FoFJK, ICntrl=      2127 FMM=F ISym2X=0 I1Cent= 0 IOpClX= 0 NMat=1 NMatS=1 NMatT=0.
 ***** Axes restored to original set *****
 -------------------------------------------------------------------
 Center     Atomic                   Forces (Hartrees/Bohr)
 Number     Number              X              Y              Z
 -------------------------------------------------------------------
      1        6          -0.000073250   -0.000040399   -0.000039412
      2        6           0.000018222    0.000064310   -0.000024037
      3        6           0.000112220   -0.000089211    0.000069996
      4        6          -0.000124293   -0.000083485   -0.000039492
      5        6           0.000038885    0.000238091   -0.000157532
      6        7          -0.000129939   -0.000157121    0.000151933
      7        6           0.000120292    0.000025790    0.000011216
      8        1           0.000037843    0.000058639   -0.000070418
      9        1          -0.000012330    0.000041806    0.000092625
     10        1           0.000056604   -0.000035798    0.000002756
     11        1          -0.000010661    0.000006862   -0.000028421
     12        1          -0.000009090   -0.000012905    0.000012119
     13        1           0.000012565   -0.000046077    0.000015736
     14        1          -0.000037068    0.000029497    0.000002931
 -------------------------------------------------------------------
 Cartesian Forces:  Max     0.000238091 RMS     0.000078210

 GradGradGradGradGradGradGradGradGradGradGradGradGradGradGradGradGradGrad
 Berny optimization.
 Using GEDIIS/GDIIS optimizer.
 FormGI is forming the generalized inverse of G from B-inverse, IUseBI=4.
 GSVD:  received Info=                   1 from GESDD.
 Internal  Forces:  Max     0.000164485 RMS     0.000044421
 Search for a local minimum.
 Step number   4 out of a maximum of   72
 All quantities printed in internal units (Hartrees-Bohrs-Radians)
 Mixed Optimization -- En-DIIS/RFO-DIIS
 Swapping is turned off.
 Update second derivatives using D2CorX and points    1    2    3    4
 DE= -6.12D-06 DEPred=-4.33D-06 R= 1.41D+00
 TightC=F SS=  1.41D+00  RLast= 2.35D-02 DXNew= 5.4592D-01 7.0598D-02
 Trust test= 1.41D+00 RLast= 2.35D-02 DXMaxT set to 3.25D-01
 ITU=  1  1  1  0
     Eigenvalues ---    0.00349   0.01698   0.02216   0.02232   0.02248
     Eigenvalues ---    0.02274   0.02294   0.02317   0.02636   0.07284
     Eigenvalues ---    0.07368   0.15711   0.15926   0.16000   0.16000
     Eigenvalues ---    0.16000   0.16124   0.17833   0.22045   0.23196
     Eigenvalues ---    0.24518   0.24986   0.34223   0.34256   0.34323
     Eigenvalues ---    0.35188   0.35334   0.35434   0.35513   0.38930
     Eigenvalues ---    0.43496   0.44699   0.47831   0.48596   0.53248
     Eigenvalues ---    0.54746
 En-DIIS/RFO-DIIS IScMMF=        0 using points:     4    3    2
 RFO step:  Lambda=-6.88420843D-07.
 DidBck=F Rises=F RFO-DIIS coefs:    1.41488   -0.34479   -0.07009
 Iteration  1 RMS(Cart)=  0.00714750 RMS(Int)=  0.00004932
 Iteration  2 RMS(Cart)=  0.00005094 RMS(Int)=  0.00000045
 Iteration  3 RMS(Cart)=  0.00000000 RMS(Int)=  0.00000045
 Variable       Old X    -DE/DX   Delta X   Delta X   Delta X     New X
                                 (Linear)    (Quad)   (Total)
    R1        2.84608   0.00000  -0.00116  -0.00042  -0.00159   2.84449
    R2        2.07088   0.00001   0.00012   0.00011   0.00023   2.07111
    R3        2.06707   0.00001  -0.00002   0.00002   0.00001   2.06707
    R4        2.06696   0.00000  -0.00011  -0.00005  -0.00017   2.06679
    R5        2.63663  -0.00003  -0.00023  -0.00035  -0.00058   2.63605
    R6        2.64323   0.00003   0.00060   0.00043   0.00103   2.64426
    R7        2.62867   0.00009  -0.00023   0.00025   0.00002   2.62870
    R8        2.05637   0.00001  -0.00001   0.00004   0.00003   2.05640
    R9        2.63332  -0.00009   0.00029  -0.00012   0.00017   2.63349
   R10        2.05132  -0.00001   0.00000  -0.00007  -0.00006   2.05126
   R11        2.52155   0.00016  -0.00024   0.00035   0.00011   2.52166
   R12        2.05530   0.00000  -0.00011  -0.00012  -0.00023   2.05507
   R13        2.51973   0.00011  -0.00098  -0.00002  -0.00100   2.51873
   R14        2.05966  -0.00002   0.00003  -0.00016  -0.00013   2.05953
    A1        1.93515  -0.00001  -0.00079  -0.00036  -0.00115   1.93400
    A2        1.94074   0.00005   0.00023   0.00074   0.00097   1.94171
    A3        1.94024   0.00004  -0.00050   0.00018  -0.00032   1.93991
    A4        1.87891  -0.00003  -0.00005  -0.00031  -0.00035   1.87856
    A5        1.87782  -0.00001   0.00017   0.00005   0.00021   1.87803
    A6        1.88844  -0.00006   0.00100  -0.00034   0.00066   1.88910
    A7        2.13189   0.00001   0.00041   0.00026   0.00068   2.13257
    A8        2.11222   0.00000  -0.00050  -0.00012  -0.00062   2.11160
    A9        2.03895  -0.00001   0.00009  -0.00015  -0.00006   2.03888
   A10        2.08522   0.00002   0.00000   0.00008   0.00008   2.08530
   A11        2.09412   0.00001  -0.00021   0.00004  -0.00017   2.09395
   A12        2.10385  -0.00004   0.00021  -0.00012   0.00009   2.10394
   A13        2.06779   0.00000  -0.00006  -0.00001  -0.00007   2.06772
   A14        2.11533   0.00000   0.00026   0.00015   0.00041   2.11574
   A15        2.10007  -0.00001  -0.00020  -0.00014  -0.00034   2.09973
   A16        2.15066   0.00003  -0.00022   0.00018  -0.00004   2.15062
   A17        2.10567   0.00001  -0.00097  -0.00023  -0.00120   2.10447
   A18        2.02684  -0.00004   0.00119   0.00006   0.00125   2.02809
   A19        2.04865  -0.00008   0.00053  -0.00040   0.00014   2.04878
   A20        2.17508   0.00003  -0.00035   0.00031  -0.00004   2.17504
   A21        2.08665   0.00001  -0.00132  -0.00052  -0.00184   2.08481
   A22        2.02145  -0.00004   0.00167   0.00021   0.00188   2.02333
    D1       -1.53887   0.00008   0.00420   0.01375   0.01794  -1.52092
    D2        1.58467   0.00008   0.00430   0.01337   0.01767   1.60234
    D3        0.55094   0.00008   0.00376   0.01361   0.01737   0.56831
    D4       -2.60870   0.00008   0.00387   0.01323   0.01710  -2.59161
    D5        2.65621   0.00007   0.00485   0.01380   0.01865   2.67487
    D6       -0.50343   0.00007   0.00495   0.01343   0.01838  -0.48505
    D7        3.11733   0.00001  -0.00060  -0.00021  -0.00081   3.11651
    D8       -0.02632   0.00001  -0.00074  -0.00001  -0.00075  -0.02707
    D9       -0.00693   0.00001  -0.00069   0.00015  -0.00054  -0.00747
   D10        3.13261   0.00001  -0.00083   0.00036  -0.00048   3.13213
   D11       -3.11637  -0.00002   0.00099  -0.00036   0.00063  -3.11574
   D12        0.02753   0.00003   0.00014   0.00149   0.00164   0.02917
   D13        0.00810  -0.00003   0.00109  -0.00071   0.00038   0.00848
   D14       -3.13118   0.00002   0.00024   0.00114   0.00138  -3.12980
   D15        0.00133   0.00001  -0.00017   0.00054   0.00037   0.00170
   D16        3.13958   0.00001  -0.00020   0.00015  -0.00005   3.13953
   D17       -3.13820   0.00001  -0.00003   0.00033   0.00030  -3.13790
   D18        0.00005   0.00000  -0.00005  -0.00006  -0.00012  -0.00006
   D19        0.00421  -0.00002   0.00079  -0.00078   0.00001   0.00422
   D20        3.14100   0.00002   0.00025   0.00070   0.00095  -3.14124
   D21       -3.13407  -0.00002   0.00082  -0.00039   0.00043  -3.13364
   D22        0.00272   0.00002   0.00027   0.00109   0.00136   0.00408
   D23       -0.00346   0.00001  -0.00045   0.00026  -0.00019  -0.00365
   D24       -3.14045  -0.00003   0.00007  -0.00116  -0.00108  -3.14153
   D25       -0.00293   0.00002  -0.00053   0.00051  -0.00001  -0.00294
   D26        3.13643  -0.00003   0.00029  -0.00128  -0.00099   3.13544
         Item               Value     Threshold  Converged?
 Maximum Force            0.000164     0.000450     YES
 RMS     Force            0.000044     0.000300     YES
 Maximum Displacement     0.030938     0.001800     NO 
 RMS     Displacement     0.007147     0.001200     NO 
 Predicted change in Energy=-4.477609D-06
 GradGradGradGradGradGradGradGradGradGradGradGradGradGradGradGradGradGrad

                          Input orientation:                          
 ---------------------------------------------------------------------
 Center     Atomic      Atomic             Coordinates (Angstroms)
 Number     Number       Type             X           Y           Z
 ---------------------------------------------------------------------
      1          6           0        2.899791   -0.268255    3.664235
      2          6           0        1.648871   -0.602399    2.896576
      3          6           0        1.380232   -0.058361    1.640510
      4          6           0        0.220717   -0.429417    0.967570
      5          6           0       -0.640305   -1.338605    1.579197
      6          7           0       -0.409835   -1.868227    2.782119
      7          6           0        0.706115   -1.499505    3.410773
      8          1           0        3.720615   -0.937127    3.381320
      9          1           0        3.224657    0.757237    3.465919
     10          1           0        2.742245   -0.375163    4.741234
     11          1           0        2.074592    0.651759    1.195790
     12          1           0       -0.017212   -0.022228   -0.010105
     13          1           0       -1.556042   -1.652624    1.083748
     14          1           0        0.867657   -1.941686    4.393714
 ---------------------------------------------------------------------
                    Distance matrix (angstroms):
                    1          2          3          4          5
     1  C    0.000000
     2  C    1.505242   0.000000
     3  C    2.539405   1.394936   0.000000
     4  C    3.804657   2.406369   1.391046   0.000000
     5  C    4.245623   2.741863   2.392771   1.393581   0.000000
     6  N    3.780432   2.419441   2.789844   2.400074   1.334406
     7  C    2.528326   1.399281   2.380160   2.711077   2.278905
     8  H    1.095985   2.153867   3.046316   4.281734   4.735658
[...]
         Item               Value     Threshold  Converged?
 Maximum Force            0.000002     0.000450     YES
 RMS     Force            0.000001     0.000300     YES
 Maximum Displacement     0.002175     0.001800     NO 
 RMS     Displacement     0.000591     0.001200     YES
 Predicted change in Energy=-2.418287D-09
 Optimization completed on the basis of negligible forces.
    -- Stationary point found.
                           ----------------------------
                           !   Optimized Parameters   !
                           ! (Angstroms and Degrees)  !
 --------------------------                            --------------------------
 ! Name  Definition              Value          Derivative Info.                !
 --------------------------------------------------------------------------------
 ! R1    R(1,2)                  1.5059         -DE/DX =    0.0                 !
 ! R2    R(1,8)                  1.0953         -DE/DX =    0.0                 !
 ! R3    R(1,9)                  1.0949         -DE/DX =    0.0                 !
 ! R4    R(1,10)                 1.0935         -DE/DX =    0.0                 !
 ! R5    R(2,3)                  1.3965         -DE/DX =    0.0                 !
 ! R6    R(2,7)                  1.3975         -DE/DX =    0.0                 !
 ! R7    R(3,4)                  1.3899         -DE/DX =    0.0                 !
 ! R8    R(3,11)                 1.0884         -DE/DX =    0.0                 !
 ! R9    R(4,5)                  1.3946         -DE/DX =    0.0                 !
 ! R10   R(4,12)                 1.0855         -DE/DX =    0.0                 !
 ! R11   R(5,6)                  1.3332         -DE/DX =    0.0                 !
 ! R12   R(5,13)                 1.0877         -DE/DX =    0.0                 !
 ! R13   R(6,7)                  1.3347         -DE/DX =    0.0                 !
 ! R14   R(7,14)                 1.0897         -DE/DX =    0.0                 !
 ! A1    A(2,1,8)              111.0639         -DE/DX =    0.0                 !
 ! A2    A(2,1,9)              111.1385         -DE/DX =    0.0                 !
 ! A3    A(2,1,10)             111.0669         -DE/DX =    0.0                 !
 ! A4    A(8,1,9)              107.5898         -DE/DX =    0.0                 !
 ! A5    A(8,1,10)             107.8562         -DE/DX =    0.0                 !
 ! A6    A(9,1,10)             107.9697         -DE/DX =    0.0                 !
 ! A7    A(1,2,3)              121.8332         -DE/DX =    0.0                 !
 ! A8    A(1,2,7)              121.3391         -DE/DX =    0.0                 !
 ! A9    A(3,2,7)              116.8273         -DE/DX =    0.0                 !
 ! A10   A(2,3,4)              119.4729         -DE/DX =    0.0                 !
 ! A11   A(2,3,11)             119.9808         -DE/DX =    0.0                 !
 ! A12   A(4,3,11)             120.5463         -DE/DX =    0.0                 !
 ! A13   A(3,4,5)              118.4688         -DE/DX =    0.0                 !
 ! A14   A(3,4,12)             121.2298         -DE/DX =    0.0                 !
 ! A15   A(5,4,12)             120.3015         -DE/DX =    0.0                 !
 ! A16   A(4,5,6)              123.2434         -DE/DX =    0.0                 !
 ! A17   A(4,5,13)             120.6154         -DE/DX =    0.0                 !
 ! A18   A(6,5,13)             116.1412         -DE/DX =    0.0                 !
 ! A19   A(5,6,7)              117.3617         -DE/DX =    0.0                 !
 ! A20   A(2,7,6)              124.6258         -DE/DX =    0.0                 !
 ! A21   A(2,7,14)             119.5836         -DE/DX =    0.0                 !
 ! A22   A(6,7,14)             115.7905         -DE/DX =    0.0                 !
 ! D1    D(8,1,2,3)            -64.6034         -DE/DX =    0.0                 !
 ! D2    D(8,1,2,7)            115.1568         -DE/DX =    0.0                 !
 ! D3    D(9,1,2,3)             55.1398         -DE/DX =    0.0                 !
 ! D4    D(9,1,2,7)           -125.1            -DE/DX =    0.0                 !
 ! D5    D(10,1,2,3)           175.3649         -DE/DX =    0.0                 !
 ! D6    D(10,1,2,7)            -4.8749         -DE/DX =    0.0                 !
 ! D7    D(1,2,3,4)            179.6833         -DE/DX =    0.0                 !
 ! D8    D(1,2,3,11)            -0.3611         -DE/DX =    0.0                 !
 ! D9    D(7,2,3,4)             -0.0872         -DE/DX =    0.0                 !
 ! D10   D(7,2,3,11)           179.8684         -DE/DX =    0.0                 !
 ! D11   D(1,2,7,6)           -179.6647         -DE/DX =    0.0                 !
 ! D12   D(1,2,7,14)             0.3789         -DE/DX =    0.0                 !
 ! D13   D(3,2,7,6)              0.107          -DE/DX =    0.0                 !
 ! D14   D(3,2,7,14)          -179.8493         -DE/DX =    0.0                 !
 ! D15   D(2,3,4,5)              0.0132         -DE/DX =    0.0                 !
 ! D16   D(2,3,4,12)           179.9582         -DE/DX =    0.0                 !
 ! D17   D(11,3,4,5)          -179.942          -DE/DX =    0.0                 !
 ! D18   D(11,3,4,12)            0.0029         -DE/DX =    0.0                 !
 ! D19   D(3,4,5,6)              0.0552         -DE/DX =    0.0                 !
 ! D20   D(3,4,5,13)           179.9997         -DE/DX =    0.0                 !
 ! D21   D(12,4,5,6)          -179.8902         -DE/DX =    0.0                 !
 ! D22   D(12,4,5,13)            0.0542         -DE/DX =    0.0                 !
 ! D23   D(4,5,6,7)             -0.041          -DE/DX =    0.0                 !
 ! D24   D(13,5,6,7)          -179.9877         -DE/DX =    0.0                 !
 ! D25   D(5,6,7,2)             -0.0433         -DE/DX =    0.0                 !
 ! D26   D(5,6,7,14)           179.9146         -DE/DX =    0.0                 !
 --------------------------------------------------------------------------------
 GradGradGradGradGradGradGradGradGradGradGradGradGradGradGradGradGradGrad

 1\1\GINC-KATANA1\Freq\RM062X\6-31+G(d)\C6H7N1\Z5358697\21-Mar-2025\0\\
 #N Geom=AllCheck Guess=TCheck SCRF=Check GenChk RM062X/6-31+G(d) Freq\
 \3-methylpyridine\\0,1\C,2.9002027561,-0.2667371709,3.6636180485\C,1.6
 504939609,-0.6106110082,2.8970805546\C,1.4135678241,-0.1139892805,1.61
 35455672\C,0.2461326887,-0.4684950035,0.9478605328\C,-0.6554763635,-1.
 3153597997,1.5920265555\N,-0.4539227742,-1.8019213768,2.8168021068\C,0
 .6729847859,-1.4493831014,3.4391753723\H,3.7900261136,-0.6663089142,3.
 1654748931\H,3.0265066603,0.8176780562,3.746910122\H,2.8675468926,-0.6
 812346335,4.6749638869\H,2.1401601491,0.5456888099,1.1429126647\H,0.03
 28235676,-0.0985535427,-0.0501176229\H,-1.5798574307,-1.6150982037,1.1
 034282829\H,0.8109111693,-1.8602748311,4.4389190356\\Version=ES64L-G09
 RevD.01\State=1-A\HF=-287.4777095\RMSD=3.483e-09\RMSF=3.443e-06\ZeroPo
 int=0.1175647\Thermal=0.123576\Dipole=0.763352,0.6030756,-0.3277466\Di
 poleDeriv=-0.0198602,-0.0352714,-0.0654362,-0.0447044,0.0823043,-0.026
 6581,0.0119341,0.0028596,0.1053942,0.2272191,0.0233632,0.2480665,0.089
 3507,-0.0875763,0.2069787,0.0956637,0.1239442,-0.1823876,0.052966,0.09
 12552,0.0153533,0.1164005,-0.0029174,-0.0900137,-0.0326953,-0.1193979,
 0.0918749,-0.2514728,-0.036318,-0.0873841,-0.1095257,-0.1178965,-0.123
 6289,0.0618719,-0.0368734,0.0286076,0.291688,0.0974641,0.1642042,0.194
 7963,0.0858296,0.0327843,-0.0321563,-0.0819595,0.1179005,-0.4116292,-0
 .0742019,0.0013434,-0.0752624,-0.3544572,0.0434389,0.0063258,0.0471567
 ,-0.3757211,0.0381989,0.0990754,-0.1296009,-0.0145767,0.0887514,-0.229
 2966,0.0968878,-0.0984802,0.2958126,-0.0928456,0.0196857,0.0004065,0.0
 485547,0.0587564,-0.0389901,0.045878,-0.0509232,0.0096554,0.0242712,-0
 .0029516,-0.0396308,-0.057781,-0.0975605,-0.0352927,-0.0477349,0.00366
 92,0.0525503,0.0469779,-0.0329576,0.0421065,0.002454,0.0442938,0.08841
 64,-0.05292,0.0390312,-0.0888637,0.0060278,-0.0878592,0.041865,-0.0841
 269,0.0442976,0.0535062,0.0320402,0.0471477,0.0622022,0.0766218,-0.014
 6305,-0.045335,-0.0122242,0.0989559,0.0680086,-0.0513335,0.0641561,-0.
 050538,-0.0452547,-0.0455384,-0.0935794,-0.0543274,0.0840956,-0.009102
 9,-0.0759662,0.0012468,0.0188652,0.0570917,-0.001115,-0.052379,0.00097
 26,0.0731233,0.0598499,-0.0577953,0.0584226,-0.0853525\Polar=79.590854
 4,14.274695,57.3892406,12.2426037,-9.0890305,77.304645\PG=C01 [X(C6H7N
 1)]\NImag=0\\0.52307708,-0.00495748,0.56447208,-0.02634712,-0.02092288
 ,0.57041078,-0.18464135,-0.03371710,-0.06674800,0.57307739,-0.03478109
 ,-0.08539402,-0.01200409,0.18950379,0.35982988,-0.06296971,-0.01010380
 ,-0.12503553,0.09431982,-0.16593294,0.61318767,-0.00497572,0.00972774,
 -0.02982423,-0.12203283,-0.02726291,-0.00968264,0.61776004,-0.00061277
 ,0.00672480,-0.00781247,0.00252878,-0.12038583,0.11058106,0.23514644,0
 .37009434,-0.00865237,0.00429372,-0.01563631,-0.07027292,0.07476650,-0
 .30110327,0.08838794,-0.18250314,0.61411096,0.00512654,-0.00109547,0.0
 0026763,0.01691803,0.04304239,-0.07232025,-0.28735930,-0.09329743,-0.0
 7788840,0.58023779,-0.00142981,0.00305762,0.00502646,0.02236340,0.0320
 7906,-0.03006296,-0.06408722,-0.10498010,0.01140383,0.19937506,0.34800
 094,0.00095220,0.00490726,-0.00301842,-0.03001624,-0.00515529,-0.02051
 689,-0.13722468,-0.02337097,-0.17705497,0.12559879,-0.19678771,0.67944
 768,-0.00181057,-0.00057644,-0.00004189,-0.00823199,-0.00733194,0.0166
 4936,-0.03922194,-0.02182578,-0.01168013,-0.21629654,-0.12342966,0.077
 07338,0.64326909,-0.00144318,-0.00096163,-0.00014162,-0.01380934,-0.03
 478866,0.03363621,-0.04525811,0.00044429,-0.03907864,-0.09088844,-0.16
 937366,0.09190697,0.21664168,0.36111249,0.00104735,0.00068808,-0.00017
 121,0.03031044,0.04151586,-0.05827946,0.03586703,-0.01104628,0.0729504
 9,0.01126590,0.05342882,-0.16509283,0.13592098,-0.15288124,0.62898971,
 0.00207757,-0.00532467,0.00189298,-0.05374183,-0.05952700,0.03147134,-
 0.03268697,0.00775089,-0.04392764,0.06189278,0.01680005,0.01111116,-0.
 12154171,-0.01921102,-0.02441933,0.44217696,-0.00378110,0.00405087,0.0
 0503209,-0.02870122,0.00908090,-0.00820498,0.00830996,-0.00495898,0.00
 153076,-0.01373487,-0.00095063,0.03355633,-0.00153891,-0.12373814,0.11
 104111,0.11170650,0.21993716,-0.00033528,0.00400802,0.00026612,-0.0312
 8117,-0.04528624,0.07584831,-0.04492856,0.00087878,-0.06445434,0.07318
 521,0.06990171,-0.03110194,-0.06026444,0.09005868,-0.32174058,0.183553
 82,-0.11798232,0.55291053,-0.02090026,-0.01735821,0.00680282,-0.204281
 68,-0.08159831,0.00866267,0.05300156,-0.00724562,0.06942246,-0.0694189
 0,-0.03879752,0.00773326,-0.00012854,0.04543399,-0.09595436,-0.2827261
 1,-0.08414152,-0.08432263,0.57555821,-0.00726234,-0.00164861,0.0004320
 5,-0.11608285,-0.16429379,0.04991098,0.01480077,-0.00870526,0.05011425
 ,-0.03091081,-0.02839317,0.00120459,0.01826455,0.02834195,-0.02959746,
 -0.06635741,-0.10700581,0.00143717,0.18673576,0.36148565,-0.01306145,-
 0.01121948,0.00990468,0.07890274,0.09143091,-0.16356679,0.02464775,0.0
 2369459,-0.01146074,-0.00862702,-0.00833318,-0.00296530,-0.04073724,0.
 00298126,-0.05118184,-0.12031359,-0.01984822,-0.17006258,0.11489983,-0
 .19025749,0.68181355,-0.22198983,0.08279603,0.10222445,-0.02345818,0.0
 0751626,0.01047233,0.00138640,-0.00104775,0.00142295,-0.00010834,-0.00
 136736,-0.00059910,0.00005606,0.00011501,-0.00005757,-0.00012982,-0.00
 158383,-0.00053521,-0.00168556,0.00097431,-0.00240535,0.24299713,0.081
 68545,-0.08368308,-0.04609156,-0.00897340,0.00310133,0.00474964,0.0006
 8584,0.00069860,0.00061982,-0.00029611,-0.00046697,-0.00000553,0.00010
 444,0.00009377,-0.00027271,0.00019211,-0.00087182,-0.00006048,-0.00131
 920,-0.00039998,-0.00075747,-0.08756462,0.08774184,0.10034374,-0.04564
 608,-0.10630244,-0.01609132,0.00742065,0.00943450,-0.00102804,-0.00055
 181,-0.00018417,0.00124127,0.00004196,0.00017785,-0.00061648,-0.000695
 29,0.00072253,-0.00049524,-0.00061281,-0.00090185,-0.00009686,0.000758
 06,-0.00091155,-0.10865792,0.05213763,0.11241202,-0.04720421,-0.028310
 23,-0.00221234,-0.00606467,-0.02968594,-0.00205374,0.00097267,0.000102
 15,0.00155827,-0.00070511,0.00056153,0.00048703,-0.00004285,-0.0001052
 5,0.00020819,-0.00182562,0.00056605,0.00056813,-0.00188641,-0.00038563
 ,-0.00319137,0.00359721,0.02755788,0.00072677,0.05348085,-0.02751311,-
 0.31405627,-0.01821445,-0.00224214,-0.00377380,-0.00055300,0.00081885,
 0.00079222,0.00159997,-0.00120845,0.00012576,-0.00006429,0.00038251,0.
 00041728,-0.00045584,-0.00008524,0.00006385,0.00055589,-0.00057184,-0.
 00017533,-0.00132082,-0.00117226,-0.01156997,-0.00001977,0.03171820,0.
 33956551,-0.00221112,-0.01903492,-0.04966849,-0.00173635,-0.01705412,-
 0.00141699,-0.00105189,-0.00025701,0.00072345,0.00047620,0.00054034,0.
 00036451,-0.00038880,-0.00050243,0.00039366,-0.00074293,0.00018665,-0.
 00005144,-0.00009163,0.00030243,-0.00170820,-0.00202523,-0.01650213,-0
 .00147043,0.00470569,0.02089192,0.04907495,-0.04930504,-0.00516753,0.0
 1191660,0.00131156,0.01214521,-0.02681281,-0.00495349,-0.00256188,-0.0
 0212597,0.00039664,0.00076280,-0.00122078,-0.00005896,-0.00015295,0.00
 013501,0.00037978,0.00030201,0.00026416,0.00097136,0.00134806,-0.00142
 426,0.00003865,-0.01197802,0.02437582,-0.00122755,-0.00047073,0.003004
 20,0.05316699,-0.00407023,-0.08863871,0.09764656,0.00143700,0.00228599
 ,-0.00824369,-0.00183796,0.00030640,-0.00038685,-0.00007081,0.00056046
 ,-0.00014242,-0.00014325,-0.00005858,0.00001443,0.00063797,-0.00001829
 ,-0.00004333,-0.00066231,0.00020933,-0.00112056,-0.00028358,0.00490618
 ,-0.01295633,-0.00138866,-0.01075411,0.03119728,0.00645974,0.09134306,
 0.00905257,0.09608284,-0.28176630,0.00088459,0.00602166,-0.01478934,-0
 .00341154,-0.00134011,-0.00057108,0.00051397,0.00084171,-0.00052830,-0
 .00000332,-0.00018866,0.00040069,-0.00050739,-0.00029243,-0.00002026,0
 .00266381,0.00140743,0.00052772,0.00010109,0.00580181,-0.01285712,0.00
 008345,-0.00148802,0.00407980,-0.00875082,-0.10589637,0.30487641,0.000
 06511,0.00144672,0.00051127,0.00739740,0.00248807,-0.00319126,-0.18043
 462,-0.11946865,0.07655100,-0.01193571,-0.01677318,0.01356424,-0.00169
 318,-0.00345863,-0.00580081,-0.00084899,0.00170339,0.00042522,0.002777
 07,-0.00182627,-0.00318911,-0.00029815,0.00016316,0.00031561,0.0005714
 0,0.00009892,0.00023216,-0.00009443,0.00004999,0.00012777,0.18520691,0
 .00108752,-0.00130221,-0.00178588,-0.00946684,-0.00188160,0.00424716,-
 0.11960034,-0.15094678,0.07887949,-0.00462263,0.00025117,0.00477226,-0
 .00392001,0.00631467,0.00094655,0.00181424,-0.00242462,-0.00124089,-0.
 00152435,0.00548797,0.00436210,0.00097047,0.00000929,0.00033059,-0.000
 08457,-0.00044481,0.00022509,0.00006393,-0.00012633,-0.00015751,0.1336
 7086,0.14863740,0.00157830,-0.00090115,0.00118352,0.02064921,0.0183394
 7,-0.00677140,0.07682932,0.07892665,-0.11003443,-0.01102915,-0.0096438
 5,0.01173632,-0.00485234,0.00151275,0.00032826,0.00017177,-0.00139767,
 -0.00109606,-0.00368890,0.00412578,-0.00410569,-0.00015435,0.00019759,
 -0.00024532,-0.00050924,-0.00061594,-0.00056472,-0.00003996,-0.0002824
 5,0.00018304,-0.08112107,-0.08905092,0.10969708,0.00039743,0.00061181,
 -0.00111735,-0.00239808,-0.00475238,-0.00316527,0.00016796,0.01060281,
 -0.02489880,-0.06685698,0.01089606,-0.05598455,0.00970200,-0.00496251,
 0.01984248,-0.00058198,-0.00589348,0.00201026,-0.00186222,-0.00080406,
 -0.00038516,-0.00003212,0.00001161,0.00003158,0.00002281,-0.00002244,0
 .00001545,-0.00040648,-0.00002245,-0.00022287,-0.00010678,0.00179098,0
 .00139122,0.06255733,-0.00001685,0.00038331,-0.00036148,-0.00454304,0.
 00520458,0.00117081,-0.00149581,0.00663893,-0.00877446,0.01075016,-0.0
 8060874,0.09836899,0.00777056,-0.00224414,0.01648351,-0.00547014,0.002
 25845,0.00472539,-0.00127823,-0.00051271,-0.00083320,0.00002080,0.0000
 0679,0.00001966,0.00001387,-0.00003166,0.00002680,-0.00005853,-0.00013
 105,-0.00012320,0.00211014,-0.00245800,-0.00130392,-0.00977383,0.07437
 006,0.00031864,0.00045465,-0.00035426,-0.00371350,0.00094266,0.0021862
 8,-0.00048833,0.00549169,-0.00850188,-0.05574159,0.09848549,-0.3025867
 3,-0.00577441,0.00150560,-0.00848486,0.00114326,0.00419560,0.00068041,
 0.00052417,-0.00027808,0.00101689,-0.00003707,0.00000252,-0.00001199,-
 0.00002418,-0.00003887,-0.00000437,-0.00014500,-0.00008206,-0.00015292
 ,0.00075746,-0.00167378,-0.00007394,0.06199746,-0.10751489,0.31686004,
 -0.00034829,0.00067497,0.00027175,0.00024929,-0.00014512,0.00066523,0.
 00010522,-0.00482957,0.00155906,-0.01111430,-0.00483302,-0.01095159,-0
 .26304512,-0.07829291,-0.10355864,-0.00154769,0.00488758,-0.00645266,0
 .00466271,-0.00298677,-0.00137857,-0.00016108,-0.00007555,0.00000285,0
 .00013681,0.00007097,0.00006068,0.00000227,0.00000705,-0.00002543,-0.0
 0082720,0.00000370,-0.00053084,-0.00040157,0.00118347,0.00092395,0.272
 35821,0.00075071,-0.00101880,-0.00063657,0.00018756,-0.00028400,0.0006
 8817,-0.00448805,0.00217022,0.00449613,-0.01649909,0.00101691,-0.00862
 949,-0.07912699,-0.07294898,-0.03088256,0.01578949,0.00190666,0.005834
 97,-0.00234897,0.00676961,0.00565180,0.00030852,0.00010763,0.00006203,
 -0.00020874,-0.00011925,-0.00000748,-0.00004970,0.00001696,-0.00005971
 ,-0.00069153,-0.00045571,-0.00068581,0.00158993,-0.00179581,-0.0009569
 8,0.08451354,0.06430856,0.00022326,-0.00071415,-0.00007424,-0.00007697
 ,0.00028071,-0.00070709,0.00088994,0.00408764,-0.00019103,0.01258837,0
 .00514611,0.01090431,-0.10187398,-0.02992889,-0.10199852,-0.02849040,-
 0.00699959,-0.02403542,-0.00266812,0.00490289,-0.00216166,0.00006647,0
 .00004152,0.00002346,-0.00018420,-0.00012422,-0.00003220,0.00006466,0.
 00002028,0.00005734,0.00085383,0.00013044,0.00035967,0.00010496,-0.001
 43316,-0.00018351,0.11951706,0.02480966,0.11848213,0.00043153,0.001249
 85,0.00240343,0.00589693,-0.00961103,0.01795493,-0.00172899,-0.0052416
 2,0.00054455,-0.00077661,-0.00004112,-0.00052311,-0.00095578,-0.004608
 33,-0.00480667,-0.01089638,0.01189945,-0.03188686,-0.05408122,0.004492
 70,-0.02373720,-0.00021236,-0.00019360,-0.00005177,0.00017467,0.000196
 78,-0.00024642,-0.00022128,-0.00011252,-0.00050589,0.00022116,-0.00018
 296,0.00130602,-0.00020131,0.00078743,0.00025912,-0.00006927,0.0002733
 1,-0.00101489,0.06241893,0.00234429,-0.00198534,-0.00016614,0.00151540
 ,-0.00078004,0.01811735,-0.00545920,0.00210713,0.00303861,-0.00054350,
 -0.00031866,-0.00056070,-0.00527077,0.00738933,0.00101773,0.00128423,0
 .00267041,-0.01278735,0.00467633,-0.09115985,0.10556976,0.00031798,0.0
 0032640,-0.00028848,-0.00035066,-0.00003942,-0.00001242,-0.00064239,0.
 00009869,-0.00060944,0.00048699,-0.00066044,0.00077948,0.00072796,-0.0
 0108002,-0.00053355,-0.00017833,0.00032600,-0.00021924,0.00109166,0.08
 310581,0.00006099,-0.00189210,0.00026211,-0.00513031,0.00471424,-0.008
 47000,0.00101792,0.00322138,0.00140732,0.00046908,0.00001128,0.0002347
 1,-0.00341069,0.00181531,0.00316397,-0.01044781,-0.00020453,-0.0162408
 8,-0.02388653,0.10553742,-0.28513848,0.00018447,0.00013936,0.00011452,
 -0.00016245,-0.00015254,0.00028046,0.00075915,0.00027551,0.00056032,-0
 .00003633,0.00001529,-0.00059633,0.00038059,-0.00045087,-0.00038916,-0
 .00010286,0.00031585,-0.00044324,0.04030476,-0.11334561,0.30525468\\-0
 .00000096,0.00000047,0.00000807,-0.00000141,-0.00000129,-0.00000218,-0
 .00000144,0.00000265,0.00000130,0.00000213,0.00000474,-0.00000018,0.00
 000022,0.00000271,-0.00000138,-0.00000120,-0.00000338,-0.00000590,0.00
 000378,-0.00000155,-0.00000144,-0.00000019,0.00000017,0.00000026,-0.00
 000143,-0.00000503,0.00000467,-0.00000150,-0.00000751,-0.00000015,0.00
 000037,0.00000470,0.00000494,0.00000128,0.00000731,0.00000122,0.000001
 66,0.00000265,-0.00000513,-0.00000132,-0.00000663,-0.00000409\\\@


 TIME GOES, YOU SAY?  AH NO!
 ALAS, TIME STAYS, WE GO.
    -- A. DOBSON (1840-1921)
 Job cpu time:       0 days  0 hours  3 minutes 54.4 seconds.
 File lengths (MBytes):  RWF=    133 Int=      0 D2E=      0 Chk=      4 Scr=      2
 Normal termination of Gaussian 09 at Fri Mar 21 13:52:50 2025.
