 Entering Gaussian System, Link 0=g09
 Initial command:
 /apps/z_install_tree/linux-rocky8-ivybridge/gcc-12.2.0/gaussian-09-D.01-wczn3gur5lpur3omlkzwa2l5ecyxp5ef/g09/l1.exe "/srv/scratch/z5358697/gauss/Gau-1577644.inp" -scrdir="/srv/scratch/z5358697/gauss/"
 Entering Link 1 = /apps/z_install_tree/linux-rocky8-ivybridge/gcc-12.2.0/gaussian-09-D.01-wczn3gur5lpur3omlkzwa2l5ecyxp5ef/g09/l1.exe PID=   1577646.
  
 Copyright (c) 1988,1990,1992,1993,1995,1998,2003,2009,2013,
            Gaussian, Inc.  All Rights Reserved.
  
 This is part of the Gaussian(R) 09 program.  It is based on
 the Gaussian(R) 03 system (copyright 2003, Gaussian, Inc.),
 the Gaussian(R) 98 system (copyright 1998, Gaussian, Inc.),
 the Gaussian(R) 94 system (copyright 1995, Gaussian, Inc.),
 the Gaussian 92(TM) system (copyright 1992, Gaussian, Inc.),
 the Gaussian 90(TM) system (copyright 1990, Gaussian, Inc.),
 the Gaussian 88(TM) system (copyright 1988, Gaussian, Inc.),
 the Gaussian 86(TM) system (copyright 1986, Carnegie Mellon
 University), and the Gaussian 82(TM) system (copyright 1983,
 Carnegie Mellon University). Gaussian is a federally registered
 trademark of Gaussian, Inc.
  
 This software contains proprietary and confidential information,
 including trade secrets, belonging to Gaussian, Inc.
  
 This software is provided under written license and may be
 used, copied, transmitted, or stored only in accord with that
 written license.
  
 The following legend is applicable only to US Government
 contracts under FAR:
  
                    RESTRICTED RIGHTS LEGEND
  
 Use, reproduction and disclosure by the US Government is
 subject to restrictions as set forth in subparagraphs (a)
 and (c) of the Commercial Computer Software - Restricted
 Rights clause in FAR 52.227-19.
  
 Gaussian, Inc.
 340 Quinnipiac St., Bldg. 40, Wallingford CT 06492
  
  
 ---------------------------------------------------------------
 Warning -- This program may not be used in any manner that
 competes with the business of Gaussian, Inc. or will provide
 assistance to any competitor of Gaussian, Inc.  The licensee
 of this program is prohibited from giving any competitor of
 Gaussian, Inc. access to this program.  By using this program,
 the user acknowledges that Gaussian, Inc. is engaged in the
 business of creating and licensing software in the field of
 computational chemistry and represents and warrants to the
 licensee that it is not a competitor of Gaussian, Inc. and that
 it will not use this program in any manner prohibited above.
 ---------------------------------------------------------------
  

 Cite this work as:
 Gaussian 09, Revision D.01,
 M. J. Frisch, G. W. Trucks, H. B. Schlegel, G. E. Scuseria, 
 M. A. Robb, J. R. Cheeseman, G. Scalmani, V. Barone, B. Mennucci, 
 G. A. Petersson, H. Nakatsuji, M. Caricato, X. Li, H. P. Hratchian, 
 A. F. Izmaylov, J. Bloino, G. Zheng, J. L. Sonnenberg, M. Hada, 
 M. Ehara, K. Toyota, R. Fukuda, J. Hasegawa, M. Ishida, T. Nakajima, 
 Y. Honda, O. Kitao, H. Nakai, T. Vreven, J. A. Montgomery, Jr., 
 J. E. Peralta, F. Ogliaro, M. Bearpark, J. J. Heyd, E. Brothers, 
 K. N. Kudin, V. N. Staroverov, T. Keith, R. Kobayashi, J. Normand, 
 K. Raghavachari, A. Rendell, J. C. Burant, S. S. Iyengar, J. Tomasi, 
 M. Cossi, N. Rega, J. M. Millam, M. Klene, J. E. Knox, J. B. Cross, 
 V. Bakken, C. Adamo, J. Jaramillo, R. Gomperts, R. E. Stratmann, 
 O. Yazyev, A. J. Austin, R. Cammi, C. Pomelli, J. W. Ochterski, 
 R. L. Martin, K. Morokuma, V. G. Zakrzewski, G. A. Voth, 
 P. Salvador, J. J. Dannenberg, S. Dapprich, A. D. Daniels, 
 O. Farkas, J. B. Foresman, J. V. Ortiz, J. Cioslowski, 
 and D. J. Fox, Gaussian, Inc., Wallingford CT, 2013.
 
 ******************************************
 Gaussian 09:  ES64L-G09RevD.01 24-Apr-2013
                20-Mar-2025 
 ******************************************
 ---------------------------------
 #m062X/6-31+G(d) OPT Freq=noraman
 ---------------------------------
 1/14=-1,18=20,19=15,26=3,38=1/1,3;
 2/9=110,12=2,17=6,18=5,40=1/2;
 3/5=1,6=6,7=11,11=2,16=1,25=1,30=1,71=1,74=-55/1,2,3;
 4//1;
 5/5=2,38=5/2;
 6/7=2,8=2,9=2,10=2,28=1/1;
 7//1,2,3,16;
 1/14=-1,18=20,19=15,26=3/3(2);
 2/9=110/2;
 99//99;
 2/9=110/2;
 3/5=1,6=6,7=11,11=2,16=1,25=1,30=1,71=1,74=-55/1,2,3;
 4/5=5,16=3,69=1/1;
 5/5=2,38=5/2;
 7//1,2,3,16;
 1/14=-1,18=20,19=15,26=3/3(-5);
 2/9=110/2;
 6/7=2,8=2,9=2,10=2,19=2,28=1/1;
 99/9=1/99;
 --------
 ethylene
 --------
 Symbolic Z-matrix:
 Charge =  0 Multiplicity = 1
 C                     0.2842    1.0298   -0.1842 
 C                    -0.6398    1.9558   -0.4472 
 H                     1.3359    1.2903   -0.1502 
 H                     0.        0.        0. 
 H                    -1.6915    1.6952   -0.4813 
 H                    -0.3558    2.9856   -0.6318 
 

 GradGradGradGradGradGradGradGradGradGradGradGradGradGradGradGradGradGrad
 Berny optimization.
 Initialization pass.
                           ----------------------------
                           !    Initial Parameters    !
                           ! (Angstroms and Degrees)  !
 --------------------------                            --------------------------
 ! Name  Definition              Value          Derivative Info.                !
 --------------------------------------------------------------------------------
 ! R1    R(1,2)                  1.3343         estimate D2E/DX2                !
 ! R2    R(1,3)                  1.084          estimate D2E/DX2                !
 ! R3    R(1,4)                  1.0841         estimate D2E/DX2                !
 ! R4    R(2,5)                  1.084          estimate D2E/DX2                !
 ! R5    R(2,6)                  1.0841         estimate D2E/DX2                !
 ! A1    A(2,1,3)              120.7473         estimate D2E/DX2                !
 ! A2    A(2,1,4)              120.7435         estimate D2E/DX2                !
 ! A3    A(3,1,4)              118.5092         estimate D2E/DX2                !
 ! A4    A(1,2,5)              120.7434         estimate D2E/DX2                !
 ! A5    A(1,2,6)              120.7564         estimate D2E/DX2                !
 ! A6    A(5,2,6)              118.5002         estimate D2E/DX2                !
 ! D1    D(3,1,2,5)            179.9928         estimate D2E/DX2                !
 ! D2    D(3,1,2,6)              0.006          estimate D2E/DX2                !
 ! D3    D(4,1,2,5)              0.0098         estimate D2E/DX2                !
 ! D4    D(4,1,2,6)           -179.977          estimate D2E/DX2                !
 --------------------------------------------------------------------------------
 Trust Radius=3.00D-01 FncErr=1.00D-07 GrdErr=1.00D-06
 Number of steps in this run=     25 maximum allowed number of steps=    100.
 GradGradGradGradGradGradGradGradGradGradGradGradGradGradGradGradGradGrad

                          Input orientation:                          
 ---------------------------------------------------------------------
 Center     Atomic      Atomic             Coordinates (Angstroms)
 Number     Number       Type             X           Y           Z
 ---------------------------------------------------------------------
      1          6           0        0.284200    1.029800   -0.184200
      2          6           0       -0.639800    1.955800   -0.447200
      3          1           0        1.335900    1.290300   -0.150200
      4          1           0        0.000000    0.000000    0.000000
      5          1           0       -1.691500    1.695200   -0.481300
      6          1           0       -0.355800    2.985600   -0.631800
 ---------------------------------------------------------------------
                    Distance matrix (angstroms):
                    1          2          3          4          5
     1  C    0.000000
     2  C    1.334324   0.000000
     3  H    1.084015   2.105823   0.000000
     4  H    1.084061   2.105822   1.863347   0.000000
     5  H    2.105805   1.084042   3.072250   2.442647   0.000000
     6  H    2.105968   1.084076   2.442914   3.072389   1.863297
                    6
     6  H    0.000000
 Stoichiometry    C2H4
 Framework group  C1[X(C2H4)]
 Deg. of freedom    12
 Full point group                 C1      NOp   1
 Largest Abelian subgroup         C1      NOp   1
 Largest concise Abelian subgroup C1      NOp   1
                         Standard orientation:                         
 ---------------------------------------------------------------------
 Center     Atomic      Atomic             Coordinates (Angstroms)
 Number     Number       Type             X           Y           Z
 ---------------------------------------------------------------------
      1          6           0        0.667173   -0.000024   -0.000035
      2          6           0       -0.667152    0.000002   -0.000026
      3          1           0        1.221360   -0.931670    0.000035
      4          1           0        1.221358    0.931677    0.000164
      5          1           0       -1.221289    0.931710    0.000021
      6          1           0       -1.221554   -0.931587    0.000149
 ---------------------------------------------------------------------
 Rotational constants (GHZ):    144.4295623     30.2687468     25.0242942
 Standard basis: 6-31+G(d) (6D, 7F)
 There are    46 symmetry adapted cartesian basis functions of A   symmetry.
 There are    46 symmetry adapted basis functions of A   symmetry.
    46 basis functions,    80 primitive gaussians,    46 cartesian basis functions
     8 alpha electrons        8 beta electrons
       nuclear repulsion energy        33.3694082137 Hartrees.
 NAtoms=    6 NActive=    6 NUniq=    6 SFac= 1.00D+00 NAtFMM=   60 NAOKFM=F Big=F
 Integral buffers will be    131072 words long.
 Raffenetti 2 integral format.
 Two-electron integral symmetry is turned on.
 One-electron integrals computed using PRISM.
 NBasis=    46 RedAO= T EigKep=  2.19D-04  NBF=    46
 NBsUse=    46 1.00D-06 EigRej= -1.00D+00 NBFU=    46
 ExpMin= 4.38D-02 ExpMax= 3.05D+03 ExpMxC= 4.57D+02 IAcc=2 IRadAn=         4 AccDes= 0.00D+00
 Harris functional with IExCor= 1009 and IRadAn=       4 diagonalized for initial guess.
 HarFok:  IExCor= 1009 AccDes= 0.00D+00 IRadAn=         4 IDoV= 1 UseB2=F ITyADJ=14
 ICtDFT=  3500011 ScaDFX=  1.000000  1.000000  1.000000  1.000000
 FoFCou: FMM=F IPFlag=           0 FMFlag=      100000 FMFlg1=           0
         NFxFlg=           0 DoJE=T BraDBF=F KetDBF=T FulRan=T
         wScrn=  0.000000 ICntrl=     500 IOpCl=  0 I1Cent=   200000004 NGrid=           0
         NMat0=    1 NMatS0=      1 NMatT0=    0 NMatD0=    1 NMtDS0=    0 NMtDT0=    0
 Petite list used in FoFCou.
 Keep R1 ints in memory in canonical form, NReq=1476015.
 Requested convergence on RMS density matrix=1.00D-08 within 128 cycles.
 Requested convergence on MAX density matrix=1.00D-06.
 Requested convergence on             energy=1.00D-06.
 No special actions if energy rises.
 SCF Done:  E(RM062X) =  -78.5410997807     A.U. after    9 cycles
            NFock=  9  Conv=0.16D-08     -V/T= 2.0095

 **********************************************************************

            Population analysis using the SCF density.

 **********************************************************************

 Orbital symmetries:
       Occupied  (A) (A) (A) (A) (A) (A) (A) (A)
       Virtual   (A) (A) (A) (A) (A) (A) (A) (A) (A) (A) (A) (A)
                 (A) (A) (A) (A) (A) (A) (A) (A) (A) (A) (A) (A)
                 (A) (A) (A) (A) (A) (A) (A) (A) (A) (A) (A) (A)
                 (A) (A)
 The electronic state is 1-A.
 Alpha  occ. eigenvalues --  -10.55116 -10.55006  -0.85987  -0.66294  -0.54560
 Alpha  occ. eigenvalues --   -0.48141  -0.42221  -0.33226
 Alpha virt. eigenvalues --    0.02844   0.04386   0.04537   0.06166   0.08444
 Alpha virt. eigenvalues --    0.09427   0.10138   0.14343   0.17309   0.21941
 Alpha virt. eigenvalues --    0.23786   0.28711   0.39087   0.39213   0.61793
 Alpha virt. eigenvalues --    0.70027   0.72640   0.77643   0.82696   0.85459
 Alpha virt. eigenvalues --    0.96679   1.01633   1.03727   1.07507   1.20381
 Alpha virt. eigenvalues --    1.28765   1.50848   1.58794   1.87521   1.94257
 Alpha virt. eigenvalues --    2.08191   2.17323   2.37254   2.41522   2.72239
 Alpha virt. eigenvalues --    2.74288   4.16083   4.29370
          Condensed to atoms (all electrons):
               1          2          3          4          5          6
     1  C    5.017047   0.670008   0.387003   0.387007  -0.034581  -0.034557
     2  C    0.670008   5.017080  -0.034575  -0.034582   0.387005   0.386984
     3  H    0.387003  -0.034575   0.480949  -0.027144   0.003448  -0.005648
     4  H    0.387007  -0.034582  -0.027144   0.480962  -0.005652   0.003447
     5  H   -0.034581   0.387005   0.003448  -0.005652   0.480980  -0.027151
     6  H   -0.034557   0.386984  -0.005648   0.003447  -0.027151   0.480958
 Mulliken charges:
               1
     1  C   -0.391927
     2  C   -0.391919
     3  H    0.195967
     4  H    0.195962
     5  H    0.195950
     6  H    0.195966
 Sum of Mulliken charges =   0.00000
 Mulliken charges with hydrogens summed into heavy atoms:
               1
     1  C    0.000002
     2  C   -0.000002
 Electronic spatial extent (au):  <R**2>=             82.9879
 Charge=              0.0000 electrons
 Dipole moment (field-independent basis, Debye):
    X=              0.0000    Y=              0.0000    Z=              0.0004  Tot=              0.0004
 Quadrupole moment (field-independent basis, Debye-Ang):
   XX=            -12.3817   YY=            -12.2491   ZZ=            -15.9974
   XY=              0.0002   XZ=              0.0000   YZ=              0.0000
 Traceless Quadrupole moment (field-independent basis, Debye-Ang):
   XX=              1.1610   YY=              1.2936   ZZ=             -2.4546
   XY=              0.0002   XZ=              0.0000   YZ=              0.0000
 Octapole moment (field-independent basis, Debye-Ang**2):
  XXX=             -0.0004  YYY=              0.0003  ZZZ=              0.0007  XYY=              0.0002
  XXY=             -0.0006  XXZ=              0.0009  XZZ=              0.0000  YZZ=              0.0000
  YYZ=              0.0006  XYZ=              0.0004
 Hexadecapole moment (field-independent basis, Debye-Ang**3):
 XXXX=            -69.6159 YYYY=            -27.5495 ZZZZ=            -21.2460 XXXY=              0.0010
 XXXZ=              0.0001 YYYX=              0.0000 YYYZ=              0.0000 ZZZX=              0.0000
 ZZZY=              0.0000 XXYY=            -13.5917 XXZZ=            -16.1553 YYZZ=             -8.8080
 XXYZ=              0.0000 YYXZ=              0.0001 ZZXY=              0.0000
 N-N= 3.336940821374D+01 E-N=-2.479696829474D+02  KE= 7.780223826358D+01
 Calling FoFJK, ICntrl=      2127 FMM=F ISym2X=0 I1Cent= 0 IOpClX= 0 NMat=1 NMatS=1 NMatT=0.
 ***** Axes restored to original set *****
 -------------------------------------------------------------------
 Center     Atomic                   Forces (Hartrees/Bohr)
 Number     Number              X              Y              Z
 -------------------------------------------------------------------
      1        6          -0.005770487    0.005756922   -0.001654569
      2        6           0.005740954   -0.005747563    0.001620660
      3        1           0.001986089   -0.002023945    0.000574794
      4        1           0.002028907   -0.001958389    0.000575792
      5        1          -0.001969942    0.002024866   -0.000569557
      6        1          -0.002015520    0.001948108   -0.000547120
 -------------------------------------------------------------------
 Cartesian Forces:  Max     0.005770487 RMS     0.003081435

 GradGradGradGradGradGradGradGradGradGradGradGradGradGradGradGradGradGrad
 Berny optimization.
 FormGI is forming the generalized inverse of G from B-inverse, IUseBI=4.
 Internal  Forces:  Max     0.003413232 RMS     0.001816982
 Search for a local minimum.
 Step number   1 out of a maximum of   25
 All quantities printed in internal units (Hartrees-Bohrs-Radians)
 Mixed Optimization -- RFO/linear search
 Second derivative matrix not updated -- first step.
 The second derivative matrix:
                          R1        R2        R3        R4        R5
           R1           0.58496
           R2           0.00000   0.35514
           R3           0.00000   0.00000   0.35508
           R4           0.00000   0.00000   0.00000   0.35510
           R5           0.00000   0.00000   0.00000   0.00000   0.35506
           A1           0.00000   0.00000   0.00000   0.00000   0.00000
           A2           0.00000   0.00000   0.00000   0.00000   0.00000
           A3           0.00000   0.00000   0.00000   0.00000   0.00000
           A4           0.00000   0.00000   0.00000   0.00000   0.00000
           A5           0.00000   0.00000   0.00000   0.00000   0.00000
           A6           0.00000   0.00000   0.00000   0.00000   0.00000
           D1           0.00000   0.00000   0.00000   0.00000   0.00000
           D2           0.00000   0.00000   0.00000   0.00000   0.00000
           D3           0.00000   0.00000   0.00000   0.00000   0.00000
           D4           0.00000   0.00000   0.00000   0.00000   0.00000
                          A1        A2        A3        A4        A5
           A1           0.16000
           A2           0.00000   0.16000
           A3           0.00000   0.00000   0.16000
           A4           0.00000   0.00000   0.00000   0.16000
           A5           0.00000   0.00000   0.00000   0.00000   0.16000
           A6           0.00000   0.00000   0.00000   0.00000   0.00000
           D1           0.00000   0.00000   0.00000   0.00000   0.00000
           D2           0.00000   0.00000   0.00000   0.00000   0.00000
           D3           0.00000   0.00000   0.00000   0.00000   0.00000
           D4           0.00000   0.00000   0.00000   0.00000   0.00000
                          A6        D1        D2        D3        D4
           A6           0.16000
           D1           0.00000   0.02958
           D2           0.00000   0.00000   0.02958
           D3           0.00000   0.00000   0.00000   0.02958
           D4           0.00000   0.00000   0.00000   0.00000   0.02958
 ITU=  0
     Eigenvalues ---    0.02958   0.02958   0.02958   0.16000   0.16000
     Eigenvalues ---    0.16000   0.16000   0.35506   0.35508   0.35510
     Eigenvalues ---    0.35514   0.58496
 RFO step:  Lambda=-2.51397557D-04 EMin= 2.95752101D-02
 Linear search not attempted -- first point.
 Iteration  1 RMS(Cart)=  0.01041643 RMS(Int)=  0.00006260
 Iteration  2 RMS(Cart)=  0.00006375 RMS(Int)=  0.00000002
 Iteration  3 RMS(Cart)=  0.00000000 RMS(Int)=  0.00000002
 Variable       Old X    -DE/DX   Delta X   Delta X   Delta X     New X
                                 (Linear)    (Quad)   (Total)
    R1        2.52151  -0.00255   0.00000  -0.00435  -0.00435   2.51716
    R2        2.04849   0.00146   0.00000   0.00410   0.00410   2.05260
    R3        2.04858   0.00143   0.00000   0.00401   0.00401   2.05259
    R4        2.04854   0.00144   0.00000   0.00406   0.00406   2.05260
    R5        2.04861   0.00142   0.00000   0.00398   0.00398   2.05259
    A1        2.10744   0.00171   0.00000   0.01064   0.01064   2.11808
    A2        2.10737   0.00171   0.00000   0.01066   0.01066   2.11803
    A3        2.06838  -0.00341   0.00000  -0.02130  -0.02130   2.04708
    A4        2.10737   0.00171   0.00000   0.01069   0.01069   2.11806
    A5        2.10760   0.00168   0.00000   0.01051   0.01051   2.11810
    A6        2.06822  -0.00340   0.00000  -0.02120  -0.02120   2.04702
    D1        3.14147   0.00001   0.00000   0.00030   0.00030  -3.14142
    D2        0.00011   0.00000   0.00000  -0.00011  -0.00011  -0.00001
    D3        0.00017  -0.00001   0.00000  -0.00020  -0.00020  -0.00002
    D4       -3.14119  -0.00002   0.00000  -0.00061  -0.00061   3.14139
         Item               Value     Threshold  Converged?
 Maximum Force            0.003413     0.000450     NO 
 RMS     Force            0.001817     0.000300     NO 
 Maximum Displacement     0.018493     0.001800     NO 
 RMS     Displacement     0.010430     0.001200     NO 
 Predicted change in Energy=-1.258800D-04
 GradGradGradGradGradGradGradGradGradGradGradGradGradGradGradGradGradGrad

                          Input orientation:                          
 ---------------------------------------------------------------------
 Center     Atomic      Atomic             Coordinates (Angstroms)
 Number     Number       Type             X           Y           Z
 ---------------------------------------------------------------------
      1          6           0        0.283398    1.030579   -0.184576
      2          6           0       -0.639029    1.954965   -0.447102
      3          1           0        1.339771    1.280650   -0.147933
      4          1           0        0.009786   -0.003934    0.001748
      5          1           0       -1.695414    1.704906   -0.483585
      6          1           0       -0.365512    2.989535   -0.633252
 ---------------------------------------------------------------------
                    Distance matrix (angstroms):
                    1          2          3          4          5
     1  C    0.000000
     2  C    1.332021   0.000000
     3  H    1.086187   2.111836   0.000000
     4  H    1.086185   2.111803   1.855107   0.000000
     5  H    2.111828   1.086190   3.083018   2.462395   0.000000
     6  H    2.111848   1.086185   2.462481   3.083006   1.855076
                    6
     6  H    0.000000
 Stoichiometry    C2H4
 Framework group  C1[X(C2H4)]
 Deg. of freedom    12
 Full point group                 C1      NOp   1
 Largest Abelian subgroup         C1      NOp   1
 Largest concise Abelian subgroup C1      NOp   1
                         Standard orientation:                         
 ---------------------------------------------------------------------
 Center     Atomic      Atomic             Coordinates (Angstroms)
 Number     Number       Type             X           Y           Z
 ---------------------------------------------------------------------
      1          6           0        0.666014   -0.000002    0.000023
      2          6           0       -0.666007   -0.000005    0.000021
      3          1           0        1.231235   -0.927541   -0.000060
      4          1           0        1.231182    0.927566   -0.000075
      5          1           0       -1.231213    0.927547   -0.000056
      6          1           0       -1.231246   -0.927530   -0.000071
 ---------------------------------------------------------------------
 Rotational constants (GHZ):    145.7140327     30.1597522     24.9878009
 Standard basis: 6-31+G(d) (6D, 7F)
 There are    46 symmetry adapted cartesian basis functions of A   symmetry.
 There are    46 symmetry adapted basis functions of A   symmetry.
    46 basis functions,    80 primitive gaussians,    46 cartesian basis functions
     8 alpha electrons        8 beta electrons
       nuclear repulsion energy        33.3518330303 Hartrees.
 NAtoms=    6 NActive=    6 NUniq=    6 SFac= 1.00D+00 NAtFMM=   60 NAOKFM=F Big=F
 Integral buffers will be    131072 words long.
 Raffenetti 2 integral format.
 Two-electron integral symmetry is turned on.
 One-electron integrals computed using PRISM.
 NBasis=    46 RedAO= T EigKep=  2.17D-04  NBF=    46
 NBsUse=    46 1.00D-06 EigRej= -1.00D+00 NBFU=    46
 Initial guess from the checkpoint file:  "/srv/scratch/z5358697/gauss/Gau-1577646.chk"
 B after Tr=     0.000000    0.000000    0.000000
         Rot=    1.000000    0.000000    0.000000   -0.000018 Ang=   0.00 deg.
 Keep R1 ints in memory in canonical form, NReq=1476015.
 Requested convergence on RMS density matrix=1.00D-08 within 128 cycles.
 Requested convergence on MAX density matrix=1.00D-06.
 Requested convergence on             energy=1.00D-06.
 No special actions if energy rises.
 SCF Done:  E(RM062X) =  -78.5412643720     A.U. after    8 cycles
            NFock=  8  Conv=0.18D-08     -V/T= 2.0096
 Calling FoFJK, ICntrl=      2127 FMM=F ISym2X=0 I1Cent= 0 IOpClX= 0 NMat=1 NMatS=1 NMatT=0.
 ***** Axes restored to original set *****
 -------------------------------------------------------------------
 Center     Atomic                   Forces (Hartrees/Bohr)
 Number     Number              X              Y              Z
 -------------------------------------------------------------------
      1        6          -0.001890388    0.001895119   -0.000526627
      2        6           0.001880410   -0.001887885    0.000546007
      3        1           0.000296113   -0.000742297    0.000169211
      4        1           0.000750698   -0.000308525    0.000117869
      5        1          -0.000293783    0.000738817   -0.000177892
      6        1          -0.000743049    0.000304772   -0.000128568
 -------------------------------------------------------------------
 Cartesian Forces:  Max     0.001895119 RMS     0.000986178

 GradGradGradGradGradGradGradGradGradGradGradGradGradGradGradGradGradGrad
 Berny optimization.
 Using GEDIIS/GDIIS optimizer.
 FormGI is forming the generalized inverse of G from B-inverse, IUseBI=4.
 Internal  Forces:  Max     0.001217309 RMS     0.000588797
 Search for a local minimum.
 Step number   2 out of a maximum of   25
 All quantities printed in internal units (Hartrees-Bohrs-Radians)
 Mixed Optimization -- En-DIIS/RFO-DIIS
 Update second derivatives using D2CorX and points    1    2
 DE= -1.65D-04 DEPred=-1.26D-04 R= 1.31D+00
 TightC=F SS=  1.41D+00  RLast= 3.79D-02 DXNew= 5.0454D-01 1.1382D-01
 Trust test= 1.31D+00 RLast= 3.79D-02 DXMaxT set to 3.00D-01
 The second derivative matrix:
                          R1        R2        R3        R4        R5
           R1           0.56932
           R2           0.00456   0.35694
           R3           0.00450   0.00173   0.35674
           R4           0.00451   0.00179   0.00171   0.35687
           R5           0.00447   0.00171   0.00163   0.00169   0.35668
           A1           0.00843  -0.00101  -0.00102  -0.00100  -0.00102
           A2           0.00848  -0.00105  -0.00106  -0.00104  -0.00106
           A3          -0.01691   0.00205   0.00207   0.00203   0.00207
           A4           0.00846  -0.00101  -0.00102  -0.00100  -0.00102
           A5           0.00836  -0.00103  -0.00104  -0.00102  -0.00104
           A6          -0.01682   0.00204   0.00206   0.00202   0.00206
           D1          -0.00005   0.00009   0.00008   0.00008   0.00008
           D2          -0.00001  -0.00001  -0.00001  -0.00001  -0.00001
           D3          -0.00001  -0.00002  -0.00002  -0.00002  -0.00002
           D4           0.00003  -0.00011  -0.00011  -0.00011  -0.00011
                          A1        A2        A3        A4        A5
           A1           0.15613
           A2          -0.00391   0.15605
           A3           0.00778   0.00787   0.14435
           A4          -0.00389  -0.00393   0.00781   0.15610
           A5          -0.00386  -0.00390   0.00775  -0.00387   0.15616
           A6           0.00774   0.00782  -0.01557   0.00777   0.00771
           D1           0.00006   0.00006  -0.00012   0.00006   0.00006
           D2           0.00000   0.00000   0.00000   0.00000   0.00000
           D3          -0.00001  -0.00001   0.00001  -0.00001  -0.00001
           D4          -0.00006  -0.00006   0.00013  -0.00007  -0.00006
                          A6        D1        D2        D3        D4
           A6           0.14452
           D1          -0.00012   0.02958
           D2           0.00000   0.00000   0.02958
           D3           0.00001   0.00000   0.00000   0.02958
           D4           0.00013   0.00000   0.00000   0.00000   0.02958
 ITU=  1  0
 Use linear search instead of GDIIS.
     Eigenvalues ---    0.02958   0.02958   0.02958   0.11121   0.16000
     Eigenvalues ---    0.16000   0.16000   0.35507   0.35509   0.35512
     Eigenvalues ---    0.36183   0.57153
 RFO step:  Lambda=-3.20321911D-06 EMin= 2.95751038D-02
 Quartic linear search produced a step of  0.44585.
 Iteration  1 RMS(Cart)=  0.00477368 RMS(Int)=  0.00001390
 Iteration  2 RMS(Cart)=  0.00001392 RMS(Int)=  0.00000003
 Iteration  3 RMS(Cart)=  0.00000000 RMS(Int)=  0.00000003
 Variable       Old X    -DE/DX   Delta X   Delta X   Delta X     New X
                                 (Linear)    (Quad)   (Total)
    R1        2.51716  -0.00122  -0.00194  -0.00112  -0.00306   2.51409
    R2        2.05260   0.00012   0.00183  -0.00128   0.00055   2.05315
    R3        2.05259   0.00012   0.00179  -0.00123   0.00056   2.05315
    R4        2.05260   0.00012   0.00181  -0.00127   0.00054   2.05315
    R5        2.05259   0.00013   0.00178  -0.00122   0.00056   2.05315
    A1        2.11808   0.00055   0.00475   0.00035   0.00509   2.12317
    A2        2.11803   0.00056   0.00475   0.00040   0.00515   2.12318
    A3        2.04708  -0.00111  -0.00950  -0.00074  -0.01024   2.03684
    A4        2.11806   0.00055   0.00477   0.00034   0.00511   2.12317
    A5        2.11810   0.00055   0.00468   0.00039   0.00507   2.12318
    A6        2.04702  -0.00110  -0.00945  -0.00073  -0.01019   2.03683
    D1       -3.14142  -0.00001   0.00013  -0.00056  -0.00043   3.14133
    D2       -0.00001   0.00000  -0.00005   0.00006   0.00001   0.00000
    D3       -0.00002   0.00000  -0.00009   0.00013   0.00004   0.00002
    D4        3.14139   0.00001  -0.00027   0.00075   0.00048  -3.14131
         Item               Value     Threshold  Converged?
 Maximum Force            0.001217     0.000450     NO 
 RMS     Force            0.000589     0.000300     NO 
 Maximum Displacement     0.008983     0.001800     NO 
 RMS     Displacement     0.004775     0.001200     NO 
 Predicted change in Energy=-1.896989D-05
 GradGradGradGradGradGradGradGradGradGradGradGradGradGradGradGradGradGrad

                          Input orientation:                          
 ---------------------------------------------------------------------
 Center     Atomic      Atomic             Coordinates (Angstroms)
 Number     Number       Type             X           Y           Z
 ---------------------------------------------------------------------
      1          6           0        0.282811    1.031168   -0.184595
      2          6           0       -0.638491    1.954431   -0.446809
      3          1           0        1.340678    1.275988   -0.146978
      4          1           0        0.014539   -0.004955    0.002260
      5          1           0       -1.696339    1.709564   -0.484661
      6          1           0       -0.370199    2.990504   -0.633917
 ---------------------------------------------------------------------
                    Distance matrix (angstroms):
                    1          2          3          4          5
     1  C    0.000000
     2  C    1.330401   0.000000
     3  H    1.086478   2.113597   0.000000
     4  H    1.086479   2.113600   1.849792   0.000000
     5  H    2.113598   1.086478   3.086340   2.470582   0.000000
     6  H    2.113601   1.086480   2.470583   3.086345   1.849792
                    6
     6  H    0.000000
 Stoichiometry    C2H4
 Framework group  C1[X(C2H4)]
 Deg. of freedom    12
 Full point group                 C1      NOp   1
 Largest Abelian subgroup         C1      NOp   1
 Largest concise Abelian subgroup C1      NOp   1
                         Standard orientation:                         
 ---------------------------------------------------------------------
 Center     Atomic      Atomic             Coordinates (Angstroms)
 Number     Number       Type             X           Y           Z
 ---------------------------------------------------------------------
      1          6           0        0.665201   -0.000001   -0.000032
      2          6           0       -0.665200    0.000000   -0.000030
      3          1           0        1.235289   -0.924897    0.000091
      4          1           0        1.235293    0.924895    0.000099
      5          1           0       -1.235289    0.924897    0.000088
      6          1           0       -1.235294   -0.924895    0.000097
 ---------------------------------------------------------------------
 Rotational constants (GHZ):    146.5501312     30.1334906     24.9942070
 Standard basis: 6-31+G(d) (6D, 7F)
 There are    46 symmetry adapted cartesian basis functions of A   symmetry.
 There are    46 symmetry adapted basis functions of A   symmetry.
    46 basis functions,    80 primitive gaussians,    46 cartesian basis functions
     8 alpha electrons        8 beta electrons
       nuclear repulsion energy        33.3609209825 Hartrees.
 NAtoms=    6 NActive=    6 NUniq=    6 SFac= 1.00D+00 NAtFMM=   60 NAOKFM=F Big=F
 Integral buffers will be    131072 words long.
 Raffenetti 2 integral format.
 Two-electron integral symmetry is turned on.
 One-electron integrals computed using PRISM.
 NBasis=    46 RedAO= T EigKep=  2.16D-04  NBF=    46
 NBsUse=    46 1.00D-06 EigRej= -1.00D+00 NBFU=    46
 Initial guess from the checkpoint file:  "/srv/scratch/z5358697/gauss/Gau-1577646.chk"
 B after Tr=     0.000000    0.000000    0.000000
         Rot=    1.000000    0.000000    0.000000    0.000002 Ang=   0.00 deg.
 Keep R1 ints in memory in canonical form, NReq=1476015.
 Requested convergence on RMS density matrix=1.00D-08 within 128 cycles.
 Requested convergence on MAX density matrix=1.00D-06.
 Requested convergence on             energy=1.00D-06.
 No special actions if energy rises.
 SCF Done:  E(RM062X) =  -78.5412831350     A.U. after    7 cycles
            NFock=  7  Conv=0.20D-08     -V/T= 2.0096
 Calling FoFJK, ICntrl=      2127 FMM=F ISym2X=0 I1Cent= 0 IOpClX= 0 NMat=1 NMatS=1 NMatT=0.
 ***** Axes restored to original set *****
 -------------------------------------------------------------------
 Center     Atomic                   Forces (Hartrees/Bohr)
 Number     Number              X              Y              Z
 -------------------------------------------------------------------
      1        6           0.000064912   -0.000067776    0.000002754
      2        6          -0.000062806    0.000062028   -0.000032860
      3        1           0.000020229    0.000006891    0.000007915
      4        1          -0.000006429   -0.000017531    0.000011389
      5        1          -0.000021142   -0.000004071    0.000006419
      6        1           0.000005236    0.000020460    0.000004384
 -------------------------------------------------------------------
 Cartesian Forces:  Max     0.000067776 RMS     0.000033044

 GradGradGradGradGradGradGradGradGradGradGradGradGradGradGradGradGradGrad
 Berny optimization.
 Using GEDIIS/GDIIS optimizer.
 FormGI is forming the generalized inverse of G from B-inverse, IUseBI=4.
 Internal  Forces:  Max     0.000113275 RMS     0.000031543
 Search for a local minimum.
 Step number   3 out of a maximum of   25
 All quantities printed in internal units (Hartrees-Bohrs-Radians)
 Mixed Optimization -- En-DIIS/RFO-DIIS
 Swapping is turned off.
 Update second derivatives using D2CorX and points    1    2    3
 DE= -1.88D-05 DEPred=-1.90D-05 R= 9.89D-01
 TightC=F SS=  1.41D+00  RLast= 1.80D-02 DXNew= 5.0454D-01 5.3996D-02
 Trust test= 9.89D-01 RLast= 1.80D-02 DXMaxT set to 3.00D-01
 The second derivative matrix:
                          R1        R2        R3        R4        R5
           R1           0.57582
           R2           0.00460   0.35668
           R3           0.00450   0.00147   0.35649
           R4           0.00455   0.00152   0.00145   0.35661
           R5           0.00447   0.00145   0.00139   0.00143   0.35643
           A1           0.00691  -0.00134  -0.00133  -0.00132  -0.00133
           A2           0.00694  -0.00138  -0.00137  -0.00137  -0.00137
           A3          -0.01385   0.00272   0.00270   0.00269   0.00270
           A4           0.00694  -0.00134  -0.00133  -0.00133  -0.00133
           A5           0.00683  -0.00136  -0.00135  -0.00134  -0.00135
           A6          -0.01377   0.00270   0.00268   0.00267   0.00267
           D1           0.00038   0.00002   0.00001   0.00001   0.00001
           D2          -0.00001  -0.00001  -0.00001  -0.00001  -0.00001
           D3          -0.00002  -0.00001  -0.00001  -0.00001  -0.00001
           D4          -0.00041  -0.00004  -0.00003  -0.00004  -0.00003
                          A1        A2        A3        A4        A5
           A1           0.15609
           A2          -0.00395   0.15602
           A3           0.00786   0.00793   0.14421
           A4          -0.00393  -0.00396   0.00789   0.15606
           A5          -0.00389  -0.00392   0.00781  -0.00390   0.15614
           A6           0.00781   0.00788  -0.01570   0.00784   0.00777
           D1          -0.00013  -0.00013   0.00026  -0.00013  -0.00013
           D2           0.00000   0.00000   0.00000   0.00000   0.00000
           D3           0.00000   0.00000  -0.00001   0.00000   0.00000
           D4           0.00013   0.00014  -0.00027   0.00013   0.00013
                          A6        D1        D2        D3        D4
           A6           0.14439
           D1           0.00026   0.02958
           D2           0.00000   0.00000   0.02958
           D3          -0.00001   0.00000   0.00000   0.02958
           D4          -0.00027  -0.00001   0.00000   0.00000   0.02959
 ITU=  1  1  0
     Eigenvalues ---    0.02958   0.02958   0.02959   0.11130   0.16000
     Eigenvalues ---    0.16000   0.16000   0.35507   0.35509   0.35512
     Eigenvalues ---    0.36096   0.57739
 En-DIIS/RFO-DIIS IScMMF=        0 using points:     3    2
 RFO step:  Lambda=-2.17874033D-08.
 DidBck=F Rises=F RFO-DIIS coefs:    0.99095    0.00905
 Iteration  1 RMS(Cart)=  0.00013756 RMS(Int)=  0.00000003
 Iteration  2 RMS(Cart)=  0.00000003 RMS(Int)=  0.00000002
 Variable       Old X    -DE/DX   Delta X   Delta X   Delta X     New X
                                 (Linear)    (Quad)   (Total)
    R1        2.51409   0.00011   0.00003   0.00017   0.00020   2.51429
    R2        2.05315   0.00002   0.00000   0.00006   0.00006   2.05320
    R3        2.05315   0.00002  -0.00001   0.00006   0.00005   2.05320
    R4        2.05315   0.00002   0.00000   0.00006   0.00006   2.05320
    R5        2.05315   0.00002  -0.00001   0.00006   0.00005   2.05320
    A1        2.12317   0.00000  -0.00005   0.00003  -0.00001   2.12316
    A2        2.12318   0.00000  -0.00005   0.00003  -0.00001   2.12316
    A3        2.03684   0.00000   0.00009  -0.00007   0.00003   2.03686
    A4        2.12317   0.00000  -0.00005   0.00003  -0.00001   2.12316
    A5        2.12318   0.00000  -0.00005   0.00003  -0.00001   2.12316
    A6        2.03683   0.00000   0.00009  -0.00007   0.00003   2.03686
    D1        3.14133   0.00001   0.00000   0.00044   0.00044  -3.14141
    D2        0.00000   0.00000   0.00000   0.00000   0.00000   0.00000
    D3        0.00002   0.00000   0.00000  -0.00002  -0.00002   0.00000
    D4       -3.14131  -0.00001   0.00000  -0.00046  -0.00046   3.14141
         Item               Value     Threshold  Converged?
 Maximum Force            0.000113     0.000450     YES
 RMS     Force            0.000032     0.000300     YES
 Maximum Displacement     0.000272     0.001800     YES
 RMS     Displacement     0.000138     0.001200     YES
 Predicted change in Energy=-1.947490D-08
 Optimization completed.
    -- Stationary point found.
                           ----------------------------
                           !   Optimized Parameters   !
                           ! (Angstroms and Degrees)  !
 --------------------------                            --------------------------
 ! Name  Definition              Value          Derivative Info.                !
 --------------------------------------------------------------------------------
 ! R1    R(1,2)                  1.3304         -DE/DX =    0.0001              !
 ! R2    R(1,3)                  1.0865         -DE/DX =    0.0                 !
 ! R3    R(1,4)                  1.0865         -DE/DX =    0.0                 !
 ! R4    R(2,5)                  1.0865         -DE/DX =    0.0                 !
 ! R5    R(2,6)                  1.0865         -DE/DX =    0.0                 !
 ! A1    A(2,1,3)              121.6489         -DE/DX =    0.0                 !
 ! A2    A(2,1,4)              121.649          -DE/DX =    0.0                 !
 ! A3    A(3,1,4)              116.7021         -DE/DX =    0.0                 !
 ! A4    A(1,2,5)              121.6489         -DE/DX =    0.0                 !
 ! A5    A(1,2,6)              121.6491         -DE/DX =    0.0                 !
 ! A6    A(5,2,6)              116.7019         -DE/DX =    0.0                 !
 ! D1    D(3,1,2,5)           -180.0149         -DE/DX =    0.0                 !
 ! D2    D(3,1,2,6)              0.0001         -DE/DX =    0.0                 !
 ! D3    D(4,1,2,5)              0.0009         -DE/DX =    0.0                 !
 ! D4    D(4,1,2,6)            180.016          -DE/DX =    0.0                 !
 --------------------------------------------------------------------------------
 GradGradGradGradGradGradGradGradGradGradGradGradGradGradGradGradGradGrad

                          Input orientation:                          
 ---------------------------------------------------------------------
 Center     Atomic      Atomic             Coordinates (Angstroms)
 Number     Number       Type             X           Y           Z
 ---------------------------------------------------------------------
      1          6           0        0.282811    1.031168   -0.184595
      2          6           0       -0.638491    1.954431   -0.446809
      3          1           0        1.340678    1.275988   -0.146978
      4          1           0        0.014539   -0.004955    0.002260
      5          1           0       -1.696339    1.709564   -0.484661
      6          1           0       -0.370199    2.990504   -0.633917
 ---------------------------------------------------------------------
                    Distance matrix (angstroms):
                    1          2          3          4          5
     1  C    0.000000
     2  C    1.330401   0.000000
     3  H    1.086478   2.113597   0.000000
     4  H    1.086479   2.113600   1.849792   0.000000
     5  H    2.113598   1.086478   3.086340   2.470582   0.000000
     6  H    2.113601   1.086480   2.470583   3.086345   1.849792
                    6
     6  H    0.000000
 Stoichiometry    C2H4
 Framework group  C1[X(C2H4)]
 Deg. of freedom    12
 Full point group                 C1      NOp   1
 Largest Abelian subgroup         C1      NOp   1
 Largest concise Abelian subgroup C1      NOp   1
                         Standard orientation:                         
 ---------------------------------------------------------------------
 Center     Atomic      Atomic             Coordinates (Angstroms)
 Number     Number       Type             X           Y           Z
 ---------------------------------------------------------------------
      1          6           0        0.665201   -0.000001   -0.000032
      2          6           0       -0.665200    0.000000   -0.000030
      3          1           0        1.235289   -0.924897    0.000091
      4          1           0        1.235293    0.924895    0.000099
      5          1           0       -1.235289    0.924897    0.000088
      6          1           0       -1.235294   -0.924895    0.000097
 ---------------------------------------------------------------------
 Rotational constants (GHZ):    146.5501312     30.1334906     24.9942070

 **********************************************************************

            Population analysis using the SCF density.

 **********************************************************************

 Orbital symmetries:
       Occupied  (A) (A) (A) (A) (A) (A) (A) (A)
       Virtual   (A) (A) (A) (A) (A) (A) (A) (A) (A) (A) (A) (A)
                 (A) (A) (A) (A) (A) (A) (A) (A) (A) (A) (A) (A)
                 (A) (A) (A) (A) (A) (A) (A) (A) (A) (A) (A) (A)
                 (A) (A)
 The electronic state is 1-A.
 Alpha  occ. eigenvalues --  -10.55163 -10.55050  -0.85989  -0.66387  -0.54242
 Alpha  occ. eigenvalues --   -0.48548  -0.41928  -0.33310
 Alpha virt. eigenvalues --    0.02868   0.04338   0.04492   0.06216   0.08430
 Alpha virt. eigenvalues --    0.09456   0.10170   0.14360   0.17308   0.22245
 Alpha virt. eigenvalues --    0.23298   0.28741   0.39038   0.39344   0.61795
 Alpha virt. eigenvalues --    0.69901   0.72574   0.77633   0.82740   0.85463
 Alpha virt. eigenvalues --    0.96117   1.01350   1.04208   1.07729   1.20625
 Alpha virt. eigenvalues --    1.26954   1.50872   1.58754   1.87771   1.93656
 Alpha virt. eigenvalues --    2.08610   2.17053   2.35744   2.41818   2.74500
 Alpha virt. eigenvalues --    2.74535   4.16276   4.29261
          Condensed to atoms (all electrons):
               1          2          3          4          5          6
     1  C    5.012954   0.673645   0.386053   0.386052  -0.033613  -0.033612
     2  C    0.673645   5.012954  -0.033613  -0.033613   0.386052   0.386052
     3  H    0.386053  -0.033613   0.482539  -0.028590   0.003372  -0.005499
     4  H    0.386052  -0.033613  -0.028590   0.482539  -0.005499   0.003372
     5  H   -0.033613   0.386052   0.003372  -0.005499   0.482539  -0.028590
     6  H   -0.033612   0.386052  -0.005499   0.003372  -0.028590   0.482539
 Mulliken charges:
               1
     1  C   -0.391478
     2  C   -0.391478
     3  H    0.195739
     4  H    0.195739
     5  H    0.195739
     6  H    0.195739
 Sum of Mulliken charges =   0.00000
 Mulliken charges with hydrogens summed into heavy atoms:
               1
     1  C    0.000000
     2  C    0.000000
 Electronic spatial extent (au):  <R**2>=             83.1549
 Charge=              0.0000 electrons
 Dipole moment (field-independent basis, Debye):
    X=              0.0000    Y=              0.0000    Z=              0.0004  Tot=              0.0004
 Quadrupole moment (field-independent basis, Debye-Ang):
   XX=            -12.2541   YY=            -12.3490   ZZ=            -15.9855
   XY=              0.0000   XZ=              0.0000   YZ=              0.0000
 Traceless Quadrupole moment (field-independent basis, Debye-Ang):
   XX=              1.2754   YY=              1.1806   ZZ=             -2.4560
   XY=              0.0000   XZ=              0.0000   YZ=              0.0000
 Octapole moment (field-independent basis, Debye-Ang**2):
  XXX=              0.0000  YYY=              0.0000  ZZZ=              0.0007  XYY=              0.0000
  XXY=              0.0000  XXZ=              0.0010  XZZ=              0.0000  YZZ=              0.0000
  YYZ=              0.0006  XYZ=              0.0000
 Hexadecapole moment (field-independent basis, Debye-Ang**3):
 XXXX=            -69.5097 YYYY=            -27.6483 ZZZZ=            -21.1732 XXXY=              0.0000
 XXXZ=              0.0000 YYYX=              0.0000 YYYZ=              0.0000 ZZZX=              0.0000
 ZZZY=              0.0000 XXYY=            -13.6310 XXZZ=            -16.2044 YYZZ=             -8.7853
 XXYZ=              0.0000 YYXZ=              0.0000 ZZXY=              0.0000
 N-N= 3.336092098248D+01 E-N=-2.479476652531D+02  KE= 7.779763803655D+01
 1\1\GINC-KATANA2\FOpt\RM062X\6-31+G(d)\C2H4\Z5358697\20-Mar-2025\0\\#m
 062X/6-31+G(d) OPT Freq=noraman\\ethylene\\0,1\C,0.2828114226,1.031168
 4959,-0.1845952283\C,-0.6384908715,1.9544305684,-0.4468087084\H,1.3406
 783174,1.2759876722,-0.14697848\H,0.0145394943,-0.0049554728,0.0022601
 02\H,-1.6963389182,1.7095644917,-0.4846609264\H,-0.3701994447,2.990504
 2446,-0.6339167589\\Version=ES64L-G09RevD.01\State=1-A\HF=-78.5412831\
 RMSD=2.004e-09\RMSF=3.304e-05\Dipole=0.0000127,-0.0000311,-0.0001541\Q
 uadrupole=0.894024,0.8065833,-1.7006073,0.009016,0.2222492,-0.5305033\
 PG=C01 [X(C2H4)]\\@


 COLLEGE PROFESSOR: SOMEONE WHO TALKS IN OTHER PEOPLE'S SLEEP.
 Job cpu time:       0 days  0 hours  0 minutes  8.8 seconds.
 File lengths (MBytes):  RWF=    132 Int=      0 D2E=      0 Chk=      2 Scr=      2
 Normal termination of Gaussian 09 at Thu Mar 20 14:19:05 2025.
 Link1:  Proceeding to internal job step number  2.
 ---------------------------------------------------------------------
 #N Geom=AllCheck Guess=TCheck SCRF=Check GenChk RM062X/6-31+G(d) Freq
 ---------------------------------------------------------------------
 1/10=4,29=7,30=1,38=1,40=1/1,3;
 2/12=2,40=1/2;
 3/5=1,6=6,7=11,11=2,14=-4,16=1,25=1,30=1,70=2,71=2,74=-55,116=1,140=1/1,2,3;
 4/5=101/1;
 5/5=2,98=1/2;
 8/6=4,10=90,11=11/1;
 11/6=1,8=1,9=11,15=111,16=1/1,2,10;
 10/6=1/2;
 6/7=2,8=2,9=2,10=2,18=1,28=1/1;
 7/8=1,10=1,25=1/1,2,3,16;
 1/10=4,30=1/3;
 99//99;
 Structure from the checkpoint file:  "/srv/scratch/z5358697/gauss/Gau-1577646.chk"
 --------
 ethylene
 --------
 Charge =  0 Multiplicity = 1
 Redundant internal coordinates found in file.
 C,0,0.2828114226,1.0311684959,-0.1845952283
 C,0,-0.6384908715,1.9544305684,-0.4468087084
 H,0,1.3406783174,1.2759876722,-0.14697848
 H,0,0.0145394943,-0.0049554728,0.002260102
 H,0,-1.6963389182,1.7095644917,-0.4846609264
 H,0,-0.3701994447,2.9905042446,-0.6339167589
 Recover connectivity data from disk.

 GradGradGradGradGradGradGradGradGradGradGradGradGradGradGradGradGradGrad
 Berny optimization.
 Initialization pass.
                           ----------------------------
                           !    Initial Parameters    !
                           ! (Angstroms and Degrees)  !
 --------------------------                            --------------------------
 ! Name  Definition              Value          Derivative Info.                !
 --------------------------------------------------------------------------------
 ! R1    R(1,2)                  1.3304         calculate D2E/DX2 analytically  !
 ! R2    R(1,3)                  1.0865         calculate D2E/DX2 analytically  !
 ! R3    R(1,4)                  1.0865         calculate D2E/DX2 analytically  !
 ! R4    R(2,5)                  1.0865         calculate D2E/DX2 analytically  !
 ! R5    R(2,6)                  1.0865         calculate D2E/DX2 analytically  !
 ! A1    A(2,1,3)              121.6489         calculate D2E/DX2 analytically  !
 ! A2    A(2,1,4)              121.649          calculate D2E/DX2 analytically  !
 ! A3    A(3,1,4)              116.7021         calculate D2E/DX2 analytically  !
 ! A4    A(1,2,5)              121.6489         calculate D2E/DX2 analytically  !
 ! A5    A(1,2,6)              121.6491         calculate D2E/DX2 analytically  !
 ! A6    A(5,2,6)              116.7019         calculate D2E/DX2 analytically  !
 ! D1    D(3,1,2,5)            179.9851         calculate D2E/DX2 analytically  !
 ! D2    D(3,1,2,6)              0.0001         calculate D2E/DX2 analytically  !
 ! D3    D(4,1,2,5)              0.0009         calculate D2E/DX2 analytically  !
 ! D4    D(4,1,2,6)           -179.984          calculate D2E/DX2 analytically  !
 --------------------------------------------------------------------------------
 Trust Radius=3.00D-01 FncErr=1.00D-07 GrdErr=1.00D-07
 Number of steps in this run=      2 maximum allowed number of steps=      2.
 GradGradGradGradGradGradGradGradGradGradGradGradGradGradGradGradGradGrad

                          Input orientation:                          
 ---------------------------------------------------------------------
 Center     Atomic      Atomic             Coordinates (Angstroms)
 Number     Number       Type             X           Y           Z
 ---------------------------------------------------------------------
      1          6           0        0.282811    1.031168   -0.184595
      2          6           0       -0.638491    1.954431   -0.446809
      3          1           0        1.340678    1.275988   -0.146978
      4          1           0        0.014539   -0.004955    0.002260
      5          1           0       -1.696339    1.709564   -0.484661
      6          1           0       -0.370199    2.990504   -0.633917
 ---------------------------------------------------------------------
                    Distance matrix (angstroms):
                    1          2          3          4          5
     1  C    0.000000
     2  C    1.330401   0.000000
     3  H    1.086478   2.113597   0.000000
     4  H    1.086479   2.113600   1.849792   0.000000
     5  H    2.113598   1.086478   3.086340   2.470582   0.000000
     6  H    2.113601   1.086480   2.470583   3.086345   1.849792
                    6
     6  H    0.000000
 Stoichiometry    C2H4
 Framework group  C1[X(C2H4)]
 Deg. of freedom    12
 Full point group                 C1      NOp   1
 Largest Abelian subgroup         C1      NOp   1
 Largest concise Abelian subgroup C1      NOp   1
                         Standard orientation:                         
 ---------------------------------------------------------------------
 Center     Atomic      Atomic             Coordinates (Angstroms)
 Number     Number       Type             X           Y           Z
 ---------------------------------------------------------------------
      1          6           0        0.665201   -0.000001   -0.000032
      2          6           0       -0.665200    0.000000   -0.000030
      3          1           0        1.235289   -0.924897    0.000091
      4          1           0        1.235293    0.924895    0.000099
      5          1           0       -1.235289    0.924897    0.000088
      6          1           0       -1.235294   -0.924895    0.000097
 ---------------------------------------------------------------------
 Rotational constants (GHZ):    146.5501312     30.1334906     24.9942070
 Standard basis: 6-31+G(d) (6D, 7F)
 There are    46 symmetry adapted cartesian basis functions of A   symmetry.
 There are    46 symmetry adapted basis functions of A   symmetry.
    46 basis functions,    80 primitive gaussians,    46 cartesian basis functions
     8 alpha electrons        8 beta electrons
       nuclear repulsion energy        33.3609209825 Hartrees.
 NAtoms=    6 NActive=    6 NUniq=    6 SFac= 1.00D+00 NAtFMM=   60 NAOKFM=F Big=F
 Integral buffers will be    131072 words long.
 Raffenetti 2 integral format.
 Two-electron integral symmetry is turned on.
 One-electron integrals computed using PRISM.
 NBasis=    46 RedAO= T EigKep=  2.16D-04  NBF=    46
 NBsUse=    46 1.00D-06 EigRej= -1.00D+00 NBFU=    46
 Initial guess from the checkpoint file:  "/srv/scratch/z5358697/gauss/Gau-1577646.chk"
 B after Tr=     0.000000    0.000000    0.000000
         Rot=    1.000000    0.000000    0.000000    0.000000 Ang=   0.00 deg.
 Keep R1 ints in memory in canonical form, NReq=1476015.
 Requested convergence on RMS density matrix=1.00D-08 within 128 cycles.
 Requested convergence on MAX density matrix=1.00D-06.
 Requested convergence on             energy=1.00D-06.
 No special actions if energy rises.
 SCF Done:  E(RM062X) =  -78.5412831350     A.U. after    1 cycles
            NFock=  1  Conv=0.13D-08     -V/T= 2.0096
 DoSCS=F DFT=T ScalE2(SS,OS)=  1.000000  1.000000
 Range of M.O.s used for correlation:     1    46
 NBasis=    46 NAE=     8 NBE=     8 NFC=     0 NFV=     0
 NROrb=     46 NOA=     8 NOB=     8 NVA=    38 NVB=    38

 **** Warning!!: The largest alpha MO coefficient is  0.37614816D+02

 Symmetrizing basis deriv contribution to polar:
 IMax=3 JMax=2 DiffMx= 0.00D+00
 G2DrvN: will do     7 centers at a time, making    1 passes.
 Calling FoFCou, ICntrl=  3107 FMM=F I1Cent=   0 AccDes= 0.00D+00.
 End of G2Drv F.D. properties file   721 does not exist.
 End of G2Drv F.D. properties file   722 does not exist.
 End of G2Drv F.D. properties file   788 does not exist.
          IDoAtm=111111
          Differentiating once with respect to electric field.
                with respect to dipole field.
          Differentiating once with respect to nuclear coordinates.
 Keep R1 ints in memory in canonical form, NReq=1450797.
          There are    21 degrees of freedom in the 1st order CPHF.  IDoFFX=6 NUNeed=     3.
     18 vectors produced by pass  0 Test12= 1.45D-15 4.76D-09 XBig12= 2.08D+01 3.69D+00.
 AX will form    18 AO Fock derivatives at one time.
     18 vectors produced by pass  1 Test12= 1.45D-15 4.76D-09 XBig12= 1.14D+00 4.95D-01.
     18 vectors produced by pass  2 Test12= 1.45D-15 4.76D-09 XBig12= 1.11D-02 3.96D-02.
     18 vectors produced by pass  3 Test12= 1.45D-15 4.76D-09 XBig12= 4.51D-05 2.62D-03.
     18 vectors produced by pass  4 Test12= 1.45D-15 4.76D-09 XBig12= 7.82D-08 8.65D-05.
     17 vectors produced by pass  5 Test12= 1.45D-15 4.76D-09 XBig12= 1.55D-10 4.74D-06.
      4 vectors produced by pass  6 Test12= 1.45D-15 4.76D-09 XBig12= 2.71D-13 1.96D-07.
      1 vectors produced by pass  7 Test12= 1.45D-15 4.76D-09 XBig12= 1.48D-15 1.85D-08.
 InvSVY:  IOpt=1 It=  1 EMax= 9.91D-16
 Solved reduced A of dimension   112 with    21 vectors.
 Isotropic polarizability for W=    0.000000       23.82 Bohr**3.
 End of Minotr F.D. properties file   721 does not exist.
 End of Minotr F.D. properties file   722 does not exist.
 End of Minotr F.D. properties file   788 does not exist.

 **********************************************************************

            Population analysis using the SCF density.

 **********************************************************************

 Orbital symmetries:
       Occupied  (A) (A) (A) (A) (A) (A) (A) (A)
       Virtual   (A) (A) (A) (A) (A) (A) (A) (A) (A) (A) (A) (A)
                 (A) (A) (A) (A) (A) (A) (A) (A) (A) (A) (A) (A)
                 (A) (A) (A) (A) (A) (A) (A) (A) (A) (A) (A) (A)
                 (A) (A)
 The electronic state is 1-A.
 Alpha  occ. eigenvalues --  -10.55163 -10.55050  -0.85989  -0.66387  -0.54242
 Alpha  occ. eigenvalues --   -0.48548  -0.41928  -0.33310
 Alpha virt. eigenvalues --    0.02868   0.04338   0.04492   0.06216   0.08430
 Alpha virt. eigenvalues --    0.09456   0.10170   0.14360   0.17308   0.22245
 Alpha virt. eigenvalues --    0.23298   0.28741   0.39038   0.39344   0.61795
 Alpha virt. eigenvalues --    0.69901   0.72574   0.77633   0.82740   0.85463
 Alpha virt. eigenvalues --    0.96117   1.01350   1.04208   1.07729   1.20625
 Alpha virt. eigenvalues --    1.26954   1.50872   1.58754   1.87771   1.93656
 Alpha virt. eigenvalues --    2.08610   2.17053   2.35744   2.41818   2.74500
 Alpha virt. eigenvalues --    2.74535   4.16276   4.29261
          Condensed to atoms (all electrons):
               1          2          3          4          5          6
     1  C    5.012954   0.673645   0.386052   0.386052  -0.033613  -0.033612
     2  C    0.673645   5.012954  -0.033613  -0.033613   0.386052   0.386052
     3  H    0.386052  -0.033613   0.482539  -0.028590   0.003372  -0.005499
     4  H    0.386052  -0.033613  -0.028590   0.482539  -0.005499   0.003372
     5  H   -0.033613   0.386052   0.003372  -0.005499   0.482539  -0.028590
     6  H   -0.033612   0.386052  -0.005499   0.003372  -0.028590   0.482539
 Mulliken charges:
               1
     1  C   -0.391478
     2  C   -0.391478
     3  H    0.195739
     4  H    0.195739
     5  H    0.195739
     6  H    0.195739
 Sum of Mulliken charges =   0.00000
 Mulliken charges with hydrogens summed into heavy atoms:
               1
     1  C    0.000000
     2  C    0.000000
 APT charges:
               1
     1  C   -0.082331
     2  C   -0.082330
     3  H    0.041166
     4  H    0.041166
     5  H    0.041165
     6  H    0.041165
 Sum of APT charges =   0.00000
 APT charges with hydrogens summed into heavy atoms:
               1
     1  C    0.000000
     2  C    0.000000
 Electronic spatial extent (au):  <R**2>=             83.1549
 Charge=              0.0000 electrons
 Dipole moment (field-independent basis, Debye):
    X=              0.0000    Y=              0.0000    Z=              0.0004  Tot=              0.0004
 Quadrupole moment (field-independent basis, Debye-Ang):
   XX=            -12.2541   YY=            -12.3490   ZZ=            -15.9855
   XY=              0.0000   XZ=              0.0000   YZ=              0.0000
 Traceless Quadrupole moment (field-independent basis, Debye-Ang):
   XX=              1.2754   YY=              1.1806   ZZ=             -2.4560
   XY=              0.0000   XZ=              0.0000   YZ=              0.0000
 Octapole moment (field-independent basis, Debye-Ang**2):
  XXX=              0.0000  YYY=              0.0000  ZZZ=              0.0007  XYY=              0.0000
  XXY=              0.0000  XXZ=              0.0010  XZZ=              0.0000  YZZ=              0.0000
  YYZ=              0.0006  XYZ=              0.0000
 Hexadecapole moment (field-independent basis, Debye-Ang**3):
 XXXX=            -69.5097 YYYY=            -27.6483 ZZZZ=            -21.1732 XXXY=              0.0000
 XXXZ=              0.0000 YYYX=              0.0000 YYYZ=              0.0000 ZZZX=              0.0000
 ZZZY=              0.0000 XXYY=            -13.6310 XXZZ=            -16.2044 YYZZ=             -8.7853
 XXYZ=              0.0000 YYXZ=              0.0000 ZZXY=              0.0000
 N-N= 3.336092098248D+01 E-N=-2.479476652106D+02  KE= 7.779763802025D+01
  Exact polarizability:  33.839   0.000  20.938   0.000   0.000  16.675
 Approx polarizability:  39.369   0.000  21.455   0.000   0.000  16.958
 Calling FoFJK, ICntrl=    100127 FMM=F ISym2X=0 I1Cent= 0 IOpClX= 0 NMat=1 NMatS=1 NMatT=0.
 Full mass-weighted force constant matrix:
 Low frequencies ---  -22.7394   -6.5314   -0.0004    0.0002    0.0004   85.6219
 Low frequencies ---  837.2804  997.7446  998.7200
 Diagonal vibrational polarizability:
        0.1254834       0.0819001       3.4086870
 Harmonic frequencies (cm**-1), IR intensities (KM/Mole), Raman scattering
 activities (A**4/AMU), depolarization ratios for plane and unpolarized
 incident light, reduced masses (AMU), force constants (mDyne/A),
 and normal coordinates:
                      1                      2                      3
                      A                      A                      A
 Frequencies --    837.2804               997.7446               998.7089
 Red. masses --      1.0424                 1.1607                 1.5178
 Frc consts  --      0.4306                 0.6808                 0.8919
 IR Inten    --      0.7884               126.0934                 0.0002
  Atom  AN      X      Y      Z        X      Y      Z        X      Y      Z
     1   6     0.00  -0.04   0.00     0.00   0.00   0.08     0.00   0.00   0.15
     2   6     0.00  -0.04   0.00     0.00   0.00   0.08     0.00   0.00  -0.15
     3   1     0.44   0.24   0.00     0.00   0.00  -0.50     0.00   0.00  -0.49
     4   1    -0.44   0.24   0.00     0.00   0.00  -0.50     0.00   0.00  -0.49
     5   1     0.44   0.24   0.00     0.00   0.00  -0.50     0.00   0.00   0.49
     6   1    -0.44   0.24   0.00     0.00   0.00  -0.50     0.00   0.00   0.49
                      4                      5                      6
                      A                      A                      A
 Frequencies --   1069.4247              1243.1522              1395.6823
 Red. masses --      1.0078                 1.5225                 1.2124
 Frc consts  --      0.6791                 1.3863                 1.3914
 IR Inten    --      0.0000                 0.0000                 0.0000
  Atom  AN      X      Y      Z        X      Y      Z        X      Y      Z
     1   6     0.00   0.00   0.00     0.00   0.15   0.00     0.10   0.00   0.00
     2   6     0.00   0.00   0.00     0.00  -0.15   0.00    -0.10   0.00   0.00
     3   1     0.00   0.00   0.50    -0.47  -0.14   0.00     0.45   0.20   0.00
     4   1     0.00   0.00  -0.50     0.47  -0.14   0.00     0.45  -0.20   0.00
     5   1     0.00   0.00   0.50     0.47   0.14   0.00    -0.45  -0.20   0.00
     6   1     0.00   0.00  -0.50    -0.47   0.14   0.00    -0.45   0.20   0.00
                      7                      8                      9
                      A                      A                      A
 Frequencies --   1486.7961              1725.3590              3177.5497
 Red. masses --      1.1120                 3.1988                 1.0477
 Frc consts  --      1.4483                 5.6103                 6.2327
 IR Inten    --      7.8395                 0.0000                11.2728
  Atom  AN      X      Y      Z        X      Y      Z        X      Y      Z
     1   6     0.07   0.00   0.00     0.32   0.00   0.00     0.04   0.00   0.00
     2   6     0.07   0.00   0.00    -0.32   0.00   0.00     0.04   0.00   0.00
     3   1    -0.41  -0.28   0.00    -0.23  -0.38   0.00    -0.25   0.43   0.00
     4   1    -0.41   0.28   0.00    -0.23   0.38   0.00    -0.25  -0.43   0.00
     5   1    -0.41  -0.28   0.00     0.23   0.38   0.00    -0.25   0.43   0.00
     6   1    -0.41   0.28   0.00     0.23  -0.38   0.00    -0.25  -0.43   0.00
                     10                     11                     12
                      A                      A                      A
 Frequencies --   3193.5388              3255.1271              3279.2032
 Red. masses --      1.0749                 1.1159                 1.1180
 Frc consts  --      6.4588                 6.9665                 7.0832
 IR Inten    --      0.0000                 0.0000                20.6331
  Atom  AN      X      Y      Z        X      Y      Z        X      Y      Z
     1   6    -0.06   0.00   0.00     0.00  -0.07   0.00     0.00   0.07   0.00
     2   6     0.06   0.00   0.00     0.00   0.07   0.00     0.00   0.07   0.00
     3   1     0.26  -0.43   0.00    -0.26   0.42   0.00     0.26  -0.42   0.00
     4   1     0.26   0.43   0.00     0.26   0.42   0.00    -0.26  -0.42   0.00
     5   1    -0.26   0.43   0.00     0.26  -0.42   0.00     0.26  -0.42   0.00
     6   1    -0.26  -0.43   0.00    -0.26  -0.42   0.00    -0.26  -0.42   0.00

 -------------------
 - Thermochemistry -
 -------------------
 Temperature   298.150 Kelvin.  Pressure   1.00000 Atm.
 Atom     1 has atomic number  6 and mass  12.00000
 Atom     2 has atomic number  6 and mass  12.00000
 Atom     3 has atomic number  1 and mass   1.00783
 Atom     4 has atomic number  1 and mass   1.00783
 Atom     5 has atomic number  1 and mass   1.00783
 Atom     6 has atomic number  1 and mass   1.00783
 Molecular mass:    28.03130 amu.
 Principal axes and moments of inertia in atomic units:
                           1         2         3
     Eigenvalues --    12.31484  59.89154  72.20638
           X            1.00000   0.00000   0.00000
           Y            0.00000   1.00000   0.00000
           Z            0.00000   0.00000   1.00000
 This molecule is an asymmetric top.
 Rotational symmetry number  1.
 Rotational temperatures (Kelvin)      7.03329     1.44618     1.19953
 Rotational constants (GHZ):         146.55013    30.13349    24.99421
 Zero-point vibrational energy     135534.3 (Joules/Mol)
                                   32.39348 (Kcal/Mol)
 Vibrational temperatures:   1204.66  1435.53  1436.92  1538.66  1788.62
          (Kelvin)           2008.07  2139.17  2482.40  4571.78  4594.78
                             4683.40  4718.04
 
 Zero-point correction=                           0.051622 (Hartree/Particle)
 Thermal correction to Energy=                    0.054654
 Thermal correction to Enthalpy=                  0.055598
 Thermal correction to Gibbs Free Energy=         0.029442
 Sum of electronic and zero-point Energies=            -78.489661
 Sum of electronic and thermal Energies=               -78.486629
 Sum of electronic and thermal Enthalpies=             -78.485685
 Sum of electronic and thermal Free Energies=          -78.511841
 
                     E (Thermal)             CV                S
                      KCal/Mol        Cal/Mol-Kelvin    Cal/Mol-Kelvin
 Total                   34.296              8.016             55.051
 Electronic               0.000              0.000              0.000
 Translational            0.889              2.981             35.927
 Rotational               0.889              2.981             18.616
 Vibrational             32.519              2.055              0.508
                       Q            Log10(Q)             Ln(Q)
 Total Bot       0.286874D-13        -13.542309        -31.182318
 Total V=0       0.159311D+11         10.202246         23.491541
 Vib (Bot)       0.188252D-23        -23.725260        -54.629430
 Vib (V=0)       0.104543D+01          0.019295          0.044429
 Electronic      0.100000D+01          0.000000          0.000000
 Translational   0.583338D+07          6.765920         15.579107
 Rotational      0.261235D+04          3.417031          7.868005
 ***** Axes restored to original set *****
 -------------------------------------------------------------------
 Center     Atomic                   Forces (Hartrees/Bohr)
 Number     Number              X              Y              Z
 -------------------------------------------------------------------
      1        6           0.000064903   -0.000067768    0.000002752
      2        6          -0.000062812    0.000062035   -0.000032862
      3        1           0.000020237    0.000006891    0.000007915
      4        1          -0.000006429   -0.000017539    0.000011391
      5        1          -0.000021135   -0.000004071    0.000006419
      6        1           0.000005236    0.000020452    0.000004385
 -------------------------------------------------------------------
 Cartesian Forces:  Max     0.000067768 RMS     0.000033044
 FormGI is forming the generalized inverse of G from B-inverse, IUseBI=4.

 GradGradGradGradGradGradGradGradGradGradGradGradGradGradGradGradGradGrad
 Berny optimization.
 Internal  Forces:  Max     0.000113273 RMS     0.000031543
 Search for a local minimum.
 Step number   1 out of a maximum of    2
 All quantities printed in internal units (Hartrees-Bohrs-Radians)
 Second derivative matrix not updated -- analytic derivatives used.
 The second derivative matrix:
                          R1        R2        R3        R4        R5
           R1           0.65693
           R2           0.00634   0.36717
           R3           0.00634   0.00217   0.36717
           R4           0.00634  -0.00044   0.00063   0.36717
           R5           0.00634   0.00063  -0.00044   0.00217   0.36717
           A1           0.01072   0.00477  -0.01123   0.00404  -0.00297
           A2           0.01072  -0.01123   0.00477  -0.00297   0.00404
           A3          -0.02145   0.00646   0.00646  -0.00108  -0.00108
           A4           0.01072   0.00404  -0.00297   0.00477  -0.01123
           A5           0.01072  -0.00297   0.00404  -0.01123   0.00477
           A6          -0.02145  -0.00108  -0.00108   0.00646   0.00646
           D1           0.00001   0.00000   0.00000   0.00000   0.00000
           D2           0.00000   0.00000   0.00000   0.00000   0.00000
           D3           0.00000   0.00000   0.00000   0.00000   0.00000
           D4          -0.00001   0.00000   0.00000   0.00000   0.00000
                          A1        A2        A3        A4        A5
           A1           0.08208
           A2          -0.04511   0.08208
           A3          -0.03697  -0.03697   0.07394
           A4           0.01018  -0.00864  -0.00154   0.08208
           A5          -0.00864   0.01018  -0.00154  -0.04511   0.08208
           A6          -0.00154  -0.00154   0.00308  -0.03697  -0.03697
           D1           0.00001   0.00000   0.00000   0.00001   0.00000
           D2           0.00000   0.00000   0.00000   0.00000   0.00000
           D3           0.00000  -0.00001   0.00000   0.00000   0.00000
           D4           0.00000  -0.00001   0.00000   0.00000  -0.00001
                          A6        D1        D2        D3        D4
           A6           0.07394
           D1           0.00000   0.03316
           D2           0.00000   0.00833   0.02654
           D3           0.00000   0.00833  -0.00988   0.02654
           D4           0.00000  -0.01650   0.00833   0.00833   0.03316
 ITU=  0
     Eigenvalues ---    0.03332   0.03643   0.04967   0.10564   0.10806
     Eigenvalues ---    0.11259   0.14360   0.36634   0.36638   0.36944
     Eigenvalues ---    0.36979   0.65996
 Angle between quadratic step and forces=  53.99 degrees.
 Linear search not attempted -- first point.
 Iteration  1 RMS(Cart)=  0.00009441 RMS(Int)=  0.00000001
 Iteration  2 RMS(Cart)=  0.00000001 RMS(Int)=  0.00000001
 Variable       Old X    -DE/DX   Delta X   Delta X   Delta X     New X
                                 (Linear)    (Quad)   (Total)
    R1        2.51409   0.00011   0.00000   0.00017   0.00017   2.51427
    R2        2.05315   0.00002   0.00000   0.00005   0.00005   2.05320
    R3        2.05315   0.00002   0.00000   0.00005   0.00005   2.05320
    R4        2.05315   0.00002   0.00000   0.00005   0.00005   2.05320
    R5        2.05315   0.00002   0.00000   0.00005   0.00005   2.05320
    A1        2.12317   0.00000   0.00000  -0.00002  -0.00002   2.12316
    A2        2.12318   0.00000   0.00000  -0.00002  -0.00002   2.12316
    A3        2.03684   0.00000   0.00000   0.00004   0.00004   2.03687
    A4        2.12317   0.00000   0.00000  -0.00002  -0.00002   2.12316
    A5        2.12318   0.00000   0.00000  -0.00002  -0.00002   2.12316
    A6        2.03683   0.00000   0.00000   0.00004   0.00004   2.03687
    D1        3.14133   0.00001   0.00000   0.00026   0.00026  -3.14159
    D2        0.00000   0.00000   0.00000   0.00000   0.00000   0.00000
    D3        0.00002   0.00000   0.00000  -0.00002  -0.00002   0.00000
    D4       -3.14131  -0.00001   0.00000  -0.00028  -0.00028   3.14159
         Item               Value     Threshold  Converged?
 Maximum Force            0.000113     0.000450     YES
 RMS     Force            0.000032     0.000300     YES
 Maximum Displacement     0.000168     0.001800     YES
 RMS     Displacement     0.000094     0.001200     YES
 Predicted change in Energy=-1.572981D-08
 Optimization completed.
    -- Stationary point found.
                           ----------------------------
                           !   Optimized Parameters   !
                           ! (Angstroms and Degrees)  !
 --------------------------                            --------------------------
 ! Name  Definition              Value          Derivative Info.                !
 --------------------------------------------------------------------------------
 ! R1    R(1,2)                  1.3304         -DE/DX =    0.0001              !
 ! R2    R(1,3)                  1.0865         -DE/DX =    0.0                 !
 ! R3    R(1,4)                  1.0865         -DE/DX =    0.0                 !
 ! R4    R(2,5)                  1.0865         -DE/DX =    0.0                 !
 ! R5    R(2,6)                  1.0865         -DE/DX =    0.0                 !
 ! A1    A(2,1,3)              121.6489         -DE/DX =    0.0                 !
 ! A2    A(2,1,4)              121.649          -DE/DX =    0.0                 !
 ! A3    A(3,1,4)              116.7021         -DE/DX =    0.0                 !
 ! A4    A(1,2,5)              121.6489         -DE/DX =    0.0                 !
 ! A5    A(1,2,6)              121.6491         -DE/DX =    0.0                 !
 ! A6    A(5,2,6)              116.7019         -DE/DX =    0.0                 !
 ! D1    D(3,1,2,5)           -180.0149         -DE/DX =    0.0                 !
 ! D2    D(3,1,2,6)              0.0001         -DE/DX =    0.0                 !
 ! D3    D(4,1,2,5)              0.0009         -DE/DX =    0.0                 !
 ! D4    D(4,1,2,6)            180.016          -DE/DX =    0.0                 !
 --------------------------------------------------------------------------------
 GradGradGradGradGradGradGradGradGradGradGradGradGradGradGradGradGradGrad

 1\1\GINC-KATANA2\Freq\RM062X\6-31+G(d)\C2H4\Z5358697\20-Mar-2025\0\\#N
  Geom=AllCheck Guess=TCheck SCRF=Check GenChk RM062X/6-31+G(d) Freq\\e
 thylene\\0,1\C,0.2828114226,1.0311684959,-0.1845952283\C,-0.6384908715
 ,1.9544305684,-0.4468087084\H,1.3406783174,1.2759876722,-0.14697848\H,
 0.0145394943,-0.0049554728,0.002260102\H,-1.6963389182,1.7095644917,-0
 .4846609264\H,-0.3701994447,2.9905042446,-0.6339167589\\Version=ES64L-
 G09RevD.01\State=1-A\HF=-78.5412831\RMSD=1.298e-09\RMSF=3.304e-05\Zero
 Point=0.0516223\Thermal=0.0546542\Dipole=0.0000125,-0.0000309,-0.00015
 41\DipoleDeriv=0.0431731,0.0646807,0.0179967,0.0646721,0.0287649,-0.06
 78642,0.0179185,-0.0677822,-0.3189314,0.0431529,0.0647089,0.0180461,0.
 0647178,0.0287125,-0.0679092,0.0181212,-0.0679882,-0.3188564,-0.080521
 5,-0.0211587,-0.0161173,-0.0413866,0.0426719,0.0216759,-0.0119808,0.02
 33337,0.1613461,0.0373512,-0.0435261,-0.0018884,-0.0232915,-0.0714294,
 0.0461969,-0.0059642,0.0444753,0.1575748,-0.0805116,-0.0211646,-0.0161
 287,-0.0414118,0.042684,0.0216951,-0.0120954,0.0233707,0.1613232,0.037
 3559,-0.0435401,-0.0019083,-0.0233,-0.0714038,0.0462055,-0.0059993,0.0
 445907,0.1575437\Polar=27.0968628,-6.1322836,26.9851668,2.0960639,-2.5
 857879,17.3694841\PG=C01 [X(C2H4)]\NImag=0\\0.76334226,-0.10629626,0.7
 4641236,0.07487538,-0.13624996,0.14813346,-0.34635536,0.23088091,-0.07
 104649,0.76333250,0.23088009,-0.34520631,0.07869738,-0.10628132,0.7463
 8803,-0.07105359,0.07870510,-0.07119887,0.07492836,-0.13630578,0.14816
 654,-0.33005342,-0.06630610,-0.01060217,-0.01753345,-0.00706953,-0.000
 51651,0.35037004,-0.07031957,-0.07545784,0.00165218,0.02415063,0.00949
 590,0.00129645,0.06971478,0.06965427,-0.00978585,0.00198476,-0.0397771
 2,-0.00681777,-0.00127333,0.00576089,0.01269035,-0.00323824,0.02686161
 ,-0.07931960,-0.07486216,0.01174788,0.00991954,0.02365352,-0.00445505,
 -0.00318878,-0.02651061,0.00481970,0.07382889,-0.07084838,-0.31816638,
 0.05055467,-0.00756682,-0.01707781,0.00404598,0.00039281,-0.00251067,0
 .00118728,0.07472455,0.33734330,0.01093590,0.05021738,-0.04779990,0.00
 184295,0.00661919,0.00488162,-0.00060620,-0.00102595,0.00337258,-0.011
 06600,-0.05680873,0.03571123,-0.01753328,-0.00706965,-0.00051820,-0.33
 004266,-0.06631632,-0.01065698,-0.00069461,0.00294149,-0.00171511,0.00
 110006,0.00032615,0.00074850,0.35035960,0.02415049,0.00949567,0.001297
 99,-0.07033246,-0.07545976,0.00164834,0.00294212,-0.00195908,0.0032408
 2,0.00002326,0.00077781,-0.00192534,0.06972590,0.06965677,-0.00681776,
 -0.00127595,0.00576096,-0.00985251,0.00197722,-0.03978535,-0.00171177,
 0.00324039,0.01210328,0.00080837,-0.00189894,-0.00832147,0.01274923,-0
 .00323135,0.02686900,0.00991940,0.02365326,-0.00445640,-0.07932058,-0.
 07486644,0.01175378,0.00110022,0.00002328,0.00080868,-0.00234010,0.002
 97170,-0.00185515,-0.00318912,-0.02650931,0.00482444,0.07383017,-0.007
 56637,-0.01707750,0.00404775,-0.07085093,-0.31814005,0.05060991,0.0003
 2591,0.00077742,-0.00190129,0.00297144,-0.00036626,0.00292344,0.000392
 43,-0.00251140,0.00118864,0.07472751,0.33731778,0.00184593,0.00661867,
 0.00488148,0.01094546,0.05028533,-0.04782481,0.00074631,-0.00192483,-0
 .00832124,-0.00185490,0.00291974,0.01215594,-0.00060744,-0.00103047,0.
 00337359,-0.01107536,-0.05686844,0.03573505\\-0.00006490,0.00006777,-0
 .00000275,0.00006281,-0.00006203,0.00003286,-0.00002024,-0.00000689,-0
 .00000792,0.00000643,0.00001754,-0.00001139,0.00002113,0.00000407,-0.0
 0000642,-0.00000524,-0.00002045,-0.00000438\\\@



 IN THIS SHORT LIFE

 THAT ONLY LASTS AN HOUR

 HOW MUCH, HOW LITTLE, IS WITHIN OUR POWER....


 EMILY DICKINSON BOLTS OF MELODY NO. 521
 Job cpu time:       0 days  0 hours  0 minutes  9.6 seconds.
 File lengths (MBytes):  RWF=    132 Int=      0 D2E=      0 Chk=      2 Scr=      2
 Normal termination of Gaussian 09 at Thu Mar 20 14:19:17 2025.
