 Entering Gaussian System, Link 0=g09
 Initial command:
 /apps/z_install_tree/linux-rocky8-ivybridge/gcc-12.2.0/gaussian-09-D.01-wczn3gur5lpur3omlkzwa2l5ecyxp5ef/g09/l1.exe "/srv/scratch/z5358697/gauss/Gau-3739847.inp" -scrdir="/srv/scratch/z5358697/gauss/"
 Entering Link 1 = /apps/z_install_tree/linux-rocky8-ivybridge/gcc-12.2.0/gaussian-09-D.01-wczn3gur5lpur3omlkzwa2l5ecyxp5ef/g09/l1.exe PID=   3739849.
  
 Copyright (c) 1988,1990,1992,1993,1995,1998,2003,2009,2013,
            Gaussian, Inc.  All Rights Reserved.
  
 This is part of the Gaussian(R) 09 program.  It is based on
 the Gaussian(R) 03 system (copyright 2003, Gaussian, Inc.),
 the Gaussian(R) 98 system (copyright 1998, Gaussian, Inc.),
 the Gaussian(R) 94 system (copyright 1995, Gaussian, Inc.),
 the Gaussian 92(TM) system (copyright 1992, Gaussian, Inc.),
 the Gaussian 90(TM) system (copyright 1990, Gaussian, Inc.),
 the Gaussian 88(TM) system (copyright 1988, Gaussian, Inc.),
 the Gaussian 86(TM) system (copyright 1986, Carnegie Mellon
 University), and the Gaussian 82(TM) system (copyright 1983,
 Carnegie Mellon University). Gaussian is a federally registered
 trademark of Gaussian, Inc.
  
 This software contains proprietary and confidential information,
 including trade secrets, belonging to Gaussian, Inc.
  
 This software is provided under written license and may be
 used, copied, transmitted, or stored only in accord with that
 written license.
  
 The following legend is applicable only to US Government
 contracts under FAR:
  
                    RESTRICTED RIGHTS LEGEND
  
 Use, reproduction and disclosure by the US Government is
 subject to restrictions as set forth in subparagraphs (a)
 and (c) of the Commercial Computer Software - Restricted
 Rights clause in FAR 52.227-19.
  
 Gaussian, Inc.
 340 Quinnipiac St., Bldg. 40, Wallingford CT 06492
  
  
 ---------------------------------------------------------------
 Warning -- This program may not be used in any manner that
 competes with the business of Gaussian, Inc. or will provide
 assistance to any competitor of Gaussian, Inc.  The licensee
 of this program is prohibited from giving any competitor of
 Gaussian, Inc. access to this program.  By using this program,
 the user acknowledges that Gaussian, Inc. is engaged in the
 business of creating and licensing software in the field of
 computational chemistry and represents and warrants to the
 licensee that it is not a competitor of Gaussian, Inc. and that
 it will not use this program in any manner prohibited above.
 ---------------------------------------------------------------
  

 Cite this work as:
 Gaussian 09, Revision D.01,
 M. J. Frisch, G. W. Trucks, H. B. Schlegel, G. E. Scuseria, 
 M. A. Robb, J. R. Cheeseman, G. Scalmani, V. Barone, B. Mennucci, 
 G. A. Petersson, H. Nakatsuji, M. Caricato, X. Li, H. P. Hratchian, 
 A. F. Izmaylov, J. Bloino, G. Zheng, J. L. Sonnenberg, M. Hada, 
 M. Ehara, K. Toyota, R. Fukuda, J. Hasegawa, M. Ishida, T. Nakajima, 
 Y. Honda, O. Kitao, H. Nakai, T. Vreven, J. A. Montgomery, Jr., 
 J. E. Peralta, F. Ogliaro, M. Bearpark, J. J. Heyd, E. Brothers, 
 K. N. Kudin, V. N. Staroverov, T. Keith, R. Kobayashi, J. Normand, 
 K. Raghavachari, A. Rendell, J. C. Burant, S. S. Iyengar, J. Tomasi, 
 M. Cossi, N. Rega, J. M. Millam, M. Klene, J. E. Knox, J. B. Cross, 
 V. Bakken, C. Adamo, J. Jaramillo, R. Gomperts, R. E. Stratmann, 
 O. Yazyev, A. J. Austin, R. Cammi, C. Pomelli, J. W. Ochterski, 
 R. L. Martin, K. Morokuma, V. G. Zakrzewski, G. A. Voth, 
 P. Salvador, J. J. Dannenberg, S. Dapprich, A. D. Daniels, 
 O. Farkas, J. B. Foresman, J. V. Ortiz, J. Cioslowski, 
 and D. J. Fox, Gaussian, Inc., Wallingford CT, 2013.
 
 ******************************************
 Gaussian 09:  ES64L-G09RevD.01 24-Apr-2013
                16-Mar-2025 
 ******************************************
 ---------------------------------
 #m062X/6-31+G(d) OPT Freq=noraman
 ---------------------------------
 1/14=-1,18=20,19=15,26=3,38=1/1,3;
 2/9=110,12=2,17=6,18=5,40=1/2;
 3/5=1,6=6,7=11,11=2,16=1,25=1,30=1,71=1,74=-55/1,2,3;
 4//1;
 5/5=2,38=5/2;
 6/7=2,8=2,9=2,10=2,28=1/1;
 7//1,2,3,16;
 1/14=-1,18=20,19=15,26=3/3(2);
 2/9=110/2;
 99//99;
 2/9=110/2;
 3/5=1,6=6,7=11,11=2,16=1,25=1,30=1,71=1,74=-55/1,2,3;
 4/5=5,16=3,69=1/1;
 5/5=2,38=5/2;
 7//1,2,3,16;
 1/14=-1,18=20,19=15,26=3/3(-5);
 2/9=110/2;
 6/7=2,8=2,9=2,10=2,19=2,28=1/1;
 99/9=1/99;
 --------------------------
 1,2,4,5-tetrachlorobenzene
 --------------------------
 Symbolic Z-matrix:
 Charge =  0 Multiplicity = 1
 C                     1.8851   -1.0363   -0.1124 
 C                     2.921    -1.6309    0.6081 
 C                     2.8783   -1.652     2.0022 
 C                     1.7997   -1.0786    2.6757 
 C                     0.7638   -0.4841    1.9551 
 C                     0.8066   -0.463     0.561 
 Cl                   -0.4461    0.2591   -0.3868 
 Cl                   -0.545     0.2094    2.8467 
 Cl                    4.1307   -2.3743    2.9502 
 Cl                    4.2304   -2.3241   -0.2829 
 H                     1.9185   -1.019    -1.2 
 H                     1.7665   -1.095     3.7633 
 

 GradGradGradGradGradGradGradGradGradGradGradGradGradGradGradGradGradGrad
 Berny optimization.
 Initialization pass.
                           ----------------------------
                           !    Initial Parameters    !
                           ! (Angstroms and Degrees)  !
 --------------------------                            --------------------------
 ! Name  Definition              Value          Derivative Info.                !
 --------------------------------------------------------------------------------
 ! R1    R(1,2)                  1.3949         estimate D2E/DX2                !
 ! R2    R(1,6)                  1.3947         estimate D2E/DX2                !
 ! R3    R(1,11)                 1.0883         estimate D2E/DX2                !
 ! R4    R(2,3)                  1.3949         estimate D2E/DX2                !
 ! R5    R(2,10)                 1.7289         estimate D2E/DX2                !
 ! R6    R(3,4)                  1.3949         estimate D2E/DX2                !
 ! R7    R(3,9)                  1.7289         estimate D2E/DX2                !
 ! R8    R(4,5)                  1.3949         estimate D2E/DX2                !
 ! R9    R(4,12)                 1.0882         estimate D2E/DX2                !
 ! R10   R(5,6)                  1.3949         estimate D2E/DX2                !
 ! R11   R(5,8)                  1.7288         estimate D2E/DX2                !
 ! R12   R(6,7)                  1.7289         estimate D2E/DX2                !
 ! A1    A(2,1,6)              120.0052         estimate D2E/DX2                !
 ! A2    A(2,1,11)             120.0131         estimate D2E/DX2                !
 ! A3    A(6,1,11)             119.9817         estimate D2E/DX2                !
 ! A4    A(1,2,3)              119.9958         estimate D2E/DX2                !
 ! A5    A(1,2,10)             117.8507         estimate D2E/DX2                !
 ! A6    A(3,2,10)             122.1535         estimate D2E/DX2                !
 ! A7    A(2,3,4)              119.9999         estimate D2E/DX2                !
 ! A8    A(2,3,9)              122.1519         estimate D2E/DX2                !
 ! A9    A(4,3,9)              117.8482         estimate D2E/DX2                !
 ! A10   A(3,4,5)              119.9999         estimate D2E/DX2                !
 ! A11   A(3,4,12)             119.9963         estimate D2E/DX2                !
 ! A12   A(5,4,12)             120.0039         estimate D2E/DX2                !
 ! A13   A(4,5,6)              119.9967         estimate D2E/DX2                !
 ! A14   A(4,5,8)              117.8232         estimate D2E/DX2                !
 ! A15   A(6,5,8)              122.1802         estimate D2E/DX2                !
 ! A16   A(1,6,5)              120.0026         estimate D2E/DX2                !
 ! A17   A(1,6,7)              117.8579         estimate D2E/DX2                !
 ! A18   A(5,6,7)              122.1395         estimate D2E/DX2                !
 ! D1    D(6,1,2,3)             -0.0063         estimate D2E/DX2                !
 ! D2    D(6,1,2,10)          -179.9843         estimate D2E/DX2                !
 ! D3    D(11,1,2,3)           179.9528         estimate D2E/DX2                !
 ! D4    D(11,1,2,10)           -0.0252         estimate D2E/DX2                !
 ! D5    D(2,1,6,5)              0.004          estimate D2E/DX2                !
 ! D6    D(2,1,6,7)            179.9803         estimate D2E/DX2                !
 ! D7    D(11,1,6,5)          -179.9551         estimate D2E/DX2                !
 ! D8    D(11,1,6,7)             0.0213         estimate D2E/DX2                !
 ! D9    D(1,2,3,4)              0.0043         estimate D2E/DX2                !
 ! D10   D(1,2,3,9)            179.9669         estimate D2E/DX2                !
 ! D11   D(10,2,3,4)           179.9813         estimate D2E/DX2                !
 ! D12   D(10,2,3,9)            -0.0561         estimate D2E/DX2                !
 ! D13   D(2,3,4,5)              0.0            estimate D2E/DX2                !
 ! D14   D(2,3,4,12)          -179.9935         estimate D2E/DX2                !
 ! D15   D(9,3,4,5)           -179.9642         estimate D2E/DX2                !
 ! D16   D(9,3,4,12)             0.0423         estimate D2E/DX2                !
 ! D17   D(3,4,5,6)             -0.0023         estimate D2E/DX2                !
 ! D18   D(3,4,5,8)           -179.9966         estimate D2E/DX2                !
 ! D19   D(12,4,5,6)           179.9912         estimate D2E/DX2                !
 ! D20   D(12,4,5,8)            -0.0031         estimate D2E/DX2                !
 ! D21   D(4,5,6,1)              0.0003         estimate D2E/DX2                !
 ! D22   D(4,5,6,7)           -179.975          estimate D2E/DX2                !
 ! D23   D(8,5,6,1)            179.9943         estimate D2E/DX2                !
 ! D24   D(8,5,6,7)              0.019          estimate D2E/DX2                !
 --------------------------------------------------------------------------------
 Trust Radius=3.00D-01 FncErr=1.00D-07 GrdErr=1.00D-06
 Number of steps in this run=     64 maximum allowed number of steps=    100.
 GradGradGradGradGradGradGradGradGradGradGradGradGradGradGradGradGradGrad

                          Input orientation:                          
 ---------------------------------------------------------------------
 Center     Atomic      Atomic             Coordinates (Angstroms)
 Number     Number       Type             X           Y           Z
 ---------------------------------------------------------------------
      1          6           0        1.885100   -1.036300   -0.112400
      2          6           0        2.921000   -1.630900    0.608100
      3          6           0        2.878300   -1.652000    2.002200
      4          6           0        1.799700   -1.078600    2.675700
      5          6           0        0.763800   -0.484100    1.955100
      6          6           0        0.806600   -0.463000    0.561000
      7         17           0       -0.446100    0.259100   -0.386800
      8         17           0       -0.545000    0.209400    2.846700
      9         17           0        4.130700   -2.374300    2.950200
     10         17           0        4.230400   -2.324100   -0.282900
     11          1           0        1.918500   -1.019000   -1.200000
     12          1           0        1.766500   -1.095000    3.763300
 ---------------------------------------------------------------------
                    Distance matrix (angstroms):
                    1          2          3          4          5
     1  C    0.000000
     2  C    1.394904   0.000000
     3  C    2.416002   1.394913   0.000000
     4  C    2.789728   2.416054   1.394908   0.000000
     5  C    2.415946   2.789816   2.416054   1.394913   0.000000
     6  C    1.394741   2.415967   2.789753   2.416023   1.394916
     7  Cl   2.681017   3.987391   4.517882   4.026408   2.738741
     8  Cl   4.026590   4.517875   3.987101   2.680635   1.728829
     9  Cl   4.026473   2.738878   1.728851   2.680998   3.987367
    10  Cl   2.681032   1.728854   2.738900   4.026523   4.517915
    11  H    1.088250   2.156074   3.402351   3.877978   3.402074
    12  H    3.877959   3.402256   2.155881   1.088230   2.155967
                    6          7          8          9         10
     6  C    0.000000
     7  Cl   1.728876   0.000000
     8  Cl   2.739228   3.235394   0.000000
     9  Cl   4.517852   6.246396   5.343069   0.000000
    10  Cl   3.987263   5.343535   6.246396   3.235026   0.000000
    11  H    2.155592   2.808232   4.894239   4.894367   2.808779
    12  H    3.402287   4.894131   2.807961   2.808413   4.894203
                   11         12
    11  H    0.000000
    12  H    4.966209   0.000000
 Stoichiometry    C6H2Cl4
 Framework group  C1[X(C6H2Cl4)]
 Deg. of freedom    30
 Full point group                 C1      NOp   1
 Largest Abelian subgroup         C1      NOp   1
 Largest concise Abelian subgroup C1      NOp   1
                         Standard orientation:                         
 ---------------------------------------------------------------------
 Center     Atomic      Atomic             Coordinates (Angstroms)
 Number     Number       Type             X           Y           Z
 ---------------------------------------------------------------------
      1          6           0       -0.000012   -1.394947   -0.000339
      2          6           0       -1.208031   -0.697489   -0.000114
      3          6           0       -1.207922    0.697424    0.000249
      4          6           0        0.000159    1.394781    0.000298
      5          6           0        1.208132    0.697225   -0.000017
      6          6           0        1.207936   -0.697692   -0.000333
      7         17           0        2.671740   -1.617630   -0.000093
      8         17           0        2.671504    1.617764    0.000152
      9         17           0       -2.671565    1.617574   -0.000304
     10         17           0       -2.671795   -1.617452    0.000286
     11          1           0        0.000232   -2.483197    0.000154
     12          1           0        0.000176    2.483011    0.000689
 ---------------------------------------------------------------------
 Rotational constants (GHZ):      1.1268770      0.4730079      0.3331625
 Standard basis: 6-31+G(d) (6D, 7F)
 There are   210 symmetry adapted cartesian basis functions of A   symmetry.
 There are   210 symmetry adapted basis functions of A   symmetry.
   210 basis functions,   424 primitive gaussians,   210 cartesian basis functions
    53 alpha electrons       53 beta electrons
       nuclear repulsion energy       827.6630513026 Hartrees.
 NAtoms=   12 NActive=   12 NUniq=   12 SFac= 1.00D+00 NAtFMM=   60 NAOKFM=F Big=F
 Integral buffers will be    131072 words long.
 Raffenetti 2 integral format.
 Two-electron integral symmetry is turned on.
 One-electron integrals computed using PRISM.
 NBasis=   210 RedAO= T EigKep=  1.61D-06  NBF=   210
 NBsUse=   209 1.00D-06 EigRej=  8.40D-07 NBFU=   209
 ExpMin= 4.38D-02 ExpMax= 2.52D+04 ExpMxC= 3.78D+03 IAcc=2 IRadAn=         4 AccDes= 0.00D+00
 Harris functional with IExCor= 1009 and IRadAn=       4 diagonalized for initial guess.
 HarFok:  IExCor= 1009 AccDes= 0.00D+00 IRadAn=         4 IDoV= 1 UseB2=F ITyADJ=14
 ICtDFT=  3500011 ScaDFX=  1.000000  1.000000  1.000000  1.000000
 FoFCou: FMM=F IPFlag=           0 FMFlag=      100000 FMFlg1=           0
         NFxFlg=           0 DoJE=T BraDBF=F KetDBF=T FulRan=T
         wScrn=  0.000000 ICntrl=     500 IOpCl=  0 I1Cent=   200000004 NGrid=           0
         NMat0=    1 NMatS0=      1 NMatT0=    0 NMatD0=    1 NMtDS0=    0 NMtDT0=    0
 Petite list used in FoFCou.
 Requested convergence on RMS density matrix=1.00D-08 within 128 cycles.
 Requested convergence on MAX density matrix=1.00D-06.
 Requested convergence on             energy=1.00D-06.
 No special actions if energy rises.
 SCF Done:  E(RM062X) =  -2070.41160659     A.U. after   13 cycles
            NFock= 13  Conv=0.55D-08     -V/T= 2.0034

 **********************************************************************

            Population analysis using the SCF density.

 **********************************************************************

 Orbital symmetries:
       Occupied  (A) (A) (A) (A) (A) (A) (A) (A) (A) (A) (A) (A)
                 (A) (A) (A) (A) (A) (A) (A) (A) (A) (A) (A) (A)
                 (A) (A) (A) (A) (A) (A) (A) (A) (A) (A) (A) (A)
                 (A) (A) (A) (A) (A) (A) (A) (A) (A) (A) (A) (A)
                 (A) (A) (A) (A) (A)
       Virtual   (A) (A) (A) (A) (A) (A) (A) (A) (A) (A) (A) (A)
                 (A) (A) (A) (A) (A) (A) (A) (A) (A) (A) (A) (A)
                 (A) (A) (A) (A) (A) (A) (A) (A) (A) (A) (A) (A)
                 (A) (A) (A) (A) (A) (A) (A) (A) (A) (A) (A) (A)
                 (A) (A) (A) (A) (A) (A) (A) (A) (A) (A) (A) (A)
                 (A) (A) (A) (A) (A) (A) (A) (A) (A) (A) (A) (A)
                 (A) (A) (A) (A) (A) (A) (A) (A) (A) (A) (A) (A)
                 (A) (A) (A) (A) (A) (A) (A) (A) (A) (A) (A) (A)
                 (A) (A) (A) (A) (A) (A) (A) (A) (A) (A) (A) (A)
                 (A) (A) (A) (A) (A) (A) (A) (A) (A) (A) (A) (A)
                 (A) (A) (A) (A) (A) (A) (A) (A) (A) (A) (A) (A)
                 (A) (A) (A) (A) (A) (A) (A) (A) (A) (A) (A) (A)
                 (A) (A) (A) (A) (A) (A) (A) (A) (A) (A) (A) (A)
 The electronic state is 1-A.
 Alpha  occ. eigenvalues -- -102.69705-102.69705-102.69705-102.69705 -10.65576
 Alpha  occ. eigenvalues --  -10.65574 -10.65500 -10.65499 -10.60775 -10.60774
 Alpha  occ. eigenvalues --   -9.84346  -9.84346  -9.84345  -9.84345  -7.56774
 Alpha  occ. eigenvalues --   -7.56774  -7.56773  -7.56772  -7.56076  -7.56076
 Alpha  occ. eigenvalues --   -7.56075  -7.56075  -7.56050  -7.56049  -7.56048
 Alpha  occ. eigenvalues --   -7.56048  -1.06199  -1.02231  -0.99003  -0.97612
 Alpha  occ. eigenvalues --   -0.93368  -0.86433  -0.82957  -0.74520  -0.69516
 Alpha  occ. eigenvalues --   -0.61042  -0.60935  -0.56706  -0.53276  -0.53169
 Alpha  occ. eigenvalues --   -0.52986  -0.48350  -0.47832  -0.47563  -0.44334
 Alpha  occ. eigenvalues --   -0.42639  -0.41729  -0.40539  -0.39689  -0.39011
 Alpha  occ. eigenvalues --   -0.38802  -0.33215  -0.31182
 Alpha virt. eigenvalues --   -0.02794  -0.01856   0.00151   0.01159   0.01727
 Alpha virt. eigenvalues --    0.02049   0.04034   0.05148   0.05357   0.05721
 Alpha virt. eigenvalues --    0.05924   0.06479   0.07921   0.08424   0.09191
 Alpha virt. eigenvalues --    0.09560   0.09623   0.10491   0.11423   0.11739
 Alpha virt. eigenvalues --    0.11903   0.12453   0.12568   0.12883   0.14337
 Alpha virt. eigenvalues --    0.14731   0.16144   0.16156   0.16268   0.16325
 Alpha virt. eigenvalues --    0.17196   0.19468   0.19656   0.19752   0.20506
 Alpha virt. eigenvalues --    0.21408   0.21744   0.22151   0.23247   0.23877
 Alpha virt. eigenvalues --    0.24883   0.25226   0.25348   0.25768   0.27482
 Alpha virt. eigenvalues --    0.28236   0.29341   0.30453   0.32265   0.32401
 Alpha virt. eigenvalues --    0.33692   0.34904   0.48878   0.51873   0.52409
 Alpha virt. eigenvalues --    0.56820   0.59541   0.60775   0.61183   0.62230
 Alpha virt. eigenvalues --    0.62776   0.64562   0.64954   0.66794   0.67044
 Alpha virt. eigenvalues --    0.67060   0.67481   0.68728   0.69124   0.72894
 Alpha virt. eigenvalues --    0.73047   0.73421   0.73627   0.75064   0.75483
 Alpha virt. eigenvalues --    0.78068   0.78749   0.79416   0.80209   0.85143
 Alpha virt. eigenvalues --    0.86078   0.86170   0.87898   0.90775   0.91460
 Alpha virt. eigenvalues --    0.91571   0.92130   0.92800   0.92840   0.94394
 Alpha virt. eigenvalues --    0.94870   0.95742   0.95783   0.98346   1.00996
 Alpha virt. eigenvalues --    1.01190   1.03457   1.08103   1.09026   1.09171
 Alpha virt. eigenvalues --    1.10057   1.11664   1.14258   1.14896   1.19175
 Alpha virt. eigenvalues --    1.21547   1.23950   1.24888   1.25866   1.30015
 Alpha virt. eigenvalues --    1.35128   1.38411   1.43780   1.44690   1.51555
 Alpha virt. eigenvalues --    1.51757   1.53934   1.54475   1.55390   1.56089
 Alpha virt. eigenvalues --    1.59467   1.78184   1.81915   1.82782   1.95942
 Alpha virt. eigenvalues --    1.96486   2.03288   2.08597   2.11721   2.13095
 Alpha virt. eigenvalues --    2.13239   2.16161   2.22365   2.25794   2.27373
 Alpha virt. eigenvalues --    2.30269   2.51907   2.57405   2.59985   2.65382
 Alpha virt. eigenvalues --    2.69732   2.71097   2.71518   2.84755   3.00873
 Alpha virt. eigenvalues --    3.26733   4.16745   4.24587   4.27960   4.34891
 Alpha virt. eigenvalues --    4.37110   4.42874   4.43272   4.43882   4.48611
 Alpha virt. eigenvalues --    4.65793
          Condensed to atoms (all electrons):
               1          2          3          4          5          6
     1  C    5.837834   0.497949  -0.508128   0.139410  -0.507324   0.497695
     2  C    0.497949   7.733370  -1.255034  -0.507712   0.672285  -0.750598
     3  C   -0.508128  -1.255034   7.733567   0.497814  -0.751044   0.673140
     4  C    0.139410  -0.507712   0.497814   5.837630   0.497606  -0.506806
     5  C   -0.507324   0.672285  -0.751044   0.497606   7.735875  -1.256251
     6  C    0.497695  -0.750598   0.673140  -0.506806  -1.256251   7.732526
     7  Cl  -0.001699   0.025574  -0.001477  -0.021750  -0.253914   0.106794
     8  Cl  -0.021808  -0.001520   0.025536  -0.001580   0.106872  -0.254107
     9  Cl  -0.021821  -0.253906   0.106985  -0.001753   0.025481  -0.001504
    10  Cl  -0.001571   0.106905  -0.253995  -0.021816  -0.001530   0.025488
    11  H    0.302570  -0.028432   0.036213  -0.012180   0.036464  -0.028321
    12  H   -0.012163   0.036387  -0.028260   0.302712  -0.028550   0.036174
               7          8          9         10         11         12
     1  C   -0.001699  -0.021808  -0.021821  -0.001571   0.302570  -0.012163
     2  C    0.025574  -0.001520  -0.253906   0.106905  -0.028432   0.036387
     3  C   -0.001477   0.025536   0.106985  -0.253995   0.036213  -0.028260
     4  C   -0.021750  -0.001580  -0.001753  -0.021816  -0.012180   0.302712
     5  C   -0.253914   0.106872   0.025481  -0.001530   0.036464  -0.028550
     6  C    0.106794  -0.254107  -0.001504   0.025488  -0.028321   0.036174
     7  Cl  16.868386   0.035102   0.000915  -0.005472   0.001686   0.000982
     8  Cl   0.035102  16.868362  -0.005475   0.000917   0.000981   0.001684
     9  Cl   0.000915  -0.005475  16.868359   0.035117   0.000982   0.001690
    10  Cl  -0.005472   0.000917   0.035117  16.868307   0.001683   0.000981
    11  H    0.001686   0.000981   0.000982   0.001683   0.426609   0.000007
    12  H    0.000982   0.001684   0.001690   0.000981   0.000007   0.426616
 Mulliken charges:
               1
     1  C   -0.200945
     2  C   -0.275268
     3  C   -0.275317
     4  C   -0.201575
     5  C   -0.275970
     6  C   -0.274230
     7  Cl   0.244873
     8  Cl   0.245036
     9  Cl   0.244932
    10  Cl   0.244986
    11  H    0.261739
    12  H    0.261740
 Sum of Mulliken charges =   0.00000
 Mulliken charges with hydrogens summed into heavy atoms:
               1
     1  C    0.060794
     2  C   -0.275268
     3  C   -0.275317
     4  C    0.060164
     5  C   -0.275970
     6  C   -0.274230
     7  Cl   0.244873
     8  Cl   0.245036
     9  Cl   0.244932
    10  Cl   0.244986
 Electronic spatial extent (au):  <R**2>=           2853.1845
 Charge=              0.0000 electrons
 Dipole moment (field-independent basis, Debye):
    X=              0.0000    Y=              0.0000    Z=              0.0006  Tot=              0.0006
 Quadrupole moment (field-independent basis, Debye-Ang):
   XX=            -89.4387   YY=            -80.1714   ZZ=            -86.3978
   XY=              0.0012   XZ=              0.0005   YZ=             -0.0002
 Traceless Quadrupole moment (field-independent basis, Debye-Ang):
   XX=             -4.1027   YY=              5.1645   ZZ=             -1.0618
   XY=              0.0012   XZ=              0.0005   YZ=             -0.0002
 Octapole moment (field-independent basis, Debye-Ang**2):
  XXX=             -0.0082  YYY=              0.0059  ZZZ=              0.0010  XYY=              0.0031
  XXY=              0.0029  XXZ=              0.0004  XZZ=             -0.0003  YZZ=              0.0008
  YYZ=              0.0066  XYZ=              0.0020
 Hexadecapole moment (field-independent basis, Debye-Ang**3):
 XXXX=          -2382.6547 YYYY=          -1075.3734 ZZZZ=            -98.2815 XXXY=              0.0093
 XXXZ=              0.0158 YYYX=              0.0171 YYYZ=             -0.0065 ZZZX=              0.0028
 ZZZY=             -0.0067 XXYY=           -567.7401 XXZZ=           -433.4139 YYZZ=           -210.3400
 XXYZ=             -0.0171 YYXZ=              0.0059 ZZXY=              0.0011
 N-N= 8.276630513026D+02 E-N=-6.560844808332D+03  KE= 2.063495845372D+03
 Calling FoFJK, ICntrl=      2127 FMM=F ISym2X=0 I1Cent= 0 IOpClX= 0 NMat=1 NMatS=1 NMatT=0.
 ***** Axes restored to original set *****
 -------------------------------------------------------------------
 Center     Atomic                   Forces (Hartrees/Bohr)
 Number     Number              X              Y              Z
 -------------------------------------------------------------------
      1        6          -0.000082659   -0.000076207    0.005198218
      2        6          -0.002181264    0.001415010   -0.005752212
      3        6          -0.002565941    0.001171286    0.005644749
      4        6           0.000186744    0.000076336   -0.005327249
      5        6           0.002254690   -0.001426992    0.005838950
      6        6           0.002410595   -0.001131808   -0.005550245
      7       17          -0.001509497    0.000761109    0.001890944
      8       17          -0.001428056    0.000852097   -0.002016179
      9       17           0.001524392   -0.000754911   -0.001901635
     10       17           0.001384460   -0.000837401    0.001966504
     11        1          -0.000071463   -0.000086399    0.002887829
     12        1           0.000077999    0.000037880   -0.002879674
 -------------------------------------------------------------------
 Cartesian Forces:  Max     0.005838950 RMS     0.002672614

 GradGradGradGradGradGradGradGradGradGradGradGradGradGradGradGradGradGrad
 Berny optimization.
 FormGI is forming the generalized inverse of G from B-inverse, IUseBI=4.
 Internal  Forces:  Max     0.004647682 RMS     0.001932131
 Search for a local minimum.
 Step number   1 out of a maximum of   64
 All quantities printed in internal units (Hartrees-Bohrs-Radians)
 Mixed Optimization -- RFO/linear search
 Second derivative matrix not updated -- first step.
 ITU=  0
     Eigenvalues ---    0.02156   0.02156   0.02156   0.02156   0.02156
     Eigenvalues ---    0.02156   0.02157   0.02157   0.02158   0.16000
     Eigenvalues ---    0.16000   0.23000   0.23981   0.25000   0.25000
     Eigenvalues ---    0.25000   0.25000   0.25000   0.32628   0.32630
     Eigenvalues ---    0.32630   0.32633   0.35016   0.35018   0.42332
     Eigenvalues ---    0.42663   0.46474   0.46474   0.46475   0.46494
 RFO step:  Lambda=-7.26084825D-04 EMin= 2.15602003D-02
 Linear search not attempted -- first point.
 Iteration  1 RMS(Cart)=  0.01378704 RMS(Int)=  0.00009579
 Iteration  2 RMS(Cart)=  0.00010264 RMS(Int)=  0.00000246
 Iteration  3 RMS(Cart)=  0.00000000 RMS(Int)=  0.00000246
 Variable       Old X    -DE/DX   Delta X   Delta X   Delta X     New X
                                 (Linear)    (Quad)   (Total)
    R1        2.63599  -0.00295   0.00000  -0.00634  -0.00634   2.62965
    R2        2.63568  -0.00282   0.00000  -0.00606  -0.00606   2.62962
    R3        2.05649  -0.00289   0.00000  -0.00824  -0.00824   2.04826
    R4        2.63600  -0.00032   0.00000  -0.00069  -0.00069   2.63532
    R5        3.26706   0.00037   0.00000   0.00113   0.00113   3.26819
    R6        2.63599  -0.00294   0.00000  -0.00633  -0.00633   2.62967
    R7        3.26706   0.00038   0.00000   0.00115   0.00115   3.26821
    R8        2.63600  -0.00295   0.00000  -0.00634  -0.00634   2.62967
    R9        2.05646  -0.00288   0.00000  -0.00821  -0.00821   2.04825
   R10        2.63601  -0.00032   0.00000  -0.00069  -0.00069   2.63532
   R11        3.26701   0.00038   0.00000   0.00117   0.00117   3.26819
   R12        3.26710   0.00037   0.00000   0.00115   0.00115   3.26825
    A1        2.09449   0.00168   0.00000   0.00732   0.00732   2.10181
    A2        2.09462  -0.00088   0.00000  -0.00388  -0.00388   2.09074
    A3        2.09408  -0.00081   0.00000  -0.00344  -0.00344   2.09064
    A4        2.09432  -0.00084   0.00000  -0.00365  -0.00365   2.09067
    A5        2.05688   0.00454   0.00000   0.01824   0.01824   2.07512
    A6        2.13198  -0.00369   0.00000  -0.01459  -0.01459   2.11739
    A7        2.09439  -0.00084   0.00000  -0.00368  -0.00368   2.09071
    A8        2.13195  -0.00370   0.00000  -0.01460  -0.01460   2.11735
    A9        2.05684   0.00454   0.00000   0.01828   0.01828   2.07512
   A10        2.09439   0.00172   0.00000   0.00741   0.00741   2.10180
   A11        2.09433  -0.00085   0.00000  -0.00367  -0.00367   2.09066
   A12        2.09446  -0.00086   0.00000  -0.00374  -0.00374   2.09072
   A13        2.09434  -0.00085   0.00000  -0.00368  -0.00368   2.09065
   A14        2.05640   0.00465   0.00000   0.01868   0.01868   2.07509
   A15        2.13245  -0.00380   0.00000  -0.01500  -0.01500   2.11745
   A16        2.09444  -0.00086   0.00000  -0.00371  -0.00371   2.09073
   A17        2.05701   0.00453   0.00000   0.01820   0.01820   2.07521
   A18        2.13174  -0.00367   0.00000  -0.01449  -0.01449   2.11725
    D1       -0.00011   0.00000   0.00000   0.00017   0.00017   0.00006
    D2       -3.14132  -0.00001   0.00000  -0.00028  -0.00029   3.14158
    D3        3.14077   0.00002   0.00000   0.00086   0.00086  -3.14155
    D4       -0.00044   0.00001   0.00000   0.00040   0.00040  -0.00004
    D5        0.00007   0.00000   0.00000  -0.00003  -0.00003   0.00004
    D6        3.14125   0.00001   0.00000   0.00047   0.00048  -3.14146
    D7       -3.14081  -0.00002   0.00000  -0.00072  -0.00072  -3.14153
    D8        0.00037  -0.00001   0.00000  -0.00021  -0.00021   0.00016
    D9        0.00007  -0.00001   0.00000  -0.00022  -0.00022  -0.00015
   D10        3.14101   0.00001   0.00000   0.00053   0.00052   3.14154
   D11        3.14127   0.00001   0.00000   0.00026   0.00026   3.14153
   D12       -0.00098   0.00002   0.00000   0.00101   0.00101   0.00003
   D13        0.00000   0.00000   0.00000   0.00013   0.00013   0.00013
   D14       -3.14148   0.00000   0.00000   0.00001   0.00001  -3.14147
   D15       -3.14097  -0.00001   0.00000  -0.00058  -0.00059  -3.14156
   D16        0.00074  -0.00001   0.00000  -0.00070  -0.00071   0.00003
   D17       -0.00004   0.00000   0.00000   0.00002   0.00002  -0.00002
   D18       -3.14153   0.00000   0.00000  -0.00019  -0.00019   3.14146
   D19        3.14144   0.00000   0.00000   0.00014   0.00014   3.14157
   D20       -0.00005   0.00000   0.00000  -0.00007  -0.00008  -0.00013
   D21        0.00001   0.00000   0.00000  -0.00007  -0.00007  -0.00006
   D22       -3.14116  -0.00001   0.00000  -0.00060  -0.00059   3.14143
   D23        3.14149   0.00000   0.00000   0.00015   0.00015  -3.14154
   D24        0.00033  -0.00001   0.00000  -0.00038  -0.00038  -0.00004
         Item               Value     Threshold  Converged?
 Maximum Force            0.004648     0.000450     NO 
 RMS     Force            0.001932     0.000300     NO 
 Maximum Displacement     0.041400     0.001800     NO 
 RMS     Displacement     0.013796     0.001200     NO 
 Predicted change in Energy=-3.640358D-04
 GradGradGradGradGradGradGradGradGradGradGradGradGradGradGradGradGradGrad

                          Input orientation:                          
 ---------------------------------------------------------------------
 Center     Atomic      Atomic             Coordinates (Angstroms)
 Number     Number       Type             X           Y           Z
 ---------------------------------------------------------------------
      1          6           0        1.885057   -1.036110   -0.106089
      2          6           0        2.920764   -1.630592    0.608270
      3          6           0        2.877954   -1.652016    2.001998
      4          6           0        1.799906   -1.078629    2.669440
      5          6           0        0.764207   -0.484120    1.955070
      6          6           0        0.806979   -0.462820    0.561338
      7         17           0       -0.458667    0.265155   -0.365647
      8         17           0       -0.556367    0.216353    2.824792
      9         17           0        4.143375   -2.380197    2.929090
     10         17           0        4.241317   -2.331169   -0.261408
     11          1           0        1.918242   -1.019452   -1.189345
     12          1           0        1.766733   -1.095204    3.752691
 ---------------------------------------------------------------------
                    Distance matrix (angstroms):
                    1          2          3          4          5
     1  C    0.000000
     2  C    1.391548   0.000000
     3  C    2.410232   1.394550   0.000000
     4  C    2.777160   2.410271   1.391560   0.000000
     5  C    2.410264   2.789087   2.415390   1.391559   0.000000
     6  C    1.391536   2.415363   2.789019   2.410232   1.394551
     7  Cl   2.693270   3.995363   4.518222   4.014805   2.728105
     8  Cl   4.014882   4.518253   3.995291   2.693164   1.729449
     9  Cl   4.014833   2.728166   1.729461   2.693204   3.995322
    10  Cl   2.693188   1.729454   2.728190   4.014875   4.518259
    11  H    1.083892   2.147083   3.392029   3.861052   3.392009
    12  H    3.861046   3.392021   2.147039   1.083886   2.147073
                    6          7          8          9         10
     6  C    0.000000
     7  Cl   1.729482   0.000000
     8  Cl   2.728225   3.192307   0.000000
     9  Cl   4.518199   6.247557   5.370337   0.000000
    10  Cl   3.995287   5.370439   6.247581   3.192378   0.000000
    11  H    2.147006   2.824605   4.874854   4.874869   2.824596
    12  H    3.392016   4.874801   2.824530   2.824526   4.874851
                   11         12
    11  H    0.000000
    12  H    4.944938   0.000000
 Stoichiometry    C6H2Cl4
 Framework group  C1[X(C6H2Cl4)]
 Deg. of freedom    30
 Full point group                 C1      NOp   1
 Largest Abelian subgroup         C1      NOp   1
 Largest concise Abelian subgroup C1      NOp   1
                         Standard orientation:                         
 ---------------------------------------------------------------------
 Center     Atomic      Atomic             Coordinates (Angstroms)
 Number     Number       Type             X           Y           Z
 ---------------------------------------------------------------------
      1          6           0       -0.000051   -1.388601    0.000074
      2          6           0       -1.207726   -0.697278    0.000067
      3          6           0       -1.207672    0.697272   -0.000019
      4          6           0        0.000037    1.388559    0.000080
      5          6           0        1.207718    0.697224    0.000114
      6          6           0        1.207637   -0.697326    0.000073
      7         17           0        2.685210   -1.596152   -0.000122
      8         17           0        2.685188    1.596155    0.000036
      9         17           0       -2.685149    1.596215   -0.000110
     10         17           0       -2.685229   -1.596163    0.000045
     11          1           0       -0.000012   -2.472493    0.000104
     12          1           0        0.000027    2.472445    0.000129
 ---------------------------------------------------------------------
 Rotational constants (GHZ):      1.1530324      0.4685736      0.3331762
 Standard basis: 6-31+G(d) (6D, 7F)
 There are   210 symmetry adapted cartesian basis functions of A   symmetry.
 There are   210 symmetry adapted basis functions of A   symmetry.
   210 basis functions,   424 primitive gaussians,   210 cartesian basis functions
    53 alpha electrons       53 beta electrons
       nuclear repulsion energy       828.8507857308 Hartrees.
 NAtoms=   12 NActive=   12 NUniq=   12 SFac= 1.00D+00 NAtFMM=   60 NAOKFM=F Big=F
 Integral buffers will be    131072 words long.
 Raffenetti 2 integral format.
 Two-electron integral symmetry is turned on.
 One-electron integrals computed using PRISM.
 NBasis=   210 RedAO= T EigKep=  1.58D-06  NBF=   210
 NBsUse=   209 1.00D-06 EigRej=  8.56D-07 NBFU=   209
 Initial guess from the checkpoint file:  "/srv/scratch/z5358697/gauss/Gau-3739849.chk"
 B after Tr=     0.000000    0.000000    0.000000
         Rot=    1.000000    0.000000    0.000000    0.000001 Ang=   0.00 deg.
 ExpMin= 4.38D-02 ExpMax= 2.52D+04 ExpMxC= 3.78D+03 IAcc=2 IRadAn=         4 AccDes= 0.00D+00
 Harris functional with IExCor= 1009 and IRadAn=       4 diagonalized for initial guess.
 HarFok:  IExCor= 1009 AccDes= 0.00D+00 IRadAn=         4 IDoV= 1 UseB2=F ITyADJ=14
 ICtDFT=  3500011 ScaDFX=  1.000000  1.000000  1.000000  1.000000
 FoFCou: FMM=F IPFlag=           0 FMFlag=      100000 FMFlg1=           0
         NFxFlg=           0 DoJE=T BraDBF=F KetDBF=T FulRan=T
         wScrn=  0.000000 ICntrl=     500 IOpCl=  0 I1Cent=   200000004 NGrid=           0
         NMat0=    1 NMatS0=      1 NMatT0=    0 NMatD0=    1 NMtDS0=    0 NMtDT0=    0
 Petite list used in FoFCou.
 Requested convergence on RMS density matrix=1.00D-08 within 128 cycles.
 Requested convergence on MAX density matrix=1.00D-06.
 Requested convergence on             energy=1.00D-06.
 No special actions if energy rises.
 SCF Done:  E(RM062X) =  -2070.41194141     A.U. after   11 cycles
            NFock= 11  Conv=0.50D-08     -V/T= 2.0033
 Calling FoFJK, ICntrl=      2127 FMM=F ISym2X=0 I1Cent= 0 IOpClX= 0 NMat=1 NMatS=1 NMatT=0.
 ***** Axes restored to original set *****
 -------------------------------------------------------------------
 Center     Atomic                   Forces (Hartrees/Bohr)
 Number     Number              X              Y              Z
 -------------------------------------------------------------------
      1        6          -0.000038854   -0.000010814    0.001184034
      2        6          -0.000181333    0.000175899   -0.002630073
      3        6          -0.000330381    0.000110942    0.002623702
      4        6           0.000041432    0.000015958   -0.001208252
      5        6           0.000193726   -0.000199579    0.002643199
      6        6           0.000302191   -0.000087938   -0.002606580
      7       17           0.000183618   -0.000087121   -0.000311158
      8       17           0.000148769   -0.000088471    0.000307284
      9       17          -0.000170430    0.000083728    0.000304108
     10       17          -0.000149311    0.000093097   -0.000310159
     11        1           0.000018670    0.000002871   -0.000473479
     12        1          -0.000018097   -0.000008571    0.000477375
 -------------------------------------------------------------------
 Cartesian Forces:  Max     0.002643199 RMS     0.000939562

 GradGradGradGradGradGradGradGradGradGradGradGradGradGradGradGradGradGrad
 Berny optimization.
 Using GEDIIS/GDIIS optimizer.
 FormGI is forming the generalized inverse of G from B-inverse, IUseBI=4.
 Internal  Forces:  Max     0.002577122 RMS     0.000584294
 Search for a local minimum.
 Step number   2 out of a maximum of   64
 All quantities printed in internal units (Hartrees-Bohrs-Radians)
 Mixed Optimization -- En-DIIS/RFO-DIIS
 Update second derivatives using D2CorX and points    1    2
 DE= -3.35D-04 DEPred=-3.64D-04 R= 9.20D-01
 TightC=F SS=  1.41D+00  RLast= 5.22D-02 DXNew= 5.0454D-01 1.5671D-01
 Trust test= 9.20D-01 RLast= 5.22D-02 DXMaxT set to 3.00D-01
 ITU=  1  0
 Use linear search instead of GDIIS.
     Eigenvalues ---    0.02156   0.02156   0.02156   0.02156   0.02156
     Eigenvalues ---    0.02156   0.02157   0.02157   0.02158   0.16000
     Eigenvalues ---    0.16000   0.21780   0.23975   0.24998   0.25000
     Eigenvalues ---    0.25000   0.25000   0.27123   0.32615   0.32629
     Eigenvalues ---    0.32630   0.32632   0.35017   0.35195   0.42297
     Eigenvalues ---    0.42675   0.44580   0.46474   0.46487   0.51136
 RFO step:  Lambda=-3.47903391D-05 EMin= 2.15601506D-02
 Quartic linear search produced a step of -0.07765.
 Iteration  1 RMS(Cart)=  0.00233480 RMS(Int)=  0.00000150
 Iteration  2 RMS(Cart)=  0.00000186 RMS(Int)=  0.00000016
 Iteration  3 RMS(Cart)=  0.00000000 RMS(Int)=  0.00000016
 Variable       Old X    -DE/DX   Delta X   Delta X   Delta X     New X
                                 (Linear)    (Quad)   (Total)
    R1        2.62965  -0.00059   0.00049  -0.00197  -0.00148   2.62817
    R2        2.62962  -0.00058   0.00047  -0.00192  -0.00145   2.62817
    R3        2.04826   0.00047   0.00064   0.00020   0.00084   2.04910
    R4        2.63532   0.00257   0.00005   0.00502   0.00507   2.64039
    R5        3.26819   0.00000  -0.00009   0.00016   0.00007   3.26826
    R6        2.62967  -0.00060   0.00049  -0.00199  -0.00150   2.62817
    R7        3.26821   0.00000  -0.00009   0.00016   0.00007   3.26827
    R8        2.62967  -0.00060   0.00049  -0.00199  -0.00149   2.62817
    R9        2.04825   0.00048   0.00064   0.00022   0.00085   2.04910
   R10        2.63532   0.00258   0.00005   0.00503   0.00508   2.64040
   R11        3.26819   0.00001  -0.00009   0.00016   0.00007   3.26826
   R12        3.26825   0.00000  -0.00009   0.00013   0.00004   3.26829
    A1        2.10181   0.00035  -0.00057   0.00234   0.00177   2.10358
    A2        2.09074  -0.00018   0.00030  -0.00123  -0.00093   2.08981
    A3        2.09064  -0.00017   0.00027  -0.00111  -0.00084   2.08979
    A4        2.09067  -0.00017   0.00028  -0.00116  -0.00087   2.08980
    A5        2.07512  -0.00050  -0.00142   0.00052  -0.00089   2.07423
    A6        2.11739   0.00067   0.00113   0.00063   0.00176   2.11916
    A7        2.09071  -0.00018   0.00029  -0.00119  -0.00090   2.08981
    A8        2.11735   0.00067   0.00113   0.00066   0.00179   2.11914
    A9        2.07512  -0.00050  -0.00142   0.00053  -0.00089   2.07423
   A10        2.10180   0.00035  -0.00058   0.00236   0.00178   2.10359
   A11        2.09066  -0.00017   0.00028  -0.00116  -0.00088   2.08979
   A12        2.09072  -0.00018   0.00029  -0.00120  -0.00091   2.08981
   A13        2.09065  -0.00017   0.00029  -0.00115  -0.00087   2.08978
   A14        2.07509  -0.00049  -0.00145   0.00060  -0.00085   2.07424
   A15        2.11745   0.00066   0.00116   0.00055   0.00172   2.11916
   A16        2.09073  -0.00018   0.00029  -0.00120  -0.00091   2.08982
   A17        2.07521  -0.00052  -0.00141   0.00045  -0.00097   2.07424
   A18        2.11725   0.00070   0.00113   0.00075   0.00188   2.11913
    D1        0.00006   0.00000  -0.00001  -0.00005  -0.00007   0.00000
    D2        3.14158   0.00000   0.00002  -0.00003   0.00000   3.14157
    D3       -3.14155   0.00000  -0.00007   0.00006  -0.00001  -3.14156
    D4       -0.00004   0.00000  -0.00003   0.00009   0.00006   0.00002
    D5        0.00004   0.00000   0.00000  -0.00003  -0.00003   0.00001
    D6       -3.14146   0.00000  -0.00004  -0.00006  -0.00009  -3.14155
    D7       -3.14153   0.00000   0.00006  -0.00015  -0.00009   3.14157
    D8        0.00016   0.00000   0.00002  -0.00017  -0.00015   0.00000
    D9       -0.00015   0.00000   0.00002   0.00012   0.00014  -0.00001
   D10        3.14154   0.00000  -0.00004   0.00011   0.00007  -3.14158
   D11        3.14153   0.00000  -0.00002   0.00009   0.00007  -3.14159
   D12        0.00003   0.00000  -0.00008   0.00008   0.00000   0.00003
   D13        0.00013   0.00000  -0.00001  -0.00010  -0.00011   0.00002
   D14       -3.14147   0.00000   0.00000  -0.00010  -0.00010  -3.14157
   D15       -3.14156   0.00000   0.00005  -0.00009  -0.00004   3.14158
   D16        0.00003   0.00000   0.00005  -0.00009  -0.00003   0.00000
   D17       -0.00002   0.00000   0.00000   0.00001   0.00001  -0.00001
   D18        3.14146   0.00000   0.00001   0.00013   0.00015  -3.14158
   D19        3.14157   0.00000  -0.00001   0.00001   0.00000   3.14158
   D20       -0.00013   0.00000   0.00001   0.00013   0.00013   0.00000
   D21       -0.00006   0.00000   0.00001   0.00005   0.00006  -0.00001
   D22        3.14143   0.00000   0.00005   0.00008   0.00012   3.14156
   D23       -3.14154   0.00000  -0.00001  -0.00007  -0.00008   3.14157
   D24       -0.00004   0.00000   0.00003  -0.00004  -0.00001  -0.00006
         Item               Value     Threshold  Converged?
 Maximum Force            0.002577     0.000450     NO 
 RMS     Force            0.000584     0.000300     NO 
 Maximum Displacement     0.007604     0.001800     NO 
 RMS     Displacement     0.002335     0.001200     NO 
 Predicted change in Energy=-1.982171D-05
 GradGradGradGradGradGradGradGradGradGradGradGradGradGradGradGradGradGrad

                          Input orientation:                          
 ---------------------------------------------------------------------
 Center     Atomic      Atomic             Coordinates (Angstroms)
 Number     Number       Type             X           Y           Z
 ---------------------------------------------------------------------
      1          6           0        1.885023   -1.036112   -0.105964
      2          6           0        2.920715   -1.630550    0.606930
      3          6           0        2.877879   -1.651970    2.003342
      4          6           0        1.799903   -1.078677    2.669327
      5          6           0        0.764202   -0.484243    1.956440
      6          6           0        0.807039   -0.462835    0.560021
      7         17           0       -0.457014    0.264521   -0.369663
      8         17           0       -0.555048    0.215537    2.828801
      9         17           0        4.141897   -2.379353    2.933036
     10         17           0        4.239973   -2.330320   -0.265432
     11          1           0        1.918236   -1.019508   -1.189665
     12          1           0        1.766693   -1.095292    3.753028
 ---------------------------------------------------------------------
                    Distance matrix (angstroms):
                    1          2          3          4          5
     1  C    0.000000
     2  C    1.390767   0.000000
     3  C    2.411269   1.397234   0.000000
     4  C    2.776922   2.411279   1.390767   0.000000
     5  C    2.411287   2.790295   2.415247   1.390769   0.000000
     6  C    1.390766   2.415240   2.790268   2.411268   1.397239
     7  Cl   2.691899   3.994256   4.519470   4.016630   2.731807
     8  Cl   4.016642   4.519477   3.994240   2.691880   1.729487
     9  Cl   4.016627   2.731805   1.729496   2.691883   3.994246
    10  Cl   2.691876   1.729490   2.731812   4.016636   4.519480
    11  H    1.084337   2.146180   3.393555   3.861259   3.393565
    12  H    3.861259   3.393553   2.146165   1.084337   2.146182
                    6          7          8          9         10
     6  C    0.000000
     7  Cl   1.729506   0.000000
     8  Cl   2.731818   3.200341   0.000000
     9  Cl   4.519459   6.248830   5.367086   0.000000
    10  Cl   3.994234   5.367099   6.248831   3.200347   0.000000
    11  H    2.146170   2.821870   4.877555   4.877551   2.821860
    12  H    3.393557   4.877555   2.821870   2.821842   4.877544
                   11         12
    11  H    0.000000
    12  H    4.945596   0.000000
 Stoichiometry    C6H2Cl4
 Framework group  C1[X(C6H2Cl4)]
 Deg. of freedom    30
 Full point group                 C1      NOp   1
 Largest Abelian subgroup         C1      NOp   1
 Largest concise Abelian subgroup C1      NOp   1
                         Standard orientation:                         
 ---------------------------------------------------------------------
 Center     Atomic      Atomic             Coordinates (Angstroms)
 Number     Number       Type             X           Y           Z
 ---------------------------------------------------------------------
      1          6           0       -0.000012   -1.388464    0.000032
      2          6           0       -1.207631   -0.698617    0.000014
      3          6           0       -1.207617    0.698617   -0.000014
      4          6           0        0.000005    1.388458   -0.000012
      5          6           0        1.207630    0.698617   -0.000003
      6          6           0        1.207609   -0.698622    0.000016
      7         17           0        2.683549   -1.600172   -0.000025
      8         17           0        2.683547    1.600169    0.000018
      9         17           0       -2.683539    1.600177   -0.000012
     10         17           0       -2.683550   -1.600170    0.000007
     11          1           0       -0.000006   -2.472801    0.000022
     12          1           0       -0.000010    2.472795   -0.000011
 ---------------------------------------------------------------------
 Rotational constants (GHZ):      1.1481236      0.4691153      0.3330382
 Standard basis: 6-31+G(d) (6D, 7F)
 There are   210 symmetry adapted cartesian basis functions of A   symmetry.
 There are   210 symmetry adapted basis functions of A   symmetry.
   210 basis functions,   424 primitive gaussians,   210 cartesian basis functions
    53 alpha electrons       53 beta electrons
       nuclear repulsion energy       828.5120184987 Hartrees.
 NAtoms=   12 NActive=   12 NUniq=   12 SFac= 1.00D+00 NAtFMM=   60 NAOKFM=F Big=F
 Integral buffers will be    131072 words long.
 Raffenetti 2 integral format.
 Two-electron integral symmetry is turned on.
 One-electron integrals computed using PRISM.
 NBasis=   210 RedAO= T EigKep=  1.61D-06  NBF=   210
 NBsUse=   209 1.00D-06 EigRej=  8.48D-07 NBFU=   209
 Initial guess from the checkpoint file:  "/srv/scratch/z5358697/gauss/Gau-3739849.chk"
 B after Tr=     0.000000    0.000000    0.000000
         Rot=    1.000000    0.000000    0.000000   -0.000003 Ang=   0.00 deg.
 Requested convergence on RMS density matrix=1.00D-08 within 128 cycles.
 Requested convergence on MAX density matrix=1.00D-06.
 Requested convergence on             energy=1.00D-06.
 No special actions if energy rises.
 SCF Done:  E(RM062X) =  -2070.41196082     A.U. after   10 cycles
            NFock= 10  Conv=0.32D-08     -V/T= 2.0033
 Calling FoFJK, ICntrl=      2127 FMM=F ISym2X=0 I1Cent= 0 IOpClX= 0 NMat=1 NMatS=1 NMatT=0.
 ***** Axes restored to original set *****
 -------------------------------------------------------------------
 Center     Atomic                   Forces (Hartrees/Bohr)
 Number     Number              X              Y              Z
 -------------------------------------------------------------------
      1        6          -0.000011115   -0.000004055    0.000230763
      2        6           0.000236811   -0.000128634   -0.000085145
      3        6           0.000236589   -0.000131201    0.000095814
      4        6           0.000006956    0.000003752   -0.000230650
      5        6          -0.000231568    0.000127285    0.000080930
      6        6          -0.000241467    0.000134221   -0.000093536
      7       17           0.000123460   -0.000070733    0.000119602
      8       17           0.000123604   -0.000065378   -0.000112657
      9       17          -0.000119162    0.000068912   -0.000118487
     10       17          -0.000123815    0.000065055    0.000112889
     11        1           0.000007026    0.000003512   -0.000194100
     12        1          -0.000007319   -0.000002735    0.000194578
 -------------------------------------------------------------------
 Cartesian Forces:  Max     0.000241467 RMS     0.000133134

 GradGradGradGradGradGradGradGradGradGradGradGradGradGradGradGradGradGrad
 Berny optimization.
 Using GEDIIS/GDIIS optimizer.
 FormGI is forming the generalized inverse of G from B-inverse, IUseBI=4.
 Internal  Forces:  Max     0.000194730 RMS     0.000073578
 Search for a local minimum.
 Step number   3 out of a maximum of   64
 All quantities printed in internal units (Hartrees-Bohrs-Radians)
 Mixed Optimization -- En-DIIS/RFO-DIIS
 Swapping is turned off.
 Update second derivatives using D2CorX and points    1    2    3
 DE= -1.94D-05 DEPred=-1.98D-05 R= 9.79D-01
 TightC=F SS=  1.41D+00  RLast= 9.52D-03 DXNew= 5.0454D-01 2.8557D-02
 Trust test= 9.79D-01 RLast= 9.52D-03 DXMaxT set to 3.00D-01
 ITU=  1  1  0
     Eigenvalues ---    0.02156   0.02156   0.02156   0.02156   0.02156
     Eigenvalues ---    0.02156   0.02157   0.02157   0.02157   0.16000
     Eigenvalues ---    0.16000   0.20593   0.23972   0.24998   0.25000
     Eigenvalues ---    0.25000   0.25000   0.27197   0.32499   0.32629
     Eigenvalues ---    0.32630   0.32632   0.35017   0.35284   0.42298
     Eigenvalues ---    0.42678   0.46454   0.46474   0.46493   0.52620
 En-DIIS/RFO-DIIS IScMMF=        0 using points:     3    2
 RFO step:  Lambda=-4.94434311D-07.
 DidBck=F Rises=F RFO-DIIS coefs:    0.98391    0.01609
 Iteration  1 RMS(Cart)=  0.00017183 RMS(Int)=  0.00000001
 Iteration  2 RMS(Cart)=  0.00000002 RMS(Int)=  0.00000000
 Variable       Old X    -DE/DX   Delta X   Delta X   Delta X     New X
                                 (Linear)    (Quad)   (Total)
    R1        2.62817   0.00011   0.00002   0.00016   0.00018   2.62835
    R2        2.62817   0.00010   0.00002   0.00016   0.00018   2.62835
    R3        2.04910   0.00019  -0.00001   0.00058   0.00056   2.04967
    R4        2.64039  -0.00004  -0.00008   0.00012   0.00004   2.64043
    R5        3.26826  -0.00018   0.00000  -0.00053  -0.00053   3.26773
    R6        2.62817   0.00010   0.00002   0.00016   0.00018   2.62835
    R7        3.26827  -0.00018   0.00000  -0.00054  -0.00054   3.26773
    R8        2.62817   0.00010   0.00002   0.00015   0.00018   2.62835
    R9        2.04910   0.00019  -0.00001   0.00058   0.00057   2.04967
   R10        2.64040  -0.00005  -0.00008   0.00011   0.00003   2.64043
   R11        3.26826  -0.00018   0.00000  -0.00053  -0.00053   3.26772
   R12        3.26829  -0.00018   0.00000  -0.00055  -0.00055   3.26774
    A1        2.10358   0.00008  -0.00003   0.00040   0.00037   2.10395
    A2        2.08981  -0.00004   0.00001  -0.00021  -0.00019   2.08962
    A3        2.08979  -0.00004   0.00001  -0.00019  -0.00018   2.08961
    A4        2.08980  -0.00004   0.00001  -0.00020  -0.00018   2.08961
    A5        2.07423   0.00006   0.00001   0.00022   0.00024   2.07447
    A6        2.11916  -0.00003  -0.00003  -0.00003  -0.00005   2.11910
    A7        2.08981  -0.00004   0.00001  -0.00020  -0.00019   2.08962
    A8        2.11914  -0.00002  -0.00003  -0.00001  -0.00004   2.11910
    A9        2.07423   0.00006   0.00001   0.00022   0.00023   2.07447
   A10        2.10359   0.00007  -0.00003   0.00040   0.00037   2.10395
   A11        2.08979  -0.00004   0.00001  -0.00019  -0.00017   2.08961
   A12        2.08981  -0.00004   0.00001  -0.00021  -0.00019   2.08962
   A13        2.08978  -0.00003   0.00001  -0.00019  -0.00017   2.08961
   A14        2.07424   0.00006   0.00001   0.00022   0.00023   2.07447
   A15        2.11916  -0.00003  -0.00003  -0.00003  -0.00006   2.11911
   A16        2.08982  -0.00004   0.00001  -0.00021  -0.00019   2.08962
   A17        2.07424   0.00006   0.00002   0.00021   0.00022   2.07447
   A18        2.11913  -0.00002  -0.00003   0.00000  -0.00003   2.11910
    D1        0.00000   0.00000   0.00000   0.00000   0.00000   0.00000
    D2        3.14157   0.00000   0.00000   0.00002   0.00002  -3.14159
    D3       -3.14156   0.00000   0.00000  -0.00003  -0.00003   3.14159
    D4        0.00002   0.00000   0.00000  -0.00002  -0.00002   0.00000
    D5        0.00001   0.00000   0.00000  -0.00001  -0.00001   0.00000
    D6       -3.14155   0.00000   0.00000  -0.00005  -0.00005   3.14159
    D7        3.14157   0.00000   0.00000   0.00003   0.00003  -3.14159
    D8        0.00000   0.00000   0.00000  -0.00001  -0.00001   0.00000
    D9       -0.00001   0.00000   0.00000   0.00001   0.00001   0.00000
   D10       -3.14158   0.00000   0.00000  -0.00002  -0.00002   3.14159
   D11       -3.14159   0.00000   0.00000   0.00000   0.00000  -3.14159
   D12        0.00003   0.00000   0.00000  -0.00004  -0.00004  -0.00001
   D13        0.00002   0.00000   0.00000  -0.00002  -0.00002  -0.00001
   D14       -3.14157   0.00000   0.00000  -0.00003  -0.00003   3.14159
   D15        3.14158   0.00000   0.00000   0.00001   0.00001  -3.14159
   D16        0.00000   0.00000   0.00000   0.00000   0.00000   0.00000
   D17       -0.00001   0.00000   0.00000   0.00002   0.00002   0.00001
   D18       -3.14158   0.00000   0.00000   0.00000   0.00000  -3.14158
   D19        3.14158   0.00000   0.00000   0.00002   0.00002  -3.14159
   D20        0.00000   0.00000   0.00000   0.00000   0.00000   0.00001
   D21       -0.00001   0.00000   0.00000   0.00000   0.00000  -0.00001
   D22        3.14156   0.00000   0.00000   0.00004   0.00004  -3.14159
   D23        3.14157   0.00000   0.00000   0.00002   0.00002   3.14159
   D24       -0.00006   0.00000   0.00000   0.00006   0.00006   0.00000
         Item               Value     Threshold  Converged?
 Maximum Force            0.000195     0.000450     YES
 RMS     Force            0.000074     0.000300     YES
 Maximum Displacement     0.000401     0.001800     YES
 RMS     Displacement     0.000172     0.001200     YES
 Predicted change in Energy=-4.267658D-07
 Optimization completed.
    -- Stationary point found.
                           ----------------------------
                           !   Optimized Parameters   !
                           ! (Angstroms and Degrees)  !
 --------------------------                            --------------------------
 ! Name  Definition              Value          Derivative Info.                !
 --------------------------------------------------------------------------------
 ! R1    R(1,2)                  1.3908         -DE/DX =    0.0001              !
 ! R2    R(1,6)                  1.3908         -DE/DX =    0.0001              !
 ! R3    R(1,11)                 1.0843         -DE/DX =    0.0002              !
 ! R4    R(2,3)                  1.3972         -DE/DX =    0.0                 !
 ! R5    R(2,10)                 1.7295         -DE/DX =   -0.0002              !
 ! R6    R(3,4)                  1.3908         -DE/DX =    0.0001              !
 ! R7    R(3,9)                  1.7295         -DE/DX =   -0.0002              !
 ! R8    R(4,5)                  1.3908         -DE/DX =    0.0001              !
 ! R9    R(4,12)                 1.0843         -DE/DX =    0.0002              !
 ! R10   R(5,6)                  1.3972         -DE/DX =    0.0                 !
 ! R11   R(5,8)                  1.7295         -DE/DX =   -0.0002              !
 ! R12   R(6,7)                  1.7295         -DE/DX =   -0.0002              !
 ! A1    A(2,1,6)              120.5263         -DE/DX =    0.0001              !
 ! A2    A(2,1,11)             119.7373         -DE/DX =    0.0                 !
 ! A3    A(6,1,11)             119.7364         -DE/DX =    0.0                 !
 ! A4    A(1,2,3)              119.7364         -DE/DX =    0.0                 !
 ! A5    A(1,2,10)             118.8447         -DE/DX =    0.0001              !
 ! A6    A(3,2,10)             121.4189         -DE/DX =    0.0                 !
 ! A7    A(2,3,4)              119.7373         -DE/DX =    0.0                 !
 ! A8    A(2,3,9)              121.4179         -DE/DX =    0.0                 !
 ! A9    A(4,3,9)              118.8448         -DE/DX =    0.0001              !
 ! A10   A(3,4,5)              120.5267         -DE/DX =    0.0001              !
 ! A11   A(3,4,12)             119.7359         -DE/DX =    0.0                 !
 ! A12   A(5,4,12)             119.7374         -DE/DX =    0.0                 !
 ! A13   A(4,5,6)              119.7358         -DE/DX =    0.0                 !
 ! A14   A(4,5,8)              118.845          -DE/DX =    0.0001              !
 ! A15   A(6,5,8)              121.4192         -DE/DX =    0.0                 !
 ! A16   A(1,6,5)              119.7376         -DE/DX =    0.0                 !
 ! A17   A(1,6,7)              118.8454         -DE/DX =    0.0001              !
 ! A18   A(5,6,7)              121.4171         -DE/DX =    0.0                 !
 ! D1    D(6,1,2,3)             -0.0003         -DE/DX =    0.0                 !
 ! D2    D(6,1,2,10)          -180.001          -DE/DX =    0.0                 !
 ! D3    D(11,1,2,3)           180.0019         -DE/DX =    0.0                 !
 ! D4    D(11,1,2,10)            0.0011         -DE/DX =    0.0                 !
 ! D5    D(2,1,6,5)              0.0007         -DE/DX =    0.0                 !
 ! D6    D(2,1,6,7)            180.0024         -DE/DX =    0.0                 !
 ! D7    D(11,1,6,5)          -180.0015         -DE/DX =    0.0                 !
 ! D8    D(11,1,6,7)             0.0002         -DE/DX =    0.0                 !
 ! D9    D(1,2,3,4)             -0.0006         -DE/DX =    0.0                 !
 ! D10   D(1,2,3,9)            180.0009         -DE/DX =    0.0                 !
 ! D11   D(10,2,3,4)          -179.9998         -DE/DX =    0.0                 !
 ! D12   D(10,2,3,9)             0.0017         -DE/DX =    0.0                 !
 ! D13   D(2,3,4,5)              0.0009         -DE/DX =    0.0                 !
 ! D14   D(2,3,4,12)           180.0014         -DE/DX =    0.0                 !
 ! D15   D(9,3,4,5)           -180.0005         -DE/DX =    0.0                 !
 ! D16   D(9,3,4,12)             0.0            -DE/DX =    0.0                 !
 ! D17   D(3,4,5,6)             -0.0005         -DE/DX =    0.0                 !
 ! D18   D(3,4,5,8)           -179.9993         -DE/DX =    0.0                 !
 ! D19   D(12,4,5,6)          -180.001          -DE/DX =    0.0                 !
 ! D20   D(12,4,5,8)             0.0003         -DE/DX =    0.0                 !
 ! D21   D(4,5,6,1)             -0.0003         -DE/DX =    0.0                 !
 ! D22   D(4,5,6,7)           -180.0021         -DE/DX =    0.0                 !
 ! D23   D(8,5,6,1)            179.9984         -DE/DX =    0.0                 !
 ! D24   D(8,5,6,7)             -0.0034         -DE/DX =    0.0                 !
 --------------------------------------------------------------------------------
 GradGradGradGradGradGradGradGradGradGradGradGradGradGradGradGradGradGrad

                          Input orientation:                          
 ---------------------------------------------------------------------
 Center     Atomic      Atomic             Coordinates (Angstroms)
 Number     Number       Type             X           Y           Z
 ---------------------------------------------------------------------
      1          6           0        1.885023   -1.036112   -0.105964
      2          6           0        2.920715   -1.630550    0.606930
      3          6           0        2.877879   -1.651970    2.003342
      4          6           0        1.799903   -1.078677    2.669327
      5          6           0        0.764202   -0.484243    1.956440
      6          6           0        0.807039   -0.462835    0.560021
      7         17           0       -0.457014    0.264521   -0.369663
      8         17           0       -0.555048    0.215537    2.828801
      9         17           0        4.141897   -2.379353    2.933036
     10         17           0        4.239973   -2.330320   -0.265432
     11          1           0        1.918236   -1.019508   -1.189665
     12          1           0        1.766693   -1.095292    3.753028
 ---------------------------------------------------------------------
                    Distance matrix (angstroms):
                    1          2          3          4          5
     1  C    0.000000
     2  C    1.390767   0.000000
     3  C    2.411269   1.397234   0.000000
     4  C    2.776922   2.411279   1.390767   0.000000
     5  C    2.411287   2.790295   2.415247   1.390769   0.000000
     6  C    1.390766   2.415240   2.790268   2.411268   1.397239
     7  Cl   2.691899   3.994256   4.519470   4.016630   2.731807
     8  Cl   4.016642   4.519477   3.994240   2.691880   1.729487
     9  Cl   4.016627   2.731805   1.729496   2.691883   3.994246
    10  Cl   2.691876   1.729490   2.731812   4.016636   4.519480
    11  H    1.084337   2.146180   3.393555   3.861259   3.393565
    12  H    3.861259   3.393553   2.146165   1.084337   2.146182
                    6          7          8          9         10
     6  C    0.000000
     7  Cl   1.729506   0.000000
     8  Cl   2.731818   3.200341   0.000000
     9  Cl   4.519459   6.248830   5.367086   0.000000
    10  Cl   3.994234   5.367099   6.248831   3.200347   0.000000
    11  H    2.146170   2.821870   4.877555   4.877551   2.821860
    12  H    3.393557   4.877555   2.821870   2.821842   4.877544
                   11         12
    11  H    0.000000
    12  H    4.945596   0.000000
 Stoichiometry    C6H2Cl4
 Framework group  C1[X(C6H2Cl4)]
 Deg. of freedom    30
 Full point group                 C1      NOp   1
 Largest Abelian subgroup         C1      NOp   1
 Largest concise Abelian subgroup C1      NOp   1
                         Standard orientation:                         
 ---------------------------------------------------------------------
 Center     Atomic      Atomic             Coordinates (Angstroms)
 Number     Number       Type             X           Y           Z
 ---------------------------------------------------------------------
      1          6           0       -0.000012   -1.388464    0.000032
      2          6           0       -1.207631   -0.698617    0.000014
      3          6           0       -1.207617    0.698617   -0.000014
      4          6           0        0.000005    1.388458   -0.000012
      5          6           0        1.207630    0.698617   -0.000003
      6          6           0        1.207609   -0.698622    0.000016
      7         17           0        2.683549   -1.600172   -0.000025
      8         17           0        2.683547    1.600169    0.000018
      9         17           0       -2.683539    1.600177   -0.000012
     10         17           0       -2.683550   -1.600170    0.000007
     11          1           0       -0.000006   -2.472801    0.000022
     12          1           0       -0.000010    2.472795   -0.000011
 ---------------------------------------------------------------------
 Rotational constants (GHZ):      1.1481236      0.4691153      0.3330382

 **********************************************************************

            Population analysis using the SCF density.

 **********************************************************************

 Orbital symmetries:
       Occupied  (A) (A) (A) (A) (A) (A) (A) (A) (A) (A) (A) (A)
                 (A) (A) (A) (A) (A) (A) (A) (A) (A) (A) (A) (A)
                 (A) (A) (A) (A) (A) (A) (A) (A) (A) (A) (A) (A)
                 (A) (A) (A) (A) (A) (A) (A) (A) (A) (A) (A) (A)
                 (A) (A) (A) (A) (A)
       Virtual   (A) (A) (A) (A) (A) (A) (A) (A) (A) (A) (A) (A)
                 (A) (A) (A) (A) (A) (A) (A) (A) (A) (A) (A) (A)
                 (A) (A) (A) (A) (A) (A) (A) (A) (A) (A) (A) (A)
                 (A) (A) (A) (A) (A) (A) (A) (A) (A) (A) (A) (A)
                 (A) (A) (A) (A) (A) (A) (A) (A) (A) (A) (A) (A)
                 (A) (A) (A) (A) (A) (A) (A) (A) (A) (A) (A) (A)
                 (A) (A) (A) (A) (A) (A) (A) (A) (A) (A) (A) (A)
                 (A) (A) (A) (A) (A) (A) (A) (A) (A) (A) (A) (A)
                 (A) (A) (A) (A) (A) (A) (A) (A) (A) (A) (A) (A)
                 (A) (A) (A) (A) (A) (A) (A) (A) (A) (A) (A) (A)
                 (A) (A) (A) (A) (A) (A) (A) (A) (A) (A) (A) (A)
                 (A) (A) (A) (A) (A) (A) (A) (A) (A) (A) (A) (A)
                 (A) (A) (A) (A) (A) (A) (A) (A) (A) (A) (A) (A)
 The electronic state is 1-A.
 Alpha  occ. eigenvalues -- -102.69706-102.69705-102.69705-102.69705 -10.65538
 Alpha  occ. eigenvalues --  -10.65537 -10.65463 -10.65462 -10.60657 -10.60656
 Alpha  occ. eigenvalues --   -9.84344  -9.84344  -9.84344  -9.84343  -7.56772
 Alpha  occ. eigenvalues --   -7.56772  -7.56771  -7.56770  -7.56075  -7.56075
 Alpha  occ. eigenvalues --   -7.56074  -7.56074  -7.56048  -7.56046  -7.56046
 Alpha  occ. eigenvalues --   -7.56046  -1.06247  -1.02260  -0.98923  -0.97534
 Alpha  occ. eigenvalues --   -0.93497  -0.86586  -0.82950  -0.74465  -0.69620
 Alpha  occ. eigenvalues --   -0.61080  -0.61009  -0.56646  -0.53331  -0.53206
 Alpha  occ. eigenvalues --   -0.52990  -0.48253  -0.47948  -0.47571  -0.44299
 Alpha  occ. eigenvalues --   -0.42590  -0.41729  -0.40693  -0.39567  -0.38952
 Alpha  occ. eigenvalues --   -0.38875  -0.33313  -0.31156
 Alpha virt. eigenvalues --   -0.02621  -0.01925   0.00114   0.01163   0.01727
 Alpha virt. eigenvalues --    0.02078   0.04053   0.05117   0.05375   0.05736
 Alpha virt. eigenvalues --    0.05932   0.06521   0.07942   0.08424   0.09163
 Alpha virt. eigenvalues --    0.09536   0.09756   0.10507   0.11429   0.11656
 Alpha virt. eigenvalues --    0.11887   0.12523   0.12611   0.12782   0.14440
 Alpha virt. eigenvalues --    0.14721   0.16145   0.16300   0.16329   0.16406
 Alpha virt. eigenvalues --    0.17255   0.19343   0.19705   0.19829   0.20461
 Alpha virt. eigenvalues --    0.21479   0.21708   0.22119   0.23224   0.23958
 Alpha virt. eigenvalues --    0.24892   0.25335   0.25383   0.25871   0.27421
 Alpha virt. eigenvalues --    0.28211   0.29599   0.30440   0.32483   0.32628
 Alpha virt. eigenvalues --    0.33658   0.34874   0.49148   0.51956   0.52280
 Alpha virt. eigenvalues --    0.56823   0.59515   0.60590   0.61132   0.62155
 Alpha virt. eigenvalues --    0.62911   0.64482   0.65052   0.66863   0.67182
 Alpha virt. eigenvalues --    0.67471   0.67529   0.68538   0.69194   0.72894
 Alpha virt. eigenvalues --    0.73003   0.73383   0.73632   0.75106   0.75676
 Alpha virt. eigenvalues --    0.78112   0.78974   0.79290   0.80166   0.85329
 Alpha virt. eigenvalues --    0.86065   0.86340   0.88130   0.90788   0.91474
 Alpha virt. eigenvalues --    0.91550   0.92164   0.92794   0.92834   0.94661
 Alpha virt. eigenvalues --    0.95020   0.95912   0.96088   0.98187   1.00836
 Alpha virt. eigenvalues --    1.01323   1.03350   1.07915   1.08982   1.09371
 Alpha virt. eigenvalues --    1.10229   1.11759   1.14123   1.14614   1.19157
 Alpha virt. eigenvalues --    1.21537   1.23957   1.24965   1.25736   1.30479
 Alpha virt. eigenvalues --    1.35518   1.38677   1.44326   1.44996   1.51500
 Alpha virt. eigenvalues --    1.51546   1.53721   1.54386   1.55338   1.56068
 Alpha virt. eigenvalues --    1.59415   1.78282   1.82054   1.83034   1.95930
 Alpha virt. eigenvalues --    1.96738   2.03759   2.08763   2.12118   2.13266
 Alpha virt. eigenvalues --    2.13342   2.16197   2.22915   2.25456   2.28119
 Alpha virt. eigenvalues --    2.30523   2.51934   2.57987   2.60388   2.64977
 Alpha virt. eigenvalues --    2.70500   2.70996   2.71831   2.85108   3.01159
 Alpha virt. eigenvalues --    3.27376   4.16876   4.24494   4.28026   4.35145
 Alpha virt. eigenvalues --    4.37116   4.42660   4.43602   4.43634   4.48744
 Alpha virt. eigenvalues --    4.65885
          Condensed to atoms (all electrons):
               1          2          3          4          5          6
     1  C    5.847214   0.519683  -0.537597   0.142510  -0.537664   0.519713
     2  C    0.519683   7.702355  -1.207439  -0.537623   0.639541  -0.728651
     3  C   -0.537597  -1.207439   7.702290   0.519710  -0.728647   0.639539
     4  C    0.142510  -0.537623   0.519710   5.847220   0.519685  -0.537611
     5  C   -0.537664   0.639541  -0.728647   0.519685   7.702308  -1.207338
     6  C    0.519713  -0.728651   0.639539  -0.537611  -1.207338   7.702184
     7  Cl  -0.004670   0.022741  -0.004045  -0.024224  -0.248974   0.116042
     8  Cl  -0.024227  -0.004046   0.022739  -0.004666   0.116032  -0.248978
     9  Cl  -0.024223  -0.248976   0.116036  -0.004672   0.022745  -0.004047
    10  Cl  -0.004664   0.116033  -0.248982  -0.024225  -0.004044   0.022738
    11  H    0.292288  -0.023629   0.037890  -0.013968   0.037895  -0.023616
    12  H   -0.013967   0.037896  -0.023621   0.292291  -0.023627   0.037889
               7          8          9         10         11         12
     1  C   -0.004670  -0.024227  -0.024223  -0.004664   0.292288  -0.013967
     2  C    0.022741  -0.004046  -0.248976   0.116033  -0.023629   0.037896
     3  C   -0.004045   0.022739   0.116036  -0.248982   0.037890  -0.023621
     4  C   -0.024224  -0.004666  -0.004672  -0.024225  -0.013968   0.292291
     5  C   -0.248974   0.116032   0.022745  -0.004044   0.037895  -0.023627
     6  C    0.116042  -0.248978  -0.004047   0.022738  -0.023616   0.037889
     7  Cl  16.863863   0.036059   0.000791  -0.005267   0.001577   0.000990
     8  Cl   0.036059  16.863854  -0.005267   0.000791   0.000990   0.001577
     9  Cl   0.000791  -0.005267  16.863863   0.036058   0.000990   0.001577
    10  Cl  -0.005267   0.000791   0.036058  16.863858   0.001577   0.000990
    11  H    0.001577   0.000990   0.000990   0.001577   0.428083   0.000007
    12  H    0.000990   0.001577   0.001577   0.000990   0.000007   0.428085
 Mulliken charges:
               1
     1  C   -0.174396
     2  C   -0.287886
     3  C   -0.287873
     4  C   -0.174426
     5  C   -0.287911
     6  C   -0.287863
     7  Cl   0.245119
     8  Cl   0.245143
     9  Cl   0.245126
    10  Cl   0.245138
    11  H    0.259916
    12  H    0.259914
 Sum of Mulliken charges =   0.00000
 Mulliken charges with hydrogens summed into heavy atoms:
               1
     1  C    0.085520
     2  C   -0.287886
     3  C   -0.287873
     4  C    0.085488
     5  C   -0.287911
     6  C   -0.287863
     7  Cl   0.245119
     8  Cl   0.245143
     9  Cl   0.245126
    10  Cl   0.245138
 Electronic spatial extent (au):  <R**2>=           2853.9080
 Charge=              0.0000 electrons
 Dipole moment (field-independent basis, Debye):
    X=              0.0000    Y=              0.0000    Z=              0.0000  Tot=              0.0000
 Quadrupole moment (field-independent basis, Debye-Ang):
   XX=            -89.2241   YY=            -80.3468   ZZ=            -86.3643
   XY=              0.0003   XZ=              0.0000   YZ=              0.0000
 Traceless Quadrupole moment (field-independent basis, Debye-Ang):
   XX=             -3.9124   YY=              4.9650   ZZ=             -1.0526
   XY=              0.0003   XZ=              0.0000   YZ=              0.0000
 Octapole moment (field-independent basis, Debye-Ang**2):
  XXX=              0.0002  YYY=              0.0002  ZZZ=             -0.0001  XYY=             -0.0002
  XXY=              0.0004  XXZ=             -0.0001  XZZ=              0.0000  YZZ=              0.0001
  YYZ=              0.0000  XYZ=              0.0001
 Hexadecapole moment (field-independent basis, Debye-Ang**3):
 XXXX=          -2394.3459 YYYY=          -1060.2398 ZZZZ=            -98.2088 XXXY=              0.0029
 XXXZ=             -0.0004 YYYX=              0.0017 YYYZ=              0.0005 ZZZX=             -0.0001
 ZZZY=              0.0005 XXYY=           -569.2232 XXZZ=           -436.5431 YYZZ=           -207.1795
 XXYZ=              0.0012 YYXZ=             -0.0002 ZZXY=              0.0003
 N-N= 8.285120184987D+02 E-N=-6.562572778754D+03  KE= 2.063529680400D+03
 1\1\GINC-KATANA2\FOpt\RM062X\6-31+G(d)\C6H2Cl4\Z5358697\16-Mar-2025\0\
 \#m062X/6-31+G(d) OPT Freq=noraman\\1,2,4,5-tetrachlorobenzene\\0,1\C,
 1.885023009,-1.0361118851,-0.1059637057\C,2.9207150963,-1.630549719,0.
 6069297473\C,2.8778793557,-1.6519696278,2.0033422753\C,1.7999032982,-1
 .0786770394,2.6693270647\C,0.7642017444,-0.4842433814,1.9564397247\C,0
 .807039422,-0.4628347299,0.560021332\Cl,-0.4570137639,0.2645214904,-0.
 369663262\Cl,-0.555047826,0.2155374595,2.8288008131\Cl,4.1418971703,-2
 .3793525464,2.9330356244\Cl,4.2399731752,-2.3303196793,-0.2654324072\H
 ,1.9182362932,-1.019508381,-1.1896651614\H,1.7666930256,-1.0952919607,
 3.7530279547\\Version=ES64L-G09RevD.01\State=1-A\HF=-2070.4119608\RMSD
 =3.232e-09\RMSF=1.331e-04\Dipole=0.0000054,-0.0000029,0.000012\Quadrup
 ole=-2.4067468,-1.2785184,3.6852652,0.9017327,-0.173333,-0.0483913\PG=
 C01 [X(C6H2Cl4)]\\@


 THERE ARE PEOPLE SO ADDICTED TO EXAGERATING THEY
 CAN'T TELL THE TRUTH WITHOUT LYING. -- FORTUNE COOKIE
 Job cpu time:       0 days  0 hours  3 minutes 40.8 seconds.
 File lengths (MBytes):  RWF=    135 Int=      0 D2E=      0 Chk=      5 Scr=      2
 Normal termination of Gaussian 09 at Sun Mar 16 22:23:34 2025.
 Link1:  Proceeding to internal job step number  2.
 ---------------------------------------------------------------------
 #N Geom=AllCheck Guess=TCheck SCRF=Check GenChk RM062X/6-31+G(d) Freq
 ---------------------------------------------------------------------
 1/10=4,29=7,30=1,38=1,40=1/1,3;
 2/12=2,40=1/2;
 3/5=1,6=6,7=11,11=2,14=-4,16=1,25=1,30=1,70=2,71=2,74=-55,116=1,140=1/1,2,3;
 4/5=101/1;
 5/5=2,98=1/2;
 8/6=4,10=90,11=11/1;
 11/6=1,8=1,9=11,15=111,16=1/1,2,10;
 10/6=1/2;
 6/7=2,8=2,9=2,10=2,18=1,28=1/1;
 7/8=1,10=1,25=1/1,2,3,16;
 1/10=4,30=1/3;
 99//99;
 Structure from the checkpoint file:  "/srv/scratch/z5358697/gauss/Gau-3739849.chk"
 --------------------------
 1,2,4,5-tetrachlorobenzene
 --------------------------
 Charge =  0 Multiplicity = 1
 Redundant internal coordinates found in file.
 C,0,1.885023009,-1.0361118851,-0.1059637057
 C,0,2.9207150963,-1.630549719,0.6069297473
 C,0,2.8778793557,-1.6519696278,2.0033422753
 C,0,1.7999032982,-1.0786770394,2.6693270647
 C,0,0.7642017444,-0.4842433814,1.9564397247
 C,0,0.807039422,-0.4628347299,0.560021332
 Cl,0,-0.4570137639,0.2645214904,-0.369663262
 Cl,0,-0.555047826,0.2155374595,2.8288008131
 Cl,0,4.1418971703,-2.3793525464,2.9330356244
 Cl,0,4.2399731752,-2.3303196793,-0.2654324072
 H,0,1.9182362932,-1.019508381,-1.1896651614
 H,0,1.7666930256,-1.0952919607,3.7530279547
 Recover connectivity data from disk.

 GradGradGradGradGradGradGradGradGradGradGradGradGradGradGradGradGradGrad
 Berny optimization.
 Initialization pass.
                           ----------------------------
                           !    Initial Parameters    !
                           ! (Angstroms and Degrees)  !
 --------------------------                            --------------------------
 ! Name  Definition              Value          Derivative Info.                !
 --------------------------------------------------------------------------------
 ! R1    R(1,2)                  1.3908         calculate D2E/DX2 analytically  !
 ! R2    R(1,6)                  1.3908         calculate D2E/DX2 analytically  !
 ! R3    R(1,11)                 1.0843         calculate D2E/DX2 analytically  !
 ! R4    R(2,3)                  1.3972         calculate D2E/DX2 analytically  !
 ! R5    R(2,10)                 1.7295         calculate D2E/DX2 analytically  !
 ! R6    R(3,4)                  1.3908         calculate D2E/DX2 analytically  !
 ! R7    R(3,9)                  1.7295         calculate D2E/DX2 analytically  !
[...]
    R1        2.62817   0.00011   0.00000   0.00019   0.00019   2.62836
    R2        2.62817   0.00010   0.00000   0.00019   0.00019   2.62836
    R3        2.04910   0.00019   0.00000   0.00055   0.00055   2.04965
    R4        2.64039  -0.00004   0.00000   0.00004   0.00004   2.64043
    R5        3.26826  -0.00018   0.00000  -0.00076  -0.00076   3.26750
    R6        2.62817   0.00010   0.00000   0.00019   0.00019   2.62836
    R7        3.26827  -0.00018   0.00000  -0.00077  -0.00077   3.26750
    R8        2.62817   0.00010   0.00000   0.00019   0.00019   2.62836
    R9        2.04910   0.00019   0.00000   0.00055   0.00055   2.04965
   R10        2.64040  -0.00005   0.00000   0.00003   0.00003   2.64043
   R11        3.26826  -0.00018   0.00000  -0.00075  -0.00075   3.26750
   R12        3.26829  -0.00018   0.00000  -0.00079  -0.00079   3.26750
    A1        2.10358   0.00008   0.00000   0.00053   0.00053   2.10411
    A2        2.08981  -0.00004   0.00000  -0.00027  -0.00027   2.08954
    A3        2.08979  -0.00004   0.00000  -0.00026  -0.00026   2.08954
    A4        2.08980  -0.00004   0.00000  -0.00026  -0.00026   2.08954
    A5        2.07423   0.00006   0.00000   0.00028   0.00028   2.07451
    A6        2.11916  -0.00003   0.00000  -0.00002  -0.00002   2.11914
    A7        2.08981  -0.00004   0.00000  -0.00027  -0.00027   2.08954
    A8        2.11914  -0.00002   0.00000   0.00000   0.00000   2.11914
    A9        2.07423   0.00006   0.00000   0.00027   0.00027   2.07451
   A10        2.10359   0.00007   0.00000   0.00052   0.00052   2.10411
   A11        2.08979  -0.00004   0.00000  -0.00025  -0.00025   2.08954
   A12        2.08981  -0.00004   0.00000  -0.00027  -0.00027   2.08954
   A13        2.08978  -0.00003   0.00000  -0.00025  -0.00025   2.08954
   A14        2.07424   0.00006   0.00000   0.00027   0.00027   2.07451
   A15        2.11916  -0.00003   0.00000  -0.00002  -0.00002   2.11914
   A16        2.08982  -0.00004   0.00000  -0.00028  -0.00028   2.08954
   A17        2.07424   0.00006   0.00000   0.00026   0.00026   2.07451
   A18        2.11913  -0.00002   0.00000   0.00001   0.00001   2.11914
    D1        0.00000   0.00000   0.00000   0.00000   0.00000   0.00000
    D2        3.14157   0.00000   0.00000   0.00002   0.00002  -3.14159
    D3       -3.14156   0.00000   0.00000  -0.00003  -0.00003   3.14159
    D4        0.00002   0.00000   0.00000  -0.00002  -0.00002   0.00000
    D5        0.00001   0.00000   0.00000  -0.00001  -0.00001   0.00000
    D6       -3.14155   0.00000   0.00000  -0.00005  -0.00005   3.14159
    D7        3.14157   0.00000   0.00000   0.00003   0.00003   3.14159
    D8        0.00000   0.00000   0.00000  -0.00001  -0.00001   0.00000
    D9       -0.00001   0.00000   0.00000   0.00001   0.00001   0.00000
   D10       -3.14158   0.00000   0.00000  -0.00002  -0.00002  -3.14159
   D11       -3.14159   0.00000   0.00000   0.00000   0.00000  -3.14159
   D12        0.00003   0.00000   0.00000  -0.00003  -0.00003   0.00000
   D13        0.00002   0.00000   0.00000  -0.00002  -0.00002   0.00000
   D14       -3.14157   0.00000   0.00000  -0.00003  -0.00003   3.14159
   D15        3.14158   0.00000   0.00000   0.00001   0.00001   3.14159
   D16        0.00000   0.00000   0.00000   0.00000   0.00000   0.00000
   D17       -0.00001   0.00000   0.00000   0.00001   0.00001   0.00000
   D18       -3.14158   0.00000   0.00000  -0.00001  -0.00001   3.14159
   D19        3.14158   0.00000   0.00000   0.00002   0.00002   3.14159
   D20        0.00000   0.00000   0.00000  -0.00001  -0.00001   0.00000
   D21       -0.00001   0.00000   0.00000   0.00001   0.00001   0.00000
   D22        3.14156   0.00000   0.00000   0.00004   0.00004  -3.14159
   D23        3.14157   0.00000   0.00000   0.00003   0.00003  -3.14159
   D24       -0.00006   0.00000   0.00000   0.00007   0.00007   0.00001
         Item               Value     Threshold  Converged?
 Maximum Force            0.000195     0.000450     YES
 RMS     Force            0.000074     0.000300     YES
 Maximum Displacement     0.000490     0.001800     YES
 RMS     Displacement     0.000205     0.001200     YES
 Predicted change in Energy=-5.351699D-07
 Optimization completed.
    -- Stationary point found.
                           ----------------------------
                           !   Optimized Parameters   !
                           ! (Angstroms and Degrees)  !
 --------------------------                            --------------------------
 ! Name  Definition              Value          Derivative Info.                !
 --------------------------------------------------------------------------------
 ! R1    R(1,2)                  1.3908         -DE/DX =    0.0001              !
 ! R2    R(1,6)                  1.3908         -DE/DX =    0.0001              !
 ! R3    R(1,11)                 1.0843         -DE/DX =    0.0002              !
 ! R4    R(2,3)                  1.3972         -DE/DX =    0.0                 !
 ! R5    R(2,10)                 1.7295         -DE/DX =   -0.0002              !
 ! R6    R(3,4)                  1.3908         -DE/DX =    0.0001              !
 ! R7    R(3,9)                  1.7295         -DE/DX =   -0.0002              !
 ! R8    R(4,5)                  1.3908         -DE/DX =    0.0001              !
 ! R9    R(4,12)                 1.0843         -DE/DX =    0.0002              !
 ! R10   R(5,6)                  1.3972         -DE/DX =    0.0                 !
 ! R11   R(5,8)                  1.7295         -DE/DX =   -0.0002              !
 ! R12   R(6,7)                  1.7295         -DE/DX =   -0.0002              !
 ! A1    A(2,1,6)              120.5263         -DE/DX =    0.0001              !
 ! A2    A(2,1,11)             119.7373         -DE/DX =    0.0                 !
 ! A3    A(6,1,11)             119.7364         -DE/DX =    0.0                 !
 ! A4    A(1,2,3)              119.7364         -DE/DX =    0.0                 !
 ! A5    A(1,2,10)             118.8447         -DE/DX =    0.0001              !
 ! A6    A(3,2,10)             121.4189         -DE/DX =    0.0                 !
 ! A7    A(2,3,4)              119.7373         -DE/DX =    0.0                 !
 ! A8    A(2,3,9)              121.4179         -DE/DX =    0.0                 !
 ! A9    A(4,3,9)              118.8448         -DE/DX =    0.0001              !
 ! A10   A(3,4,5)              120.5267         -DE/DX =    0.0001              !
 ! A11   A(3,4,12)             119.7359         -DE/DX =    0.0                 !
 ! A12   A(5,4,12)             119.7374         -DE/DX =    0.0                 !
 ! A13   A(4,5,6)              119.7358         -DE/DX =    0.0                 !
 ! A14   A(4,5,8)              118.845          -DE/DX =    0.0001              !
 ! A15   A(6,5,8)              121.4192         -DE/DX =    0.0                 !
 ! A16   A(1,6,5)              119.7376         -DE/DX =    0.0                 !
 ! A17   A(1,6,7)              118.8454         -DE/DX =    0.0001              !
 ! A18   A(5,6,7)              121.4171         -DE/DX =    0.0                 !
 ! D1    D(6,1,2,3)             -0.0003         -DE/DX =    0.0                 !
 ! D2    D(6,1,2,10)          -180.001          -DE/DX =    0.0                 !
 ! D3    D(11,1,2,3)           180.0019         -DE/DX =    0.0                 !
 ! D4    D(11,1,2,10)            0.0011         -DE/DX =    0.0                 !
 ! D5    D(2,1,6,5)              0.0007         -DE/DX =    0.0                 !
 ! D6    D(2,1,6,7)            180.0024         -DE/DX =    0.0                 !
 ! D7    D(11,1,6,5)           179.9985         -DE/DX =    0.0                 !
 ! D8    D(11,1,6,7)             0.0002         -DE/DX =    0.0                 !
 ! D9    D(1,2,3,4)             -0.0006         -DE/DX =    0.0                 !
 ! D10   D(1,2,3,9)           -179.9991         -DE/DX =    0.0                 !
 ! D11   D(10,2,3,4)          -179.9998         -DE/DX =    0.0                 !
 ! D12   D(10,2,3,9)             0.0017         -DE/DX =    0.0                 !
 ! D13   D(2,3,4,5)              0.0009         -DE/DX =    0.0                 !
 ! D14   D(2,3,4,12)           180.0014         -DE/DX =    0.0                 !
 ! D15   D(9,3,4,5)            179.9995         -DE/DX =    0.0                 !
 ! D16   D(9,3,4,12)             0.0            -DE/DX =    0.0                 !
 ! D17   D(3,4,5,6)             -0.0005         -DE/DX =    0.0                 !
 ! D18   D(3,4,5,8)            180.0007         -DE/DX =    0.0                 !
 ! D19   D(12,4,5,6)           179.999          -DE/DX =    0.0                 !
 ! D20   D(12,4,5,8)             0.0003         -DE/DX =    0.0                 !
 ! D21   D(4,5,6,1)             -0.0003         -DE/DX =    0.0                 !
 ! D22   D(4,5,6,7)           -180.0021         -DE/DX =    0.0                 !
 ! D23   D(8,5,6,1)           -180.0016         -DE/DX =    0.0                 !
 ! D24   D(8,5,6,7)             -0.0034         -DE/DX =    0.0                 !
 --------------------------------------------------------------------------------
 GradGradGradGradGradGradGradGradGradGradGradGradGradGradGradGradGradGrad

 1\1\GINC-KATANA2\Freq\RM062X\6-31+G(d)\C6H2Cl4\Z5358697\16-Mar-2025\0\
 \#N Geom=AllCheck Guess=TCheck SCRF=Check GenChk RM062X/6-31+G(d) Freq
 \\1,2,4,5-tetrachlorobenzene\\0,1\C,1.885023009,-1.0361118851,-0.10596
 37057\C,2.9207150963,-1.630549719,0.6069297473\C,2.8778793557,-1.65196
 96278,2.0033422753\C,1.7999032982,-1.0786770394,2.6693270647\C,0.76420
 17444,-0.4842433814,1.9564397247\C,0.807039422,-0.4628347299,0.5600213
 32\Cl,-0.4570137639,0.2645214904,-0.369663262\Cl,-0.555047826,0.215537
 4595,2.8288008131\Cl,4.1418971703,-2.3793525464,2.9330356244\Cl,4.2399
 731752,-2.3303196793,-0.2654324072\H,1.9182362932,-1.019508381,-1.1896
 651614\H,1.7666930256,-1.0952919607,3.7530279547\\Version=ES64L-G09Rev
 D.01\State=1-A\HF=-2070.4119608\RMSD=4.996e-09\RMSF=1.331e-04\ZeroPoin
 t=0.0628964\Thermal=0.0720022\Dipole=0.0000054,-0.0000029,0.0000122\Di
 poleDeriv=-0.2488415,0.0919367,-0.0033928,0.091936,-0.1331935,0.002187
 2,-0.0034054,0.0021918,-0.0921937,0.5477301,-0.2866722,-0.5320221,-0.2
 878923,0.1466932,0.2857687,-0.4944536,0.2650385,0.2380784,0.4843278,-0
 .2862235,0.5388776,-0.2849989,0.1641918,-0.306565,0.5013088,-0.2858471
 ,0.2839716,-0.2488311,0.0919384,-0.0033948,0.0919386,-0.1332,0.0021846
 ,-0.0034021,0.0021928,-0.0921908,0.5477083,-0.2866736,-0.5320206,-0.28
 79063,0.1467074,0.2857746,-0.4944538,0.2650399,0.2380777,0.4843649,-0.
 2862194,0.5388804,-0.2849849,0.1641697,-0.3065527,0.5013117,-0.2858371
 ,0.2839735,-0.4162537,0.2234704,-0.2703167,0.2247155,-0.1560339,0.1564
 372,-0.3093909,0.1780035,-0.2535445,-0.451486,0.2256546,0.2653567,0.22
 44047,-0.1463034,-0.1399331,0.3044411,-0.1614933,-0.2280154,-0.4162327
 ,0.223471,-0.2703126,0.2247205,-0.1560392,0.1564433,-0.30939,0.1780095
 ,-0.2535455,-0.4514947,0.2256528,0.2653596,0.2244011,-0.1463019,-0.139
 929,0.304441,-0.1614908,-0.2280174,0.0845041,0.0318328,0.0014923,0.031
 8309,0.1246564,0.00209,0.0014967,0.0020966,0.051705,0.0845045,0.031832
 ,0.0014929,0.031835,0.1246533,0.0020942,0.0014965,0.0020956,0.0517011\
 Polar=139.2190185,-43.151165,84.8704879,-0.1520853,-1.9012449,122.5668
 376\PG=C01 [X(C6H2Cl4)]\NImag=0\\0.56850924,-0.24430839,0.26042639,-0.
 00978239,-0.01523355,0.76497674,-0.22542456,0.09614842,-0.12734941,0.4
 7625580,0.09393462,-0.11283599,0.07440988,-0.20029459,0.22684412,-0.05
 868741,0.03652522,-0.18712014,0.03345099,-0.03525729,0.63602338,0.0342
 1412,-0.01439640,-0.01976240,-0.09165885,0.01751513,-0.02597666,0.4813
 2268,-0.01255722,0.01351057,0.01192026,0.01536024,-0.07064428,0.022842
 80,-0.20042313,0.22544051,-0.07676995,0.04337406,-0.02454384,0.0408283
 7,-0.01401628,-0.32521405,-0.04915883,0.01044177,0.63235454,-0.0588019
 0,0.03188270,-0.00117386,0.02811296,-0.01423659,0.07964311,-0.23683899
 ,0.09644678,0.05865625,0.56850509,0.03188258,-0.01870080,0.00076126,-0
 .01239750,0.01519597,-0.04306829,0.09423270,-0.10968180,-0.02848621,-0
 .24430914,0.26042930,-0.00117348,0.00076111,-0.00459975,0.02263522,-0.
 01161507,-0.02012818,0.12731915,-0.06636986,-0.17885787,-0.00978346,-0
 .01523308,0.76497527,0.02811283,-0.01239746,0.02263512,-0.01509329,0.0
 0743052,-0.03080423,-0.04544745,0.02737642,0.02724048,-0.22542441,0.09
 614690,-0.12734650,0.47625737,-0.01423674,0.01519580,-0.01161472,0.007
 43041,-0.00814455,0.01915069,0.02934822,-0.00987071,-0.01732312,0.0939
 3209,-0.11283462,0.07440721,-0.20029397,0.22684453,0.07964224,-0.04306
 798,-0.02012737,-0.03080414,0.01915084,-0.07022554,-0.03387915,0.01639
 932,0.07687007,-0.05868458,0.03652314,-0.18711814,0.03344827,-0.035250
 06,0.63600578,-0.23684191,0.09423121,0.12732004,-0.04544832,0.02934843
 ,-0.03387969,-0.01908486,0.00753572,0.03420900,0.03421443,-0.01439636,
 -0.01976290,-0.09165972,0.01751506,-0.02597654,0.48132608,0.09644527,-
 0.10967895,-0.06636842,0.02737683,-0.00987051,0.01639939,0.00753559,-0
 .00704229,-0.01681267,-0.01255689,0.01351033,0.01191999,0.01535986,-0.
 07064486,0.02283961,-0.20041594,0.22543377,0.05865786,-0.02848500,-0.1
 7885870,0.02724054,-0.01732335,0.07687044,0.03420853,-0.01681284,-0.06
 733843,-0.07677014,0.04337383,-0.02454352,0.04082823,-0.01401905,-0.32
 519904,-0.04916305,0.01044952,0.63233518,-0.03040599,0.01975069,-0.021
 19496,0.00231969,0.00123100,0.00416231,0.00018852,-0.00037172,-0.00100
 651,0.00194869,0.00100682,-0.00018848,-0.01090560,0.00824695,-0.007515
 34,-0.11288779,0.05256948,-0.06137924,0.15074881,0.01907493,-0.0067463
 8,0.01168177,0.00130958,0.00414034,-0.00211617,-0.00039877,-0.00034072
 ,0.00050598,0.00087269,0.00327008,0.00035511,0.00893955,-0.00148753,0.
 00491030,0.05244940,-0.05128113,0.03592722,-0.08062286,0.05573674,-0.0
 0023944,0.00012006,0.00451991,0.00173749,-0.00077851,-0.00079207,-0.00
 016880,0.00004405,0.00098003,0.00396864,-0.00193882,-0.00402214,-0.028
 98678,0.01675584,-0.02007721,-0.05766123,0.03387670,-0.08525872,0.0857
 8461,-0.05058013,0.11053306,0.00215597,0.00086769,0.00059452,0.0001200
 6,-0.00039705,0.00094244,0.00266652,0.00130039,-0.00391385,-0.03162227
 ,0.01910858,0.01958414,-0.12016859,0.05265168,0.06092097,-0.01318794,0
 .00899885,0.00822232,0.00213527,-0.00178690,-0.00271204,0.16124693,0.0
 0100192,0.00321228,-0.00007212,-0.00037012,-0.00032164,-0.00057107,0.0
 0122197,0.00404464,0.00234798,0.01978461,-0.00641192,-0.01084572,0.052
 77149,-0.04927926,-0.03171854,0.00830622,-0.00085694,-0.00382578,-0.00
 197703,-0.00022480,0.00166707,-0.08091095,0.05284771,-0.00356241,0.002
 22117,-0.00417161,0.00010485,-0.00010857,0.00102931,-0.00148928,0.0010
 0997,-0.00104303,-0.00137180,0.00071662,0.00540042,0.05720411,-0.02966
 696,-0.07999654,0.02969282,-0.01567290,-0.01842387,0.00318780,-0.00158
 806,-0.00655753,-0.08524867,0.04402818,0.10294018,0.00194854,0.0010070
 0,-0.00018831,-0.01090478,0.00824684,-0.00751494,-0.11288839,0.0525751
 9,-0.06138297,-0.03040635,0.01975206,-0.02119518,0.00231975,0.00123116
 ,0.00416233,0.00018856,-0.00037170,-0.00100667,-0.00114629,0.00046671,
 -0.00089399,-0.00133980,0.00074831,0.00008211,0.15074914,0.00087273,0.
 00327006,0.00035507,0.00893960,-0.00148787,0.00491049,0.05245516,-0.05
 128588,0.03593325,0.01907627,-0.00674735,0.01168243,0.00130948,0.00414
 027,-0.00211633,-0.00039883,-0.00034072,0.00050608,0.00046676,-0.00062
 605,0.00049795,0.00075620,-0.00039417,-0.00005560,-0.08063005,0.055742
 88,0.00396867,-0.00193874,-0.00402198,-0.02898644,0.01675659,-0.020077
 32,-0.05766537,0.03388261,-0.08526259,-0.00023955,0.00012035,0.0045197
 4,0.00173753,-0.00077852,-0.00079198,-0.00016878,0.00004409,0.00097995
 ,-0.00089403,0.00049793,-0.00049903,-0.00016218,0.00007918,0.00034054,
 0.08578830,-0.05058697,0.11053648,-0.03162281,0.01910869,0.01958399,-0
 .12016794,0.05264969,0.06092048,-0.01318821,0.00899909,0.00822243,0.00
 215594,0.00086761,0.00059457,0.00012009,-0.00039710,0.00094252,0.00266
 649,0.00130042,-0.00391391,-0.00133981,0.00075618,-0.00016217,-0.00125
 406,0.00046962,0.00086296,0.00213523,-0.00178690,-0.00271195,0.1612472
 6,0.01978471,-0.00641176,-0.01084575,0.05276956,-0.04927795,-0.0317166
 5,0.00830634,-0.00085686,-0.00382597,0.00100181,0.00321247,-0.00007207
 ,-0.00037002,-0.00032168,-0.00057092,0.00122205,0.00404453,0.00234788,
 0.00074834,-0.00039416,0.00007917,0.00046960,-0.00059637,-0.00047394,-
 0.00197713,-0.00022480,0.00166706,-0.08090926,0.05284612,-0.00137190,0
 .00071661,0.00540033,0.05720349,-0.02966537,-0.07999614,0.02969335,-0.
 01567293,-0.01842413,-0.00356239,0.00222138,-0.00417163,0.00010487,-0.
 00010854,0.00102934,-0.00148924,0.00100997,-0.00104302,0.00008212,-0.0
 0005560,0.00034054,0.00086295,-0.00047396,-0.00042103,0.00318771,-0.00
 158808,-0.00655708,-0.08524840,0.04402644,0.10293967,-0.05056765,0.008
 08816,0.00938218,0.00353176,0.00063678,-0.02337177,-0.00146181,0.00390
 723,-0.00111278,-0.00127597,0.00001775,-0.00006456,-0.00164261,0.00393
 517,0.00111544,0.00217687,-0.00014906,0.02418822,-0.00027184,-0.001340
 36,0.00061940,-0.00046564,0.00024233,0.00128019,-0.00038362,0.00027987
 ,-0.00128567,-0.00028654,-0.00128830,-0.00074274,0.05054817,0.00808783
 ,-0.03998486,0.00503786,-0.00018443,0.00299143,0.01335119,0.00393062,0
 .00336087,0.00078311,0.00001754,-0.00125625,-0.00003163,0.00391196,0.0
 0341103,-0.00045015,0.00067257,0.00336574,-0.01292178,-0.00128865,-0.0
 0193908,-0.00046194,0.00028195,-0.00008461,-0.00069905,0.00024020,-0.0
 0010731,0.00071853,-0.00134001,-0.00193492,0.00028918,-0.01433069,0.03
 207749,0.00938269,0.00503863,-0.35228764,0.00210934,-0.00070849,-0.010
 80156,-0.00182704,0.00117737,0.00030124,-0.00006448,-0.00003156,0.0008
 3405,0.00182961,-0.00084436,0.00043194,-0.00129340,0.00113732,-0.00982
 153,-0.00098218,0.00042161,0.00106645,0.00005056,-0.00002072,-0.000173
 93,-0.00005610,0.00004005,-0.00023328,0.00085890,-0.00059452,0.0010771
 1,-0.01001239,-0.00561762,0.36965412,-0.00127586,0.00001768,-0.0000645
 2,-0.00164253,0.00393521,0.00111536,0.00217672,-0.00014898,0.02418835,
 -0.05056722,0.00808800,0.00938146,0.00353160,0.00063706,-0.02337202,-0
 .00146190,0.00390729,-0.00111267,-0.00038366,0.00027985,-0.00128568,-0
 .00028645,-0.00128837,-0.00074269,-0.00027200,-0.00134028,0.00061948,-
 0.00046566,0.00024231,0.00128018,0.00009885,0.00000112,0.00000449,0.05
 054810,0.00001775,-0.00125636,-0.00003156,0.00391200,0.00341093,-0.000
 45030,0.00067256,0.00336595,-0.01292189,0.00808811,-0.03998540,0.00504
 157,-0.00018473,0.00299158,0.01335078,0.00393047,0.00336102,0.00078326
 ,0.00024022,-0.00010731,0.00071855,-0.00134003,-0.00193493,0.00028914,
 -0.00128858,-0.00193906,-0.00046211,0.00028197,-0.00008462,-0.00069911
 ,0.00000112,0.00010046,0.00000230,-0.01433088,0.03207776,-0.00006447,-
 0.00003159,0.00083405,0.00182970,-0.00084439,0.00043188,-0.00129350,0.
 00113748,-0.00982194,0.00938223,0.00504138,-0.35228824,0.00210930,-0.0
 0070843,-0.01080131,-0.00182702,0.00117738,0.00030126,-0.00005611,0.00
 004005,-0.00023327,0.00085882,-0.00059450,0.00107709,-0.00098228,0.000
 42166,0.00106654,0.00005058,-0.00002073,-0.00017395,0.00000450,0.00000
 230,-0.00004698,-0.01001174,-0.00562063,0.36965487\\0.00001112,0.00000
 405,-0.00023076,-0.00023682,0.00012864,0.00008514,-0.00023658,0.000131
 20,-0.00009583,-0.00000695,-0.00000375,0.00023066,0.00023156,-0.000127
 28,-0.00008093,0.00024147,-0.00013422,0.00009352,-0.00012346,0.0000707
 3,-0.00011960,-0.00012360,0.00006538,0.00011266,0.00011916,-0.00006891
 ,0.00011849,0.00012382,-0.00006505,-0.00011289,-0.00000703,-0.00000351
 ,0.00019410,0.00000732,0.00000274,-0.00019457\\\@


 CONFIDENCE: THAT QUIET ASSURED FEELING YOU HAVE
 JUST BEFORE YOU FALL FLAT ON YOUR FACE.
 Job cpu time:       0 days  0 hours  7 minutes 22.4 seconds.
 File lengths (MBytes):  RWF=    204 Int=      0 D2E=      0 Chk=      5 Scr=      2
 Normal termination of Gaussian 09 at Sun Mar 16 22:31:02 2025.
