 Entering Gaussian System, Link 0=g09
 Initial command:
 /apps/z_install_tree/linux-rocky8-ivybridge/gcc-12.2.0/gaussian-09-D.01-wczn3gur5lpur3omlkzwa2l5ecyxp5ef/g09/l1.exe "/srv/scratch/z5358697/gauss/Gau-749789.inp" -scrdir="/srv/scratch/z5358697/gauss/"
 Entering Link 1 = /apps/z_install_tree/linux-rocky8-ivybridge/gcc-12.2.0/gaussian-09-D.01-wczn3gur5lpur3omlkzwa2l5ecyxp5ef/g09/l1.exe PID=    749796.
  
 Copyright (c) 1988,1990,1992,1993,1995,1998,2003,2009,2013,
            Gaussian, Inc.  All Rights Reserved.
  
 This is part of the Gaussian(R) 09 program.  It is based on
 the Gaussian(R) 03 system (copyright 2003, Gaussian, Inc.),
 the Gaussian(R) 98 system (copyright 1998, Gaussian, Inc.),
 the Gaussian(R) 94 system (copyright 1995, Gaussian, Inc.),
 the Gaussian 92(TM) system (copyright 1992, Gaussian, Inc.),
 the Gaussian 90(TM) system (copyright 1990, Gaussian, Inc.),
 the Gaussian 88(TM) system (copyright 1988, Gaussian, Inc.),
 the Gaussian 86(TM) system (copyright 1986, Carnegie Mellon
 University), and the Gaussian 82(TM) system (copyright 1983,
 Carnegie Mellon University). Gaussian is a federally registered
 trademark of Gaussian, Inc.
  
 This software contains proprietary and confidential information,
 including trade secrets, belonging to Gaussian, Inc.
  
 This software is provided under written license and may be
 used, copied, transmitted, or stored only in accord with that
 written license.
  
 The following legend is applicable only to US Government
 contracts under FAR:
  
                    RESTRICTED RIGHTS LEGEND
  
 Use, reproduction and disclosure by the US Government is
 subject to restrictions as set forth in subparagraphs (a)
 and (c) of the Commercial Computer Software - Restricted
 Rights clause in FAR 52.227-19.
  
 Gaussian, Inc.
 340 Quinnipiac St., Bldg. 40, Wallingford CT 06492
  
  
 ---------------------------------------------------------------
 Warning -- This program may not be used in any manner that
 competes with the business of Gaussian, Inc. or will provide
 assistance to any competitor of Gaussian, Inc.  The licensee
 of this program is prohibited from giving any competitor of
 Gaussian, Inc. access to this program.  By using this program,
 the user acknowledges that Gaussian, Inc. is engaged in the
 business of creating and licensing software in the field of
 computational chemistry and represents and warrants to the
 licensee that it is not a competitor of Gaussian, Inc. and that
 it will not use this program in any manner prohibited above.
 ---------------------------------------------------------------
  

 Cite this work as:
 Gaussian 09, Revision D.01,
 M. J. Frisch, G. W. Trucks, H. B. Schlegel, G. E. Scuseria, 
 M. A. Robb, J. R. Cheeseman, G. Scalmani, V. Barone, B. Mennucci, 
 G. A. Petersson, H. Nakatsuji, M. Caricato, X. Li, H. P. Hratchian, 
 A. F. Izmaylov, J. Bloino, G. Zheng, J. L. Sonnenberg, M. Hada, 
 M. Ehara, K. Toyota, R. Fukuda, J. Hasegawa, M. Ishida, T. Nakajima, 
 Y. Honda, O. Kitao, H. Nakai, T. Vreven, J. A. Montgomery, Jr., 
 J. E. Peralta, F. Ogliaro, M. Bearpark, J. J. Heyd, E. Brothers, 
 K. N. Kudin, V. N. Staroverov, T. Keith, R. Kobayashi, J. Normand, 
 K. Raghavachari, A. Rendell, J. C. Burant, S. S. Iyengar, J. Tomasi, 
 M. Cossi, N. Rega, J. M. Millam, M. Klene, J. E. Knox, J. B. Cross, 
 V. Bakken, C. Adamo, J. Jaramillo, R. Gomperts, R. E. Stratmann, 
 O. Yazyev, A. J. Austin, R. Cammi, C. Pomelli, J. W. Ochterski, 
 R. L. Martin, K. Morokuma, V. G. Zakrzewski, G. A. Voth, 
 P. Salvador, J. J. Dannenberg, S. Dapprich, A. D. Daniels, 
 O. Farkas, J. B. Foresman, J. V. Ortiz, J. Cioslowski, 
 and D. J. Fox, Gaussian, Inc., Wallingford CT, 2013.
 
 ******************************************
 Gaussian 09:  ES64L-G09RevD.01 24-Apr-2013
                14-Mar-2025 
 ******************************************
 ---------------------------------
 #m062X/6-31+G(d) OPT Freq=noraman
 ---------------------------------
 1/14=-1,18=20,19=15,26=3,38=1/1,3;
 2/9=110,12=2,17=6,18=5,40=1/2;
 3/5=1,6=6,7=11,11=2,16=1,25=1,30=1,71=1,74=-55/1,2,3;
 4//1;
 5/5=2,38=5/2;
 6/7=2,8=2,9=2,10=2,28=1/1;
 7//1,2,3,16;
 1/14=-1,18=20,19=15,26=3/3(2);
 2/9=110/2;
 99//99;
 2/9=110/2;
 3/5=1,6=6,7=11,11=2,16=1,25=1,30=1,71=1,74=-55/1,2,3;
 4/5=5,16=3,69=1/1;
 5/5=2,38=5/2;
 7//1,2,3,16;
 1/14=-1,18=20,19=15,26=3/3(-5);
 2/9=110/2;
 6/7=2,8=2,9=2,10=2,19=2,28=1/1;
 99/9=1/99;
 -----------------------
 1,1,2-trichloroethylene
 -----------------------
 Symbolic Z-matrix:
 Charge =  0 Multiplicity = 1
 C                    -0.2424    0.306     0.5885 
 C                     0.2375   -0.3834   -0.4499 
 Cl                    0.7818   -2.0179   -0.3331 
 Cl                    0.3333    0.369    -2.0054 
 Cl                   -0.7978    1.9275    0.5399 
 H                    -0.3287   -0.1033    1.5875 
 

 GradGradGradGradGradGradGradGradGradGradGradGradGradGradGradGradGradGrad
 Berny optimization.
 Initialization pass.
                           ----------------------------
                           !    Initial Parameters    !
                           ! (Angstroms and Degrees)  !
 --------------------------                            --------------------------
 ! Name  Definition              Value          Derivative Info.                !
 --------------------------------------------------------------------------------
 ! R1    R(1,2)                  1.3356         estimate D2E/DX2                !
 ! R2    R(1,5)                  1.7147         estimate D2E/DX2                !
 ! R3    R(1,6)                  1.083          estimate D2E/DX2                !
 ! R4    R(2,3)                  1.7267         estimate D2E/DX2                !
 ! R5    R(2,4)                  1.7306         estimate D2E/DX2                !
 ! A1    A(2,1,5)              125.6245         estimate D2E/DX2                !
 ! A2    A(2,1,6)              123.4154         estimate D2E/DX2                !
 ! A3    A(5,1,6)              110.9601         estimate D2E/DX2                !
 ! A4    A(1,2,3)              123.3177         estimate D2E/DX2                !
 ! A5    A(1,2,4)              119.6235         estimate D2E/DX2                !
 ! A6    A(3,2,4)              117.0589         estimate D2E/DX2                !
 ! D1    D(5,1,2,3)            179.998          estimate D2E/DX2                !
 ! D2    D(5,1,2,4)              0.0237         estimate D2E/DX2                !
 ! D3    D(6,1,2,3)              0.0344         estimate D2E/DX2                !
 ! D4    D(6,1,2,4)           -179.9399         estimate D2E/DX2                !
 --------------------------------------------------------------------------------
 Trust Radius=3.00D-01 FncErr=1.00D-07 GrdErr=1.00D-06
 Number of steps in this run=     25 maximum allowed number of steps=    100.
 GradGradGradGradGradGradGradGradGradGradGradGradGradGradGradGradGradGrad

                          Input orientation:                          
 ---------------------------------------------------------------------
 Center     Atomic      Atomic             Coordinates (Angstroms)
 Number     Number       Type             X           Y           Z
 ---------------------------------------------------------------------
      1          6           0       -0.242400    0.306000    0.588500
      2          6           0        0.237500   -0.383400   -0.449900
      3         17           0        0.781800   -2.017900   -0.333100
      4         17           0        0.333300    0.369000   -2.005400
      5         17           0       -0.797800    1.927500    0.539900
      6          1           0       -0.328700   -0.103300    1.587500
 ---------------------------------------------------------------------
                    Distance matrix (angstroms):
                    1          2          3          4          5
     1  C    0.000000
     2  C    1.335609   0.000000
     3  Cl   2.701637   1.726701   0.000000
     4  Cl   2.657765   1.730567   2.948734   0.000000
     5  Cl   1.714670   2.718788   4.338600   3.191686   0.000000
     6  H    1.083040   2.133082   2.930462   3.683781   2.332739
                    6
     6  H    0.000000
 Stoichiometry    C2HCl3
 Framework group  C1[X(C2HCl3)]
 Deg. of freedom    12
 Full point group                 C1      NOp   1
 Largest Abelian subgroup         C1      NOp   1
 Largest concise Abelian subgroup C1      NOp   1
                         Standard orientation:                         
 ---------------------------------------------------------------------
 Center     Atomic      Atomic             Coordinates (Angstroms)
 Number     Number       Type             X           Y           Z
 ---------------------------------------------------------------------
      1          6           0       -0.618589   -0.914430    0.000044
      2          6           0        0.459087   -0.125464   -0.000170
      3         17           0        2.076708   -0.729448   -0.000018
      4         17           0        0.260650    1.593689    0.000051
      5         17           0       -2.247779   -0.379797   -0.000040
      6          1           0       -0.565826   -1.996183    0.000873
 ---------------------------------------------------------------------
 Rotational constants (GHZ):      3.9903555      1.4982347      1.0892577
 Standard basis: 6-31+G(d) (6D, 7F)
 There are   109 symmetry adapted cartesian basis functions of A   symmetry.
 There are   109 symmetry adapted basis functions of A   symmetry.
   109 basis functions,   236 primitive gaussians,   109 cartesian basis functions
    32 alpha electrons       32 beta electrons
       nuclear repulsion energy       317.1498526745 Hartrees.
 NAtoms=    6 NActive=    6 NUniq=    6 SFac= 1.00D+00 NAtFMM=   60 NAOKFM=F Big=F
 Integral buffers will be    131072 words long.
 Raffenetti 2 integral format.
 Two-electron integral symmetry is turned on.
 One-electron integrals computed using PRISM.
 NBasis=   109 RedAO= T EigKep=  3.42D-05  NBF=   109
 NBsUse=   109 1.00D-06 EigRej= -1.00D+00 NBFU=   109
 ExpMin= 4.38D-02 ExpMax= 2.52D+04 ExpMxC= 3.78D+03 IAcc=2 IRadAn=         4 AccDes= 0.00D+00
 Harris functional with IExCor= 1009 and IRadAn=       4 diagonalized for initial guess.
 HarFok:  IExCor= 1009 AccDes= 0.00D+00 IRadAn=         4 IDoV= 1 UseB2=F ITyADJ=14
 ICtDFT=  3500011 ScaDFX=  1.000000  1.000000  1.000000  1.000000
 FoFCou: FMM=F IPFlag=           0 FMFlag=      100000 FMFlg1=           0
         NFxFlg=           0 DoJE=T BraDBF=F KetDBF=T FulRan=T
         wScrn=  0.000000 ICntrl=     500 IOpCl=  0 I1Cent=   200000004 NGrid=           0
         NMat0=    1 NMatS0=      1 NMatT0=    0 NMatD0=    1 NMtDS0=    0 NMtDT0=    0
 Petite list used in FoFCou.
 Keep R1 ints in memory in canonical form, NReq=18960552.
 Requested convergence on RMS density matrix=1.00D-08 within 128 cycles.
 Requested convergence on MAX density matrix=1.00D-06.
 Requested convergence on             energy=1.00D-06.
 No special actions if energy rises.
 SCF Done:  E(RM062X) =  -1457.23951909     A.U. after   12 cycles
            NFock= 12  Conv=0.51D-08     -V/T= 2.0030

 **********************************************************************

            Population analysis using the SCF density.

 **********************************************************************

 Orbital symmetries:
       Occupied  (A) (A) (A) (A) (A) (A) (A) (A) (A) (A) (A) (A)
                 (A) (A) (A) (A) (A) (A) (A) (A) (A) (A) (A) (A)
                 (A) (A) (A) (A) (A) (A) (A) (A)
       Virtual   (A) (A) (A) (A) (A) (A) (A) (A) (A) (A) (A) (A)
                 (A) (A) (A) (A) (A) (A) (A) (A) (A) (A) (A) (A)
                 (A) (A) (A) (A) (A) (A) (A) (A) (A) (A) (A) (A)
                 (A) (A) (A) (A) (A) (A) (A) (A) (A) (A) (A) (A)
                 (A) (A) (A) (A) (A) (A) (A) (A) (A) (A) (A) (A)
                 (A) (A) (A) (A) (A) (A) (A) (A) (A) (A) (A) (A)
                 (A) (A) (A) (A) (A)
 The electronic state is 1-A.
 Alpha  occ. eigenvalues -- -102.70794-102.70014-102.69682 -10.69266 -10.64298
 Alpha  occ. eigenvalues --   -9.85448  -9.84680  -9.84362  -7.57893  -7.57146
 Alpha  occ. eigenvalues --   -7.57145  -7.57116  -7.56787  -7.56393  -7.56370
 Alpha  occ. eigenvalues --   -7.56098  -7.56054  -1.05078  -0.98844  -0.95288
 Alpha  occ. eigenvalues --   -0.83523  -0.66364  -0.58982  -0.56220  -0.50806
 Alpha  occ. eigenvalues --   -0.49160  -0.43573  -0.42380  -0.41086  -0.40734
 Alpha  occ. eigenvalues --   -0.38719  -0.31799
 Alpha virt. eigenvalues --   -0.00251   0.00914   0.01267   0.03070   0.04471
 Alpha virt. eigenvalues --    0.04879   0.06140   0.06792   0.08576   0.09571
 Alpha virt. eigenvalues --    0.09816   0.10016   0.11929   0.12879   0.13406
 Alpha virt. eigenvalues --    0.14258   0.14544   0.15377   0.15806   0.17155
 Alpha virt. eigenvalues --    0.19151   0.20705   0.23672   0.24119   0.28481
 Alpha virt. eigenvalues --    0.34019   0.53147   0.55488   0.56044   0.60959
 Alpha virt. eigenvalues --    0.61078   0.61648   0.63284   0.63829   0.66828
 Alpha virt. eigenvalues --    0.68007   0.68453   0.69784   0.70411   0.71823
 Alpha virt. eigenvalues --    0.77762   0.81648   0.82159   0.85978   0.88893
 Alpha virt. eigenvalues --    0.90434   0.90849   0.91320   0.91371   0.92074
 Alpha virt. eigenvalues --    0.94202   0.94759   0.98440   1.00966   1.06471
 Alpha virt. eigenvalues --    1.10967   1.12894   1.14942   1.22319   1.22529
 Alpha virt. eigenvalues --    1.34932   1.44037   1.48834   1.64128   1.91198
 Alpha virt. eigenvalues --    1.97875   1.99554   2.08026   2.29799   2.32339
 Alpha virt. eigenvalues --    2.62043   2.68164   4.07884   4.20941   4.40335
 Alpha virt. eigenvalues --    4.42798   4.48344
          Condensed to atoms (all electrons):
               1          2          3          4          5          6
     1  C    5.871495   0.193918  -0.020520  -0.110045   0.239027   0.376163
     2  C    0.193918   5.664012   0.122969   0.204179  -0.116902  -0.051169
     3  Cl  -0.020520   0.122969  16.794727  -0.029086   0.004688   0.000504
     4  Cl  -0.110045   0.204179  -0.029086  16.787509   0.039215   0.005054
     5  Cl   0.239027  -0.116902   0.004688   0.039215  16.814305  -0.041547
     6  H    0.376163  -0.051169   0.000504   0.005054  -0.041547   0.435057
 Mulliken charges:
               1
     1  C   -0.550037
     2  C   -0.017007
     3  Cl   0.126718
     4  Cl   0.103173
     5  Cl   0.061215
     6  H    0.275938
 Sum of Mulliken charges =   0.00000
 Mulliken charges with hydrogens summed into heavy atoms:
               1
     1  C   -0.274099
     2  C   -0.017007
     3  Cl   0.126718
     4  Cl   0.103173
     5  Cl   0.061215
 Electronic spatial extent (au):  <R**2>=            923.4923
 Charge=              0.0000 electrons
 Dipole moment (field-independent basis, Debye):
    X=              0.0834    Y=             -1.1250    Z=              0.0008  Tot=              1.1281
 Quadrupole moment (field-independent basis, Debye-Ang):
   XX=            -49.8734   YY=            -46.5491   ZZ=            -50.4994
   XY=             -0.1608   XZ=             -0.0004   YZ=             -0.0017
 Traceless Quadrupole moment (field-independent basis, Debye-Ang):
   XX=             -0.8994   YY=              2.4248   ZZ=             -1.5254
   XY=             -0.1608   XZ=             -0.0004   YZ=             -0.0017
 Octapole moment (field-independent basis, Debye-Ang**2):
  XXX=              2.5764  YYY=              0.9970  ZZZ=              0.0010  XYY=             -1.3360
  XXY=              0.3105  XXZ=              0.0004  XZZ=              0.3571  YZZ=              1.2063
  YYZ=              0.0061  XYZ=              0.0011
 Hexadecapole moment (field-independent basis, Debye-Ang**3):
 XXXX=           -740.2867 YYYY=           -308.4574 ZZZZ=            -57.5947 XXXY=            -18.4905
 XXXZ=              0.0029 YYYX=              0.8481 YYYZ=             -0.0066 ZZZX=              0.0000
 ZZZY=             -0.0008 XXYY=           -188.0466 XXZZ=           -144.2447 YYZZ=            -68.3339
 XXYZ=             -0.0015 YYXZ=             -0.0019 ZZXY=             -0.4991
 N-N= 3.171498526745D+02 E-N=-4.092629267642D+03  KE= 1.452904467543D+03
 Calling FoFJK, ICntrl=      2127 FMM=F ISym2X=0 I1Cent= 0 IOpClX= 0 NMat=1 NMatS=1 NMatT=0.
 ***** Axes restored to original set *****
 -------------------------------------------------------------------
 Center     Atomic                   Forces (Hartrees/Bohr)
 Number     Number              X              Y              Z
 -------------------------------------------------------------------
      1        6           0.000553129   -0.006988269    0.008339436
      2        6          -0.003684048    0.012513727   -0.002864470
      3       17          -0.001979771    0.004956056    0.001075143
      4       17           0.002375507   -0.006774308   -0.000141103
      5       17           0.000010175    0.002712061   -0.004170976
      6        1           0.002725007   -0.006419268   -0.002238030
 -------------------------------------------------------------------
 Cartesian Forces:  Max     0.012513727 RMS     0.005036780

 GradGradGradGradGradGradGradGradGradGradGradGradGradGradGradGradGradGrad
 Berny optimization.
 FormGI is forming the generalized inverse of G from B-inverse, IUseBI=4.
 Internal  Forces:  Max     0.016176598 RMS     0.006379762
 Search for a local minimum.
 Step number   1 out of a maximum of   25
 All quantities printed in internal units (Hartrees-Bohrs-Radians)
 Mixed Optimization -- RFO/linear search
 Second derivative matrix not updated -- first step.
 The second derivative matrix:
                          R1        R2        R3        R4        R5
           R1           0.58200
           R2           0.00000   0.34181
           R3           0.00000   0.00000   0.35630
           R4           0.00000   0.00000   0.00000   0.32859
           R5           0.00000   0.00000   0.00000   0.00000   0.32449
           A1           0.00000   0.00000   0.00000   0.00000   0.00000
           A2           0.00000   0.00000   0.00000   0.00000   0.00000
           A3           0.00000   0.00000   0.00000   0.00000   0.00000
           A4           0.00000   0.00000   0.00000   0.00000   0.00000
           A5           0.00000   0.00000   0.00000   0.00000   0.00000
           A6           0.00000   0.00000   0.00000   0.00000   0.00000
           D1           0.00000   0.00000   0.00000   0.00000   0.00000
           D2           0.00000   0.00000   0.00000   0.00000   0.00000
           D3           0.00000   0.00000   0.00000   0.00000   0.00000
           D4           0.00000   0.00000   0.00000   0.00000   0.00000
                          A1        A2        A3        A4        A5
           A1           0.25000
           A2           0.00000   0.16000
           A3           0.00000   0.00000   0.16000
           A4           0.00000   0.00000   0.00000   0.25000
           A5           0.00000   0.00000   0.00000   0.00000   0.25000
           A6           0.00000   0.00000   0.00000   0.00000   0.00000
           D1           0.00000   0.00000   0.00000   0.00000   0.00000
           D2           0.00000   0.00000   0.00000   0.00000   0.00000
           D3           0.00000   0.00000   0.00000   0.00000   0.00000
           D4           0.00000   0.00000   0.00000   0.00000   0.00000
                          A6        D1        D2        D3        D4
           A6           0.25000
           D1           0.00000   0.02941
           D2           0.00000   0.00000   0.02941
           D3           0.00000   0.00000   0.00000   0.02941
           D4           0.00000   0.00000   0.00000   0.00000   0.02941
 ITU=  0
     Eigenvalues ---    0.02941   0.02941   0.02941   0.16000   0.22000
     Eigenvalues ---    0.25000   0.25000   0.32449   0.32859   0.34181
     Eigenvalues ---    0.35630   0.58200
 RFO step:  Lambda=-2.57508082D-03 EMin= 2.94052755D-02
 Linear search not attempted -- first point.
 Iteration  1 RMS(Cart)=  0.04733904 RMS(Int)=  0.00120312
 Iteration  2 RMS(Cart)=  0.00127835 RMS(Int)=  0.00000013
 Iteration  3 RMS(Cart)=  0.00000014 RMS(Int)=  0.00000007
 Variable       Old X    -DE/DX   Delta X   Delta X   Delta X     New X
                                 (Linear)    (Quad)   (Total)
    R1        2.52393  -0.00520   0.00000  -0.00890  -0.00890   2.51503
    R2        3.24026   0.00269   0.00000   0.00780   0.00780   3.24806
    R3        2.04665   0.00014   0.00000   0.00039   0.00039   2.04704
    R4        3.26299  -0.00524   0.00000  -0.01582  -0.01582   3.24717
    R5        3.27030  -0.00269   0.00000  -0.00823  -0.00823   3.26207
    A1        2.19256  -0.00411   0.00000  -0.01848  -0.01848   2.17408
    A2        2.15401  -0.00542   0.00000  -0.03676  -0.03676   2.11725
    A3        1.93662   0.00953   0.00000   0.05524   0.05524   1.99185
    A4        2.15230  -0.01052   0.00000  -0.04163  -0.04163   2.11067
    A5        2.08782   0.01618   0.00000   0.06405   0.06405   2.15187
    A6        2.04306  -0.00566   0.00000  -0.02241  -0.02241   2.02065
    D1        3.14156   0.00002   0.00000   0.00049   0.00049  -3.14114
    D2        0.00041  -0.00002   0.00000  -0.00048  -0.00048  -0.00007
    D3        0.00060  -0.00001   0.00000  -0.00035  -0.00035   0.00025
    D4       -3.14054  -0.00004   0.00000  -0.00131  -0.00131   3.14133
         Item               Value     Threshold  Converged?
 Maximum Force            0.016177     0.000450     NO 
 RMS     Force            0.006380     0.000300     NO 
 Maximum Displacement     0.094227     0.001800     NO 
 RMS     Displacement     0.047192     0.001200     NO 
 Predicted change in Energy=-1.302399D-03
 GradGradGradGradGradGradGradGradGradGradGradGradGradGradGradGradGradGrad

                          Input orientation:                          
 ---------------------------------------------------------------------
 Center     Atomic      Atomic             Coordinates (Angstroms)
 Number     Number       Type             X           Y           Z
 ---------------------------------------------------------------------
      1          6           0       -0.245610    0.310929    0.596351
      2          6           0        0.228492   -0.352612   -0.455424
      3         17           0        0.762102   -1.979176   -0.306396
      4         17           0        0.350993    0.335940   -2.033617
      5         17           0       -0.803845    1.935982    0.553460
      6          1           0       -0.308431   -0.153163    1.573127
 ---------------------------------------------------------------------
                    Distance matrix (angstroms):
                    1          2          3          4          5
     1  C    0.000000
     2  C    1.330899   0.000000
     3  Cl   2.659891   1.718331   0.000000
     4  Cl   2.696904   1.726211   2.917545   0.000000
     5  Cl   1.718797   2.705777   4.303488   3.253729   0.000000
     6  H    1.083245   2.107863   2.830720   3.699009   2.376906
                    6
     6  H    0.000000
 Stoichiometry    C2HCl3
 Framework group  C1[X(C2HCl3)]
 Deg. of freedom    12
 Full point group                 C1      NOp   1
 Largest Abelian subgroup         C1      NOp   1
 Largest concise Abelian subgroup C1      NOp   1
                         Standard orientation:                         
 ---------------------------------------------------------------------
 Center     Atomic      Atomic             Coordinates (Angstroms)
 Number     Number       Type             X           Y           Z
 ---------------------------------------------------------------------
      1          6           0       -0.636653   -0.906969    0.000205
      2          6           0        0.435363   -0.118252    0.000279
      3         17           0        2.020303   -0.782047   -0.000090
      4         17           0        0.343514    1.605513   -0.000004
      5         17           0       -2.260914   -0.344797   -0.000085
      6          1           0       -0.541607   -1.986036    0.000144
 ---------------------------------------------------------------------
 Rotational constants (GHZ):      3.8982556      1.5174404      1.0922641
 Standard basis: 6-31+G(d) (6D, 7F)
 There are   109 symmetry adapted cartesian basis functions of A   symmetry.
 There are   109 symmetry adapted basis functions of A   symmetry.
   109 basis functions,   236 primitive gaussians,   109 cartesian basis functions
    32 alpha electrons       32 beta electrons
       nuclear repulsion energy       317.4420948528 Hartrees.
 NAtoms=    6 NActive=    6 NUniq=    6 SFac= 1.00D+00 NAtFMM=   60 NAOKFM=F Big=F
 Integral buffers will be    131072 words long.
 Raffenetti 2 integral format.
 Two-electron integral symmetry is turned on.
 One-electron integrals computed using PRISM.
 NBasis=   109 RedAO= T EigKep=  3.34D-05  NBF=   109
 NBsUse=   109 1.00D-06 EigRej= -1.00D+00 NBFU=   109
 Initial guess from the checkpoint file:  "/srv/scratch/z5358697/gauss/Gau-749796.chk"
 B after Tr=     0.000000    0.000000    0.000000
         Rot=    0.999906    0.000000   -0.000001    0.013736 Ang=   1.57 deg.
 ExpMin= 4.38D-02 ExpMax= 2.52D+04 ExpMxC= 3.78D+03 IAcc=2 IRadAn=         4 AccDes= 0.00D+00
 Harris functional with IExCor= 1009 and IRadAn=       4 diagonalized for initial guess.
 HarFok:  IExCor= 1009 AccDes= 0.00D+00 IRadAn=         4 IDoV= 1 UseB2=F ITyADJ=14
 ICtDFT=  3500011 ScaDFX=  1.000000  1.000000  1.000000  1.000000
 FoFCou: FMM=F IPFlag=           0 FMFlag=      100000 FMFlg1=           0
         NFxFlg=           0 DoJE=T BraDBF=F KetDBF=T FulRan=T
         wScrn=  0.000000 ICntrl=     500 IOpCl=  0 I1Cent=   200000004 NGrid=           0
         NMat0=    1 NMatS0=      1 NMatT0=    0 NMatD0=    1 NMtDS0=    0 NMtDT0=    0
 Petite list used in FoFCou.
 Keep R1 ints in memory in canonical form, NReq=18960552.
 Requested convergence on RMS density matrix=1.00D-08 within 128 cycles.
 Requested convergence on MAX density matrix=1.00D-06.
 Requested convergence on             energy=1.00D-06.
 No special actions if energy rises.
 SCF Done:  E(RM062X) =  -1457.24096525     A.U. after   11 cycles
            NFock= 11  Conv=0.86D-08     -V/T= 2.0030
 Calling FoFJK, ICntrl=      2127 FMM=F ISym2X=0 I1Cent= 0 IOpClX= 0 NMat=1 NMatS=1 NMatT=0.
 ***** Axes restored to original set *****
 -------------------------------------------------------------------
 Center     Atomic                   Forces (Hartrees/Bohr)
 Number     Number              X              Y              Z
 -------------------------------------------------------------------
      1        6          -0.001003531    0.000385790    0.003764007
      2        6          -0.001120946    0.006337088   -0.004891157
      3       17           0.001033323   -0.003347787    0.000646306
      4       17          -0.000065326   -0.001636955    0.002815783
      5       17           0.000513698   -0.000437493   -0.001536216
      6        1           0.000642783   -0.001300642   -0.000798722
 -------------------------------------------------------------------
 Cartesian Forces:  Max     0.006337088 RMS     0.002466734

 GradGradGradGradGradGradGradGradGradGradGradGradGradGradGradGradGradGrad
 Berny optimization.
 Using GEDIIS/GDIIS optimizer.
 FormGI is forming the generalized inverse of G from B-inverse, IUseBI=4.
 Internal  Forces:  Max     0.003555197 RMS     0.001664591
 Search for a local minimum.
 Step number   2 out of a maximum of   25
 All quantities printed in internal units (Hartrees-Bohrs-Radians)
 Mixed Optimization -- RFO/linear search
 Update second derivatives using D2CorX and points    1    2
 DE= -1.45D-03 DEPred=-1.30D-03 R= 1.11D+00
 TightC=F SS=  1.41D+00  RLast= 1.07D-01 DXNew= 5.0454D-01 3.2230D-01
 Trust test= 1.11D+00 RLast= 1.07D-01 DXMaxT set to 3.22D-01
 The second derivative matrix:
                          R1        R2        R3        R4        R5
           R1           0.58541
           R2          -0.00259   0.34362
           R3          -0.00059   0.00036   0.35634
           R4           0.01133  -0.00714  -0.00109   0.35238
           R5          -0.00681   0.00358   0.00023  -0.00761   0.32182
           A1          -0.00519   0.00242  -0.00001  -0.00281  -0.00526
           A2           0.00043  -0.00096  -0.00046   0.00747  -0.00739
           A3           0.00137   0.00029   0.00056  -0.00805   0.01091
           A4           0.00172  -0.00226  -0.00087   0.01472  -0.01317
           A5          -0.00425   0.00439   0.00143  -0.02516   0.02042
           A6           0.00253  -0.00213  -0.00057   0.01043  -0.00725
           D1          -0.00007   0.00004   0.00001  -0.00012   0.00002
           D2           0.00003  -0.00002   0.00000   0.00006  -0.00002
           D3          -0.00002   0.00001   0.00000  -0.00002  -0.00001
           D4           0.00007  -0.00005  -0.00001   0.00016  -0.00006
                          A1        A2        A3        A4        A5
           A1           0.24289
           A2          -0.00693   0.15744
           A3           0.01102   0.00565   0.14911
           A4          -0.01197  -0.00368   0.00885   0.24506
           A5           0.01793   0.00424  -0.01171   0.00497   0.24657
           A6          -0.00596  -0.00056   0.00286  -0.00003  -0.00154
           D1           0.00000  -0.00005   0.00007  -0.00010   0.00017
           D2          -0.00001   0.00002  -0.00002   0.00003  -0.00006
           D3          -0.00002  -0.00002   0.00004  -0.00004   0.00007
           D4          -0.00002   0.00004  -0.00005   0.00009  -0.00015
                          A6        D1        D2        D3        D4
           A6           0.25158
           D1          -0.00006   0.02941
           D2           0.00002   0.00000   0.02941
           D3          -0.00002   0.00000   0.00000   0.02941
           D4           0.00007   0.00000   0.00000   0.00000   0.02941
 ITU=  1  0
 Use linear search instead of GDIIS.
     Eigenvalues ---    0.02941   0.02941   0.02941   0.13856   0.20446
     Eigenvalues ---    0.24363   0.25133   0.32276   0.34043   0.35615
     Eigenvalues ---    0.36882   0.58644
 RFO step:  Lambda=-1.56518951D-04 EMin= 2.94050940D-02
 Quartic linear search produced a step of  0.14784.
 Iteration  1 RMS(Cart)=  0.00908992 RMS(Int)=  0.00005983
 Iteration  2 RMS(Cart)=  0.00006627 RMS(Int)=  0.00000008
 Iteration  3 RMS(Cart)=  0.00000000 RMS(Int)=  0.00000008
 Variable       Old X    -DE/DX   Delta X   Delta X   Delta X     New X
                                 (Linear)    (Quad)   (Total)
    R1        2.51503   0.00040  -0.00132   0.00156   0.00024   2.51528
    R2        3.24806  -0.00053   0.00115  -0.00246  -0.00131   3.24675
    R3        2.04704  -0.00021   0.00006  -0.00071  -0.00066   2.04638
    R4        3.24717   0.00356  -0.00234   0.01379   0.01145   3.25863
    R5        3.26207  -0.00324  -0.00122  -0.01074  -0.01196   3.25010
    A1        2.17408  -0.00242  -0.00273  -0.01101  -0.01374   2.16034
    A2        2.11725  -0.00044  -0.00543  -0.00234  -0.00777   2.10948
    A3        1.99185   0.00286   0.00817   0.01335   0.02151   2.01337
    A4        2.11067  -0.00132  -0.00616  -0.00242  -0.00858   2.10209
    A5        2.15187   0.00139   0.00947   0.00078   0.01025   2.16212
    A6        2.02065  -0.00007  -0.00331   0.00164  -0.00167   2.01897
    D1       -3.14114  -0.00002   0.00007  -0.00095  -0.00088   3.14117
    D2       -0.00007   0.00001  -0.00007   0.00030   0.00023   0.00017
    D3        0.00025  -0.00001  -0.00005  -0.00042  -0.00047  -0.00022
    D4        3.14133   0.00002  -0.00019   0.00083   0.00064  -3.14122
         Item               Value     Threshold  Converged?
 Maximum Force            0.003555     0.000450     NO 
 RMS     Force            0.001665     0.000300     NO 
 Maximum Displacement     0.021889     0.001800     NO 
 RMS     Displacement     0.009089     0.001200     NO 
 Predicted change in Energy=-1.016934D-04
 GradGradGradGradGradGradGradGradGradGradGradGradGradGradGradGradGradGrad

                          Input orientation:                          
 ---------------------------------------------------------------------
 Center     Atomic      Atomic             Coordinates (Angstroms)
 Number     Number       Type             X           Y           Z
 ---------------------------------------------------------------------
      1          6           0       -0.247192    0.311961    0.600563
      2          6           0        0.225486   -0.344929   -0.456179
      3         17           0        0.760814   -1.976918   -0.302679
      4         17           0        0.350583    0.335466   -2.030791
      5         17           0       -0.802055    1.937066    0.545355
      6          1           0       -0.303936   -0.164746    1.571232
 ---------------------------------------------------------------------
                    Distance matrix (angstroms):
                    1          2          3          4          5
     1  C    0.000000
     2  C    1.331027   0.000000
     3  Cl   2.659114   1.724392   0.000000
     4  Cl   2.698502   1.719881   2.915781   0.000000
     5  Cl   1.718105   2.695627   4.298952   3.245031   0.000000
     6  H    1.082898   2.103128   2.815884   3.695021   2.391267
                    6
     6  H    0.000000
 Stoichiometry    C2HCl3
 Framework group  C1[X(C2HCl3)]
 Deg. of freedom    12
 Full point group                 C1      NOp   1
 Largest Abelian subgroup         C1      NOp   1
 Largest concise Abelian subgroup C1      NOp   1
                         Standard orientation:                         
 ---------------------------------------------------------------------
 Center     Atomic      Atomic             Coordinates (Angstroms)
 Number     Number       Type             X           Y           Z
 ---------------------------------------------------------------------
      1          6           0       -0.634452   -0.913777   -0.000176
      2          6           0        0.429483   -0.113981   -0.000300
      3         17           0        2.021162   -0.777372    0.000084
      4         17           0        0.337883    1.603459    0.000011
      5         17           0       -2.256118   -0.346254    0.000075
      6          1           0       -0.519954   -1.990605   -0.000037
 ---------------------------------------------------------------------
 Rotational constants (GHZ):      3.9071411      1.5214991      1.0950646
 Standard basis: 6-31+G(d) (6D, 7F)
 There are   109 symmetry adapted cartesian basis functions of A   symmetry.
 There are   109 symmetry adapted basis functions of A   symmetry.
   109 basis functions,   236 primitive gaussians,   109 cartesian basis functions
    32 alpha electrons       32 beta electrons
       nuclear repulsion energy       317.7233907176 Hartrees.
 NAtoms=    6 NActive=    6 NUniq=    6 SFac= 1.00D+00 NAtFMM=   60 NAOKFM=F Big=F
 Integral buffers will be    131072 words long.
 Raffenetti 2 integral format.
 Two-electron integral symmetry is turned on.
 One-electron integrals computed using PRISM.
 NBasis=   109 RedAO= T EigKep=  3.35D-05  NBF=   109
 NBsUse=   109 1.00D-06 EigRej= -1.00D+00 NBFU=   109
 Initial guess from the checkpoint file:  "/srv/scratch/z5358697/gauss/Gau-749796.chk"
 B after Tr=     0.000000    0.000000    0.000000
         Rot=    0.999999    0.000000    0.000000   -0.001075 Ang=  -0.12 deg.
 ExpMin= 4.38D-02 ExpMax= 2.52D+04 ExpMxC= 3.78D+03 IAcc=2 IRadAn=         4 AccDes= 0.00D+00
 Harris functional with IExCor= 1009 and IRadAn=       4 diagonalized for initial guess.
 HarFok:  IExCor= 1009 AccDes= 0.00D+00 IRadAn=         4 IDoV= 1 UseB2=F ITyADJ=14
 ICtDFT=  3500011 ScaDFX=  1.000000  1.000000  1.000000  1.000000
 FoFCou: FMM=F IPFlag=           0 FMFlag=      100000 FMFlg1=           0
         NFxFlg=           0 DoJE=T BraDBF=F KetDBF=T FulRan=T
         wScrn=  0.000000 ICntrl=     500 IOpCl=  0 I1Cent=   200000004 NGrid=           0
         NMat0=    1 NMatS0=      1 NMatT0=    0 NMatD0=    1 NMtDS0=    0 NMtDT0=    0
 Petite list used in FoFCou.
 Keep R1 ints in memory in canonical form, NReq=18960552.
 Requested convergence on RMS density matrix=1.00D-08 within 128 cycles.
 Requested convergence on MAX density matrix=1.00D-06.
 Requested convergence on             energy=1.00D-06.
 No special actions if energy rises.
 SCF Done:  E(RM062X) =  -1457.24108695     A.U. after   10 cycles
            NFock= 10  Conv=0.88D-08     -V/T= 2.0030
 Calling FoFJK, ICntrl=      2127 FMM=F ISym2X=0 I1Cent= 0 IOpClX= 0 NMat=1 NMatS=1 NMatT=0.
 ***** Axes restored to original set *****
 -------------------------------------------------------------------
 Center     Atomic                   Forces (Hartrees/Bohr)
 Number     Number              X              Y              Z
 -------------------------------------------------------------------
      1        6          -0.000341064    0.000352554    0.000950859
      2        6          -0.000095632    0.001925942   -0.002339955
      3       17           0.000490228   -0.001632612    0.000291090
      4       17          -0.000059515   -0.000486969    0.000937354
      5       17           0.000064203   -0.000288591    0.000133545
      6        1          -0.000058220    0.000129676    0.000027105
 -------------------------------------------------------------------
 Cartesian Forces:  Max     0.002339955 RMS     0.000899831

 GradGradGradGradGradGradGradGradGradGradGradGradGradGradGradGradGradGrad
 Berny optimization.
 Using GEDIIS/GDIIS optimizer.
 FormGI is forming the generalized inverse of G from B-inverse, IUseBI=4.
 Internal  Forces:  Max     0.001730522 RMS     0.000627421
 Search for a local minimum.
 Step number   3 out of a maximum of   25
 All quantities printed in internal units (Hartrees-Bohrs-Radians)
 Mixed Optimization -- En-DIIS/RFO-DIIS
 Update second derivatives using D2CorX and points    1    2    3
 DE= -1.22D-04 DEPred=-1.02D-04 R= 1.20D+00
 TightC=F SS=  1.41D+00  RLast= 3.42D-02 DXNew= 5.4204D-01 1.0268D-01
 Trust test= 1.20D+00 RLast= 3.42D-02 DXMaxT set to 3.22D-01
 The second derivative matrix:
                          R1        R2        R3        R4        R5
           R1           0.59209
           R2          -0.00250   0.34320
           R3           0.00027   0.00012   0.35630
           R4           0.00483  -0.00333   0.00040   0.32244
           R5           0.00509  -0.00047  -0.00075   0.02001   0.30066
           A1           0.00998  -0.00113  -0.00030   0.01734  -0.01597
           A2           0.00539  -0.00231  -0.00066   0.01573  -0.01269
           A3          -0.01924   0.00404   0.00031  -0.02540   0.01461
           A4           0.00955  -0.00467  -0.00136   0.03047  -0.02446
           A5          -0.01498   0.00734   0.00189  -0.04340   0.03228
           A6           0.00542  -0.00267  -0.00054   0.01293  -0.00782
           D1           0.00021   0.00002   0.00002  -0.00013   0.00023
           D2          -0.00007  -0.00001  -0.00001   0.00008  -0.00012
           D3           0.00012   0.00000   0.00001  -0.00001   0.00008
           D4          -0.00016  -0.00003  -0.00003   0.00020  -0.00027
                          A1        A2        A3        A4        A5
           A1           0.24373
           A2          -0.00826   0.15641
           A3           0.00022   0.00384   0.17414
           A4          -0.01667  -0.00628   0.00877   0.23922
           A5           0.02116   0.00660  -0.00816   0.01082   0.24120
           A6          -0.00449  -0.00032  -0.00061  -0.00004  -0.00202
           D1           0.00037   0.00006  -0.00051   0.00005  -0.00007
           D2          -0.00016  -0.00003   0.00021  -0.00004   0.00004
           D3           0.00016   0.00003  -0.00025   0.00003  -0.00004
           D4          -0.00037  -0.00006   0.00048  -0.00006   0.00007
                          A6        D1        D2        D3        D4
           A6           0.25206
           D1           0.00002   0.02942
           D2          -0.00001   0.00000   0.02941
           D3           0.00002   0.00000   0.00000   0.02941
           D4          -0.00001  -0.00001   0.00000   0.00000   0.02941
 ITU=  1  1  0
 Use linear search instead of GDIIS.
     Eigenvalues ---    0.02941   0.02941   0.02942   0.13363   0.18937
     Eigenvalues ---    0.24455   0.25109   0.31958   0.33915   0.35439
     Eigenvalues ---    0.35658   0.59451
 RFO step:  Lambda=-1.54449874D-05 EMin= 2.94051318D-02
 Quartic linear search produced a step of  0.18675.
 Iteration  1 RMS(Cart)=  0.00243704 RMS(Int)=  0.00000410
 Iteration  2 RMS(Cart)=  0.00000578 RMS(Int)=  0.00000013
 Iteration  3 RMS(Cart)=  0.00000000 RMS(Int)=  0.00000013
 Variable       Old X    -DE/DX   Delta X   Delta X   Delta X     New X
                                 (Linear)    (Quad)   (Total)
    R1        2.51528   0.00109   0.00005   0.00198   0.00202   2.51730
    R2        3.24675  -0.00029  -0.00024  -0.00066  -0.00091   3.24584
    R3        2.04638  -0.00004  -0.00012  -0.00004  -0.00016   2.04622
    R4        3.25863   0.00173   0.00214   0.00437   0.00650   3.26513
    R5        3.25010  -0.00106  -0.00223  -0.00247  -0.00470   3.24540
    A1        2.16034   0.00010  -0.00257   0.00194  -0.00063   2.15971
    A2        2.10948   0.00012  -0.00145   0.00128  -0.00017   2.10931
    A3        2.01337  -0.00022   0.00402  -0.00322   0.00080   2.01416
    A4        2.10209  -0.00050  -0.00160  -0.00204  -0.00364   2.09845
    A5        2.16212   0.00042   0.00191   0.00192   0.00384   2.16596
    A6        2.01897   0.00008  -0.00031   0.00012  -0.00019   2.01878
    D1        3.14117   0.00002  -0.00016   0.00115   0.00099  -3.14103
    D2        0.00017  -0.00001   0.00004  -0.00046  -0.00042  -0.00025
    D3       -0.00022   0.00001  -0.00009   0.00055   0.00046   0.00024
    D4       -3.14122  -0.00002   0.00012  -0.00107  -0.00095   3.14102
         Item               Value     Threshold  Converged?
 Maximum Force            0.001731     0.000450     NO 
 RMS     Force            0.000627     0.000300     NO 
 Maximum Displacement     0.004672     0.001800     NO 
 RMS     Displacement     0.002436     0.001200     NO 
 Predicted change in Energy=-1.125452D-05
 GradGradGradGradGradGradGradGradGradGradGradGradGradGradGradGradGradGrad

                          Input orientation:                          
 ---------------------------------------------------------------------
 Center     Atomic      Atomic             Coordinates (Angstroms)
 Number     Number       Type             X           Y           Z
 ---------------------------------------------------------------------
      1          6           0       -0.247276    0.312927    0.600803
      2          6           0        0.225691   -0.342456   -0.458091
      3         17           0        0.760506   -1.977946   -0.301383
      4         17           0        0.351262    0.333709   -2.031772
      5         17           0       -0.802924    1.937319    0.547460
      6          1           0       -0.303558   -0.165653    1.570483
 ---------------------------------------------------------------------
                    Distance matrix (angstroms):
                    1          2          3          4          5
     1  C    0.000000
     2  C    1.332097   0.000000
     3  Cl   2.660388   1.727834   0.000000
     4  Cl   2.699839   1.717393   2.916415   0.000000
     5  Cl   1.717626   2.695656   4.300482   3.249023   0.000000
     6  H    1.082814   2.103920   2.814342   3.695186   2.391325
                    6
     6  H    0.000000
 Stoichiometry    C2HCl3
 Framework group  C1[X(C2HCl3)]
 Deg. of freedom    12
 Full point group                 C1      NOp   1
 Largest Abelian subgroup         C1      NOp   1
 Largest concise Abelian subgroup C1      NOp   1
                         Standard orientation:                         
 ---------------------------------------------------------------------
 Center     Atomic      Atomic             Coordinates (Angstroms)
 Number     Number       Type             X           Y           Z
 ---------------------------------------------------------------------
      1          6           0       -0.636399   -0.912494    0.000229
      2          6           0        0.427701   -0.111137    0.000408
      3         17           0        2.020702   -0.780285   -0.000109
      4         17           0        0.341338    1.604083   -0.000019
      5         17           0       -2.257746   -0.345509   -0.000096
      6          1           0       -0.520801   -1.989121   -0.000014
 ---------------------------------------------------------------------
 Rotational constants (GHZ):      3.9020412      1.5201887      1.0939851
 Standard basis: 6-31+G(d) (6D, 7F)
 There are   109 symmetry adapted cartesian basis functions of A   symmetry.
 There are   109 symmetry adapted basis functions of A   symmetry.
   109 basis functions,   236 primitive gaussians,   109 cartesian basis functions
    32 alpha electrons       32 beta electrons
       nuclear repulsion energy       317.6031511209 Hartrees.
 NAtoms=    6 NActive=    6 NUniq=    6 SFac= 1.00D+00 NAtFMM=   60 NAOKFM=F Big=F
 Integral buffers will be    131072 words long.
 Raffenetti 2 integral format.
 Two-electron integral symmetry is turned on.
 One-electron integrals computed using PRISM.
 NBasis=   109 RedAO= T EigKep=  3.38D-05  NBF=   109
 NBsUse=   109 1.00D-06 EigRej= -1.00D+00 NBFU=   109
 Initial guess from the checkpoint file:  "/srv/scratch/z5358697/gauss/Gau-749796.chk"
 B after Tr=     0.000000    0.000000    0.000000
         Rot=    1.000000    0.000000    0.000000    0.000544 Ang=   0.06 deg.
 Keep R1 ints in memory in canonical form, NReq=18960552.
 Requested convergence on RMS density matrix=1.00D-08 within 128 cycles.
 Requested convergence on MAX density matrix=1.00D-06.
 Requested convergence on             energy=1.00D-06.
 No special actions if energy rises.
 SCF Done:  E(RM062X) =  -1457.24109925     A.U. after   10 cycles
            NFock= 10  Conv=0.26D-08     -V/T= 2.0030
 Calling FoFJK, ICntrl=      2127 FMM=F ISym2X=0 I1Cent= 0 IOpClX= 0 NMat=1 NMatS=1 NMatT=0.
 ***** Axes restored to original set *****
 -------------------------------------------------------------------
 Center     Atomic                   Forces (Hartrees/Bohr)
 Number     Number              X              Y              Z
 -------------------------------------------------------------------
      1        6           0.000162507   -0.000277117   -0.000299688
      2        6          -0.000211524    0.000643188   -0.000288374
      3       17           0.000140803   -0.000419965    0.000103601
      4       17          -0.000054956   -0.000004206    0.000330574
      5       17           0.000010366   -0.000069777    0.000094568
      6        1          -0.000047196    0.000127878    0.000059319
 -------------------------------------------------------------------
 Cartesian Forces:  Max     0.000643188 RMS     0.000246066

 GradGradGradGradGradGradGradGradGradGradGradGradGradGradGradGradGradGrad
 Berny optimization.
 Using GEDIIS/GDIIS optimizer.
 FormGI is forming the generalized inverse of G from B-inverse, IUseBI=4.
 Internal  Forces:  Max     0.000458195 RMS     0.000185964
 Search for a local minimum.
 Step number   4 out of a maximum of   25
 All quantities printed in internal units (Hartrees-Bohrs-Radians)
 Mixed Optimization -- En-DIIS/RFO-DIIS
 Swapping is turned off.
 Update second derivatives using D2CorX and points    1    2    3    4
 DE= -1.23D-05 DEPred=-1.13D-05 R= 1.09D+00
 TightC=F SS=  1.41D+00  RLast= 1.00D-02 DXNew= 5.4204D-01 3.0106D-02
 Trust test= 1.09D+00 RLast= 1.00D-02 DXMaxT set to 3.22D-01
 The second derivative matrix:
                          R1        R2        R3        R4        R5
           R1           0.62668
           R2          -0.00290   0.34200
           R3          -0.00002   0.00002   0.35630
           R4           0.00790   0.00410   0.00130   0.27464
           R5           0.00074  -0.00464  -0.00133   0.04946   0.28105
           A1           0.00216   0.00073   0.00005   0.00811  -0.01037
           A2          -0.00957   0.00039  -0.00028  -0.00141  -0.00156
           A3          -0.00224  -0.00042  -0.00033  -0.00707   0.00640
           A4          -0.00034  -0.00569  -0.00170   0.03956  -0.03231
           A5           0.01025   0.00564   0.00190  -0.03728   0.03127
           A6          -0.00991   0.00005  -0.00020  -0.00229   0.00103
           D1           0.00268  -0.00026  -0.00002   0.00152  -0.00089
           D2          -0.00116   0.00011   0.00001  -0.00066   0.00039
           D3           0.00120  -0.00012  -0.00001   0.00068  -0.00039
           D4          -0.00265   0.00025   0.00002  -0.00150   0.00088
                          A1        A2        A3        A4        A5
           A1           0.24513
           A2          -0.00828   0.15757
           A3          -0.00170   0.00425   0.17087
           A4          -0.01547   0.00068   0.01133   0.23669
           A5           0.01980  -0.00189  -0.01276   0.00887   0.24875
           A6          -0.00433   0.00121   0.00144   0.00444  -0.00762
           D1           0.00008  -0.00051   0.00004  -0.00080   0.00139
           D2          -0.00003   0.00021  -0.00003   0.00034  -0.00059
           D3           0.00002  -0.00023   0.00002  -0.00035   0.00061
           D4          -0.00009   0.00049  -0.00006   0.00079  -0.00138
                          A6        D1        D2        D3        D4
           A6           0.25318
           D1          -0.00059   0.02955
           D2           0.00025  -0.00006   0.02943
           D3          -0.00026   0.00006  -0.00003   0.02943
           D4           0.00058  -0.00014   0.00006  -0.00006   0.02954
 ITU=  1  1  1  0
     Eigenvalues ---    0.02941   0.02941   0.02961   0.14092   0.16670
     Eigenvalues ---    0.23352   0.25665   0.30334   0.32777   0.34272
     Eigenvalues ---    0.35637   0.62763
 En-DIIS/RFO-DIIS IScMMF=        0 using points:     4    3
 RFO step:  Lambda=-1.06490315D-06.
 DidBck=F Rises=F RFO-DIIS coefs:    1.19679   -0.19679
 Iteration  1 RMS(Cart)=  0.00086732 RMS(Int)=  0.00000070
 Iteration  2 RMS(Cart)=  0.00000084 RMS(Int)=  0.00000021
 Variable       Old X    -DE/DX   Delta X   Delta X   Delta X     New X
                                 (Linear)    (Quad)   (Total)
    R1        2.51730  -0.00027   0.00040  -0.00082  -0.00043   2.51687
    R2        3.24584  -0.00006  -0.00018  -0.00008  -0.00026   3.24559
    R3        2.04622  -0.00001  -0.00003  -0.00002  -0.00005   2.04618
    R4        3.26513   0.00046   0.00128   0.00087   0.00215   3.26729
    R5        3.24540  -0.00032  -0.00093  -0.00071  -0.00163   3.24377
    A1        2.15971   0.00001  -0.00012   0.00000  -0.00012   2.15959
    A2        2.10931   0.00017  -0.00003   0.00106   0.00103   2.11034
    A3        2.01416  -0.00018   0.00016  -0.00106  -0.00091   2.01326
    A4        2.09845  -0.00010  -0.00072  -0.00028  -0.00100   2.09744
    A5        2.16596  -0.00011   0.00076  -0.00060   0.00016   2.16612
    A6        2.01878   0.00021  -0.00004   0.00088   0.00084   2.01962
    D1       -3.14103  -0.00003   0.00019  -0.00143  -0.00124   3.14092
    D2       -0.00025   0.00001  -0.00008   0.00062   0.00054   0.00029
    D3        0.00024  -0.00001   0.00009  -0.00063  -0.00054  -0.00030
    D4        3.14102   0.00003  -0.00019   0.00142   0.00123  -3.14093
         Item               Value     Threshold  Converged?
 Maximum Force            0.000458     0.000450     NO 
 RMS     Force            0.000186     0.000300     YES
 Maximum Displacement     0.001302     0.001800     YES
 RMS     Displacement     0.000868     0.001200     YES
 Predicted change in Energy=-1.164556D-06
 GradGradGradGradGradGradGradGradGradGradGradGradGradGradGradGradGradGrad

                          Input orientation:                          
 ---------------------------------------------------------------------
 Center     Atomic      Atomic             Coordinates (Angstroms)
 Number     Number       Type             X           Y           Z
 ---------------------------------------------------------------------
      1          6           0       -0.247459    0.312622    0.600337
      2          6           0        0.225003   -0.342309   -0.458780
      3         17           0        0.761004   -1.978488   -0.300759
      4         17           0        0.351195    0.334219   -2.031312
      5         17           0       -0.802527    1.937090    0.547655
      6          1           0       -0.303515   -0.165234    1.570359
 ---------------------------------------------------------------------
                    Distance matrix (angstroms):
                    1          2          3          4          5
     1  C    0.000000
     2  C    1.331872   0.000000
     3  Cl   2.660480   1.728974   0.000000
     4  Cl   2.698968   1.716529   2.917425   0.000000
     5  Cl   1.717490   2.695252   4.300719   3.248282   0.000000
     6  H    1.082789   2.104303   2.814635   3.694609   2.390545
                    6
     6  H    0.000000
 Stoichiometry    C2HCl3
 Framework group  C1[X(C2HCl3)]
 Deg. of freedom    12
 Full point group                 C1      NOp   1
 Largest Abelian subgroup         C1      NOp   1
 Largest concise Abelian subgroup C1      NOp   1
                         Standard orientation:                         
 ---------------------------------------------------------------------
 Center     Atomic      Atomic             Coordinates (Angstroms)
 Number     Number       Type             X           Y           Z
 ---------------------------------------------------------------------
      1          6           0       -0.635708   -0.912240   -0.000278
      2          6           0        0.427511   -0.110087   -0.000483
      3         17           0        2.021478   -0.779878    0.000131
      4         17           0        0.339959    1.604207    0.000021
      5         17           0       -2.257351   -0.346516    0.000116
      6          1           0       -0.520281   -1.988859   -0.000004
 ---------------------------------------------------------------------
 Rotational constants (GHZ):      3.9018409      1.5201824      1.0939662
 Standard basis: 6-31+G(d) (6D, 7F)
 There are   109 symmetry adapted cartesian basis functions of A   symmetry.
 There are   109 symmetry adapted basis functions of A   symmetry.
   109 basis functions,   236 primitive gaussians,   109 cartesian basis functions
    32 alpha electrons       32 beta electrons
       nuclear repulsion energy       317.6037509847 Hartrees.
 NAtoms=    6 NActive=    6 NUniq=    6 SFac= 1.00D+00 NAtFMM=   60 NAOKFM=F Big=F
 Integral buffers will be    131072 words long.
 Raffenetti 2 integral format.
 Two-electron integral symmetry is turned on.
 One-electron integrals computed using PRISM.
 NBasis=   109 RedAO= T EigKep=  3.38D-05  NBF=   109
 NBsUse=   109 1.00D-06 EigRej= -1.00D+00 NBFU=   109
 Initial guess from the checkpoint file:  "/srv/scratch/z5358697/gauss/Gau-749796.chk"
 B after Tr=     0.000000    0.000000    0.000000
         Rot=    1.000000    0.000000    0.000000   -0.000242 Ang=  -0.03 deg.
 Keep R1 ints in memory in canonical form, NReq=18960552.
 Requested convergence on RMS density matrix=1.00D-08 within 128 cycles.
 Requested convergence on MAX density matrix=1.00D-06.
 Requested convergence on             energy=1.00D-06.
 No special actions if energy rises.
 SCF Done:  E(RM062X) =  -1457.24110064     A.U. after    9 cycles
            NFock=  9  Conv=0.40D-08     -V/T= 2.0030
 Calling FoFJK, ICntrl=      2127 FMM=F ISym2X=0 I1Cent= 0 IOpClX= 0 NMat=1 NMatS=1 NMatT=0.
 ***** Axes restored to original set *****
 -------------------------------------------------------------------
 Center     Atomic                   Forces (Hartrees/Bohr)
 Number     Number              X              Y              Z
 -------------------------------------------------------------------
      1        6           0.000061635   -0.000138990   -0.000039406
      2        6           0.000057085    0.000025423   -0.000015341
      3       17          -0.000017324    0.000006458   -0.000027936
      4       17          -0.000030251    0.000021360    0.000000171
      5       17          -0.000044250    0.000057367    0.000064292
      6        1          -0.000026895    0.000028382    0.000018221
 -------------------------------------------------------------------
 Cartesian Forces:  Max     0.000138990 RMS     0.000048618

 GradGradGradGradGradGradGradGradGradGradGradGradGradGradGradGradGradGrad
 Berny optimization.
 Using GEDIIS/GDIIS optimizer.
 FormGI is forming the generalized inverse of G from B-inverse, IUseBI=4.
 Internal  Forces:  Max     0.000085839 RMS     0.000037461
 Search for a local minimum.
 Step number   5 out of a maximum of   25
 All quantities printed in internal units (Hartrees-Bohrs-Radians)
 Mixed Optimization -- En-DIIS/RFO-DIIS
 Swapping is turned off.
 Update second derivatives using D2CorX and points    1    2    3    4    5
 DE= -1.38D-06 DEPred=-1.16D-06 R= 1.19D+00
 TightC=F SS=  1.41D+00  RLast= 3.85D-03 DXNew= 5.4204D-01 1.1553D-02
 Trust test= 1.19D+00 RLast= 3.85D-03 DXMaxT set to 3.22D-01
 The second derivative matrix:
                          R1        R2        R3        R4        R5
           R1           0.64681
           R2          -0.00057   0.34974
           R3          -0.00021   0.00021   0.35627
           R4           0.01216  -0.01380   0.00200   0.27953
           R5           0.00460   0.00622  -0.00195   0.05041   0.27902
           A1           0.01006   0.00274   0.00001   0.00237  -0.00724
           A2          -0.00617  -0.00160  -0.00015  -0.00852   0.00242
           A3          -0.01763  -0.00072  -0.00073   0.00861  -0.00498
           A4           0.00645  -0.00411  -0.00218   0.04670  -0.03599
           A5           0.00232   0.00916   0.00223  -0.04381   0.03466
           A6          -0.00878  -0.00505  -0.00004  -0.00288   0.00133
           D1           0.00623   0.00298   0.00008  -0.00688   0.00507
           D2          -0.00266  -0.00126  -0.00003   0.00287  -0.00213
           D3           0.00278   0.00130   0.00003  -0.00302   0.00223
           D4          -0.00611  -0.00293  -0.00008   0.00674  -0.00497
                          A1        A2        A3        A4        A5
           A1           0.24129
           A2          -0.01405   0.15120
           A3           0.00210   0.01486   0.16224
           A4          -0.01575   0.00249   0.00784   0.23729
           A5           0.02491   0.00081  -0.01871   0.00706   0.24979
           A6          -0.00916  -0.00330   0.01088   0.00565  -0.00684
           D1           0.00147  -0.00155  -0.00063   0.00119   0.00193
           D2          -0.00064   0.00063   0.00028  -0.00050  -0.00081
           D3           0.00063  -0.00070  -0.00028   0.00053   0.00084
           D4          -0.00148   0.00148   0.00064  -0.00116  -0.00189
                          A6        D1        D2        D3        D4
           A6           0.25119
           D1          -0.00311   0.03113
           D2           0.00131  -0.00074   0.02972
           D3          -0.00138   0.00076  -0.00032   0.02974
           D4           0.00305  -0.00170   0.00073  -0.00075   0.03108
 ITU=  1  1  1  1  0
     Eigenvalues ---    0.02941   0.02941   0.03200   0.13736   0.14435
     Eigenvalues ---    0.22459   0.25717   0.31106   0.32910   0.35633
     Eigenvalues ---    0.36035   0.64869
 En-DIIS/RFO-DIIS IScMMF=        0 using points:     5    4    3
 RFO step:  Lambda=-5.91349110D-08.
 DidBck=F Rises=F RFO-DIIS coefs:    0.96061    0.06390   -0.02452
 Iteration  1 RMS(Cart)=  0.00050416 RMS(Int)=  0.00000029
 Iteration  2 RMS(Cart)=  0.00000028 RMS(Int)=  0.00000015
 Variable       Old X    -DE/DX   Delta X   Delta X   Delta X     New X
                                 (Linear)    (Quad)   (Total)
    R1        2.51687   0.00001   0.00007  -0.00010  -0.00003   2.51684
    R2        3.24559   0.00008  -0.00001   0.00020   0.00019   3.24578
    R3        2.04618   0.00000   0.00000  -0.00001  -0.00001   2.04616
    R4        3.26729  -0.00001   0.00007   0.00004   0.00011   3.26740
    R5        3.24377   0.00000  -0.00005  -0.00004  -0.00009   3.24367
    A1        2.15959   0.00004  -0.00001   0.00018   0.00017   2.15976
    A2        2.11034   0.00004  -0.00004   0.00044   0.00039   2.11073
    A3        2.01326  -0.00009   0.00006  -0.00062  -0.00057   2.01269
    A4        2.09744  -0.00002  -0.00005  -0.00004  -0.00009   2.09736
    A5        2.16612   0.00001   0.00009  -0.00011  -0.00002   2.16609
    A6        2.01962   0.00001  -0.00004   0.00015   0.00011   2.01974
    D1        3.14092   0.00004   0.00007   0.00109   0.00116  -3.14111
    D2        0.00029  -0.00002  -0.00003  -0.00046  -0.00049  -0.00020
    D3       -0.00030   0.00002   0.00003   0.00048   0.00051   0.00021
    D4       -3.14093  -0.00004  -0.00007  -0.00106  -0.00114   3.14112
         Item               Value     Threshold  Converged?
 Maximum Force            0.000086     0.000450     YES
 RMS     Force            0.000037     0.000300     YES
 Maximum Displacement     0.001273     0.001800     YES
 RMS     Displacement     0.000504     0.001200     YES
 Predicted change in Energy=-1.019878D-07
 Optimization completed.
    -- Stationary point found.
                           ----------------------------
                           !   Optimized Parameters   !
                           ! (Angstroms and Degrees)  !
 --------------------------                            --------------------------
 ! Name  Definition              Value          Derivative Info.                !
 --------------------------------------------------------------------------------
 ! R1    R(1,2)                  1.3319         -DE/DX =    0.0                 !
 ! R2    R(1,5)                  1.7175         -DE/DX =    0.0001              !
 ! R3    R(1,6)                  1.0828         -DE/DX =    0.0                 !
 ! R4    R(2,3)                  1.729          -DE/DX =    0.0                 !
 ! R5    R(2,4)                  1.7165         -DE/DX =    0.0                 !
 ! A1    A(2,1,5)              123.7353         -DE/DX =    0.0                 !
 ! A2    A(2,1,6)              120.9135         -DE/DX =    0.0                 !
 ! A3    A(5,1,6)              115.3512         -DE/DX =   -0.0001              !
 ! A4    A(1,2,3)              120.1747         -DE/DX =    0.0                 !
 ! A5    A(1,2,4)              124.1093         -DE/DX =    0.0                 !
 ! A6    A(3,2,4)              115.716          -DE/DX =    0.0                 !
 ! D1    D(5,1,2,3)           -180.0386         -DE/DX =    0.0                 !
 ! D2    D(5,1,2,4)              0.0164         -DE/DX =    0.0                 !
 ! D3    D(6,1,2,3)             -0.0171         -DE/DX =    0.0                 !
 ! D4    D(6,1,2,4)            180.0379         -DE/DX =    0.0                 !
 --------------------------------------------------------------------------------
 GradGradGradGradGradGradGradGradGradGradGradGradGradGradGradGradGradGrad

                          Input orientation:                          
 ---------------------------------------------------------------------
 Center     Atomic      Atomic             Coordinates (Angstroms)
 Number     Number       Type             X           Y           Z
 ---------------------------------------------------------------------
      1          6           0       -0.247459    0.312622    0.600337
      2          6           0        0.225003   -0.342309   -0.458780
      3         17           0        0.761004   -1.978488   -0.300759
      4         17           0        0.351195    0.334219   -2.031312
      5         17           0       -0.802527    1.937090    0.547655
      6          1           0       -0.303515   -0.165234    1.570359
 ---------------------------------------------------------------------
                    Distance matrix (angstroms):
                    1          2          3          4          5
     1  C    0.000000
     2  C    1.331872   0.000000
     3  Cl   2.660480   1.728974   0.000000
     4  Cl   2.698968   1.716529   2.917425   0.000000
     5  Cl   1.717490   2.695252   4.300719   3.248282   0.000000
     6  H    1.082789   2.104303   2.814635   3.694609   2.390545
                    6
     6  H    0.000000
 Stoichiometry    C2HCl3
 Framework group  C1[X(C2HCl3)]
 Deg. of freedom    12
 Full point group                 C1      NOp   1
 Largest Abelian subgroup         C1      NOp   1
 Largest concise Abelian subgroup C1      NOp   1
                         Standard orientation:                         
 ---------------------------------------------------------------------
 Center     Atomic      Atomic             Coordinates (Angstroms)
 Number     Number       Type             X           Y           Z
 ---------------------------------------------------------------------
      1          6           0       -0.635708   -0.912240   -0.000278
      2          6           0        0.427511   -0.110087   -0.000483
      3         17           0        2.021478   -0.779878    0.000131
      4         17           0        0.339959    1.604207    0.000021
      5         17           0       -2.257351   -0.346516    0.000116
      6          1           0       -0.520281   -1.988859   -0.000004
 ---------------------------------------------------------------------
 Rotational constants (GHZ):      3.9018409      1.5201824      1.0939662

 **********************************************************************

            Population analysis using the SCF density.

 **********************************************************************

 Orbital symmetries:
       Occupied  (A) (A) (A) (A) (A) (A) (A) (A) (A) (A) (A) (A)
                 (A) (A) (A) (A) (A) (A) (A) (A) (A) (A) (A) (A)
                 (A) (A) (A) (A) (A) (A) (A) (A)
       Virtual   (A) (A) (A) (A) (A) (A) (A) (A) (A) (A) (A) (A)
                 (A) (A) (A) (A) (A) (A) (A) (A) (A) (A) (A) (A)
                 (A) (A) (A) (A) (A) (A) (A) (A) (A) (A) (A) (A)
                 (A) (A) (A) (A) (A) (A) (A) (A) (A) (A) (A) (A)
                 (A) (A) (A) (A) (A) (A) (A) (A) (A) (A) (A) (A)
                 (A) (A) (A) (A) (A) (A) (A) (A) (A) (A) (A) (A)
                 (A) (A) (A) (A) (A)
 The electronic state is 1-A.
 Alpha  occ. eigenvalues -- -102.70366-102.70352-102.69701 -10.69114 -10.64252
 Alpha  occ. eigenvalues --   -9.85041  -9.85036  -9.84369  -7.57478  -7.57475
 Alpha  occ. eigenvalues --   -7.56796  -7.56755  -7.56737  -7.56735  -7.56729
 Alpha  occ. eigenvalues --   -7.56102  -7.56066  -1.05300  -0.98736  -0.95420
 Alpha  occ. eigenvalues --   -0.83645  -0.66297  -0.58878  -0.56392  -0.50937
 Alpha  occ. eigenvalues --   -0.49290  -0.43518  -0.42489  -0.41143  -0.40574
 Alpha  occ. eigenvalues --   -0.38912  -0.31795
 Alpha virt. eigenvalues --   -0.00225   0.00962   0.01430   0.03201   0.04593
 Alpha virt. eigenvalues --    0.04824   0.06244   0.06801   0.08575   0.09598
 Alpha virt. eigenvalues --    0.09838   0.09985   0.11871   0.13009   0.13446
 Alpha virt. eigenvalues --    0.14177   0.14482   0.15201   0.15635   0.17365
 Alpha virt. eigenvalues --    0.18881   0.20563   0.23482   0.24194   0.28920
 Alpha virt. eigenvalues --    0.34039   0.53161   0.55301   0.56196   0.60982
 Alpha virt. eigenvalues --    0.61073   0.61482   0.63305   0.63624   0.66655
 Alpha virt. eigenvalues --    0.68025   0.68475   0.70063   0.70472   0.71744
 Alpha virt. eigenvalues --    0.77756   0.82035   0.82064   0.85856   0.88966
 Alpha virt. eigenvalues --    0.90494   0.90923   0.91344   0.91654   0.92090
 Alpha virt. eigenvalues --    0.94061   0.95145   0.98499   1.01208   1.06023
 Alpha virt. eigenvalues --    1.11082   1.13009   1.15650   1.20949   1.22390
 Alpha virt. eigenvalues --    1.35890   1.43716   1.49177   1.64181   1.91433
 Alpha virt. eigenvalues --    1.98488   1.99662   2.09158   2.31234   2.32766
 Alpha virt. eigenvalues --    2.61292   2.68280   4.08155   4.20836   4.40535
 Alpha virt. eigenvalues --    4.42800   4.48300
          Condensed to atoms (all electrons):
               1          2          3          4          5          6
     1  C    5.853552   0.216244  -0.017228  -0.109920   0.231246   0.387210
     2  C    0.216244   5.650420   0.121108   0.196848  -0.116479  -0.063602
     3  Cl  -0.017228   0.121108  16.831412  -0.033439   0.005092   0.001538
     4  Cl  -0.109920   0.196848  -0.033439  16.758687   0.039023   0.003395
     5  Cl   0.231246  -0.116479   0.005092   0.039023  16.822110  -0.034641
     6  H    0.387210  -0.063602   0.001538   0.003395  -0.034641   0.431025
 Mulliken charges:
               1
     1  C   -0.561103
     2  C   -0.004540
     3  Cl   0.091516
     4  Cl   0.145406
     5  Cl   0.053648
     6  H    0.275074
 Sum of Mulliken charges =   0.00000
 Mulliken charges with hydrogens summed into heavy atoms:
               1
     1  C   -0.286030
     2  C   -0.004540
     3  Cl   0.091516
     4  Cl   0.145406
     5  Cl   0.053648
 Electronic spatial extent (au):  <R**2>=            920.0144
 Charge=              0.0000 electrons
 Dipole moment (field-independent basis, Debye):
    X=              0.0265    Y=             -0.9891    Z=              0.0003  Tot=              0.9894
 Quadrupole moment (field-independent basis, Debye-Ang):
   XX=            -50.3581   YY=            -46.2832   ZZ=            -50.4716
   XY=             -0.0344   XZ=              0.0001   YZ=             -0.0001
 Traceless Quadrupole moment (field-independent basis, Debye-Ang):
   XX=             -1.3205   YY=              2.7545   ZZ=             -1.4340
   XY=             -0.0344   XZ=              0.0001   YZ=             -0.0001
 Octapole moment (field-independent basis, Debye-Ang**2):
  XXX=              1.7710  YYY=              1.5110  ZZZ=              0.0035  XYY=             -0.6101
  XXY=              0.8387  XXZ=              0.0051  XZZ=              0.3775  YZZ=              1.3034
  YYZ=              0.0041  XYZ=             -0.0009
 Hexadecapole moment (field-independent basis, Debye-Ang**3):
 XXXX=           -736.2849 YYYY=           -312.4485 ZZZZ=            -57.5123 XXXY=            -19.0113
 XXXZ=              0.0028 YYYX=              2.1317 YYYZ=              0.0029 ZZZX=              0.0001
 ZZZY=             -0.0020 XXYY=           -186.8776 XXZZ=           -142.7483 YYZZ=            -69.1658
 XXYZ=             -0.0036 YYXZ=              0.0020 ZZXY=             -0.3963
 N-N= 3.176037509847D+02 E-N=-4.093563178745D+03  KE= 1.452936716462D+03
 1\1\GINC-KATANA1\FOpt\RM062X\6-31+G(d)\C2H1Cl3\Z5358697\14-Mar-2025\0\
 \#m062X/6-31+G(d) OPT Freq=noraman\\1,1,2-trichloroethylene\\0,1\C,-0.
 2474592847,0.312622059,0.6003368392\C,0.2250025292,-0.3423085636,-0.45
 87800069\Cl,0.7610036733,-1.9784876244,-0.3007591099\Cl,0.3511947545,0
 .3342187067,-2.0313119181\Cl,-0.8025269455,1.9370897314,0.54765471\H,-
 0.3035147269,-0.1652343091,1.5703594856\\Version=ES64L-G09RevD.01\Stat
 e=1-A\HF=-1457.2411006\RMSD=4.004e-09\RMSF=4.862e-05\Dipole=-0.0319611
 ,-0.145188,0.3597717\Quadrupole=-1.0293761,-0.604542,1.6339181,0.07151
 2,-0.2680828,-1.011643\PG=C01 [X(C2H1Cl3)]\\@


 COLLEGE PROFESSOR: SOMEONE WHO TALKS IN OTHER PEOPLE'S SLEEP.
 Job cpu time:       0 days  0 hours  0 minutes 53.7 seconds.
 File lengths (MBytes):  RWF=    132 Int=      0 D2E=      0 Chk=      3 Scr=      2
 Normal termination of Gaussian 09 at Fri Mar 14 14:08:00 2025.
 Link1:  Proceeding to internal job step number  2.
 ---------------------------------------------------------------------
 #N Geom=AllCheck Guess=TCheck SCRF=Check GenChk RM062X/6-31+G(d) Freq
 ---------------------------------------------------------------------
 1/10=4,29=7,30=1,38=1,40=1/1,3;
 2/12=2,40=1/2;
 3/5=1,6=6,7=11,11=2,14=-4,16=1,25=1,30=1,70=2,71=2,74=-55,116=1,140=1/1,2,3;
 4/5=101/1;
 5/5=2,98=1/2;
 8/6=4,10=90,11=11/1;
 11/6=1,8=1,9=11,15=111,16=1/1,2,10;
 10/6=1/2;
 6/7=2,8=2,9=2,10=2,18=1,28=1/1;
 7/8=1,10=1,25=1/1,2,3,16;
 1/10=4,30=1/3;
 99//99;
 Structure from the checkpoint file:  "/srv/scratch/z5358697/gauss/Gau-749796.chk"
 -----------------------
 1,1,2-trichloroethylene
 -----------------------
 Charge =  0 Multiplicity = 1
 Redundant internal coordinates found in file.
 C,0,-0.2474592847,0.312622059,0.6003368392
 C,0,0.2250025292,-0.3423085636,-0.4587800069
 Cl,0,0.7610036733,-1.9784876244,-0.3007591099
 Cl,0,0.3511947545,0.3342187067,-2.0313119181
 Cl,0,-0.8025269455,1.9370897314,0.54765471
 H,0,-0.3035147269,-0.1652343091,1.5703594856
 Recover connectivity data from disk.

 GradGradGradGradGradGradGradGradGradGradGradGradGradGradGradGradGradGrad
 Berny optimization.
 Initialization pass.
                           ----------------------------
                           !    Initial Parameters    !
                           ! (Angstroms and Degrees)  !
 --------------------------                            --------------------------
 ! Name  Definition              Value          Derivative Info.                !
 --------------------------------------------------------------------------------
 ! R1    R(1,2)                  1.3319         calculate D2E/DX2 analytically  !
 ! R2    R(1,5)                  1.7175         calculate D2E/DX2 analytically  !
 ! R3    R(1,6)                  1.0828         calculate D2E/DX2 analytically  !
 ! R4    R(2,3)                  1.729          calculate D2E/DX2 analytically  !
 ! R5    R(2,4)                  1.7165         calculate D2E/DX2 analytically  !
 ! A1    A(2,1,5)              123.7353         calculate D2E/DX2 analytically  !
 ! A2    A(2,1,6)              120.9135         calculate D2E/DX2 analytically  !
 ! A3    A(5,1,6)              115.3512         calculate D2E/DX2 analytically  !
 ! A4    A(1,2,3)              120.1747         calculate D2E/DX2 analytically  !
 ! A5    A(1,2,4)              124.1093         calculate D2E/DX2 analytically  !
 ! A6    A(3,2,4)              115.716          calculate D2E/DX2 analytically  !
 ! D1    D(5,1,2,3)            179.9614         calculate D2E/DX2 analytically  !
 ! D2    D(5,1,2,4)              0.0164         calculate D2E/DX2 analytically  !
 ! D3    D(6,1,2,3)             -0.0171         calculate D2E/DX2 analytically  !
 ! D4    D(6,1,2,4)           -179.9621         calculate D2E/DX2 analytically  !
 --------------------------------------------------------------------------------
 Trust Radius=3.00D-01 FncErr=1.00D-07 GrdErr=1.00D-07
 Number of steps in this run=      2 maximum allowed number of steps=      2.
 GradGradGradGradGradGradGradGradGradGradGradGradGradGradGradGradGradGrad

                          Input orientation:                          
 ---------------------------------------------------------------------
 Center     Atomic      Atomic             Coordinates (Angstroms)
 Number     Number       Type             X           Y           Z
 ---------------------------------------------------------------------
      1          6           0       -0.247459    0.312622    0.600337
      2          6           0        0.225003   -0.342309   -0.458780
      3         17           0        0.761004   -1.978488   -0.300759
      4         17           0        0.351195    0.334219   -2.031312
      5         17           0       -0.802527    1.937090    0.547655
      6          1           0       -0.303515   -0.165234    1.570359
 ---------------------------------------------------------------------
                    Distance matrix (angstroms):
                    1          2          3          4          5
     1  C    0.000000
     2  C    1.331872   0.000000
     3  Cl   2.660480   1.728974   0.000000
     4  Cl   2.698968   1.716529   2.917425   0.000000
     5  Cl   1.717490   2.695252   4.300719   3.248282   0.000000
     6  H    1.082789   2.104303   2.814635   3.694609   2.390545
                    6
     6  H    0.000000
 Stoichiometry    C2HCl3
 Framework group  C1[X(C2HCl3)]
 Deg. of freedom    12
 Full point group                 C1      NOp   1
 Largest Abelian subgroup         C1      NOp   1
 Largest concise Abelian subgroup C1      NOp   1
                         Standard orientation:                         
 ---------------------------------------------------------------------
 Center     Atomic      Atomic             Coordinates (Angstroms)
 Number     Number       Type             X           Y           Z
 ---------------------------------------------------------------------
      1          6           0       -0.635708   -0.912240   -0.000278
      2          6           0        0.427511   -0.110087   -0.000483
      3         17           0        2.021478   -0.779878    0.000131
      4         17           0        0.339959    1.604207    0.000021
      5         17           0       -2.257351   -0.346516    0.000116
      6          1           0       -0.520281   -1.988859   -0.000004
 ---------------------------------------------------------------------
 Rotational constants (GHZ):      3.9018409      1.5201824      1.0939662
 Standard basis: 6-31+G(d) (6D, 7F)
 There are   109 symmetry adapted cartesian basis functions of A   symmetry.
 There are   109 symmetry adapted basis functions of A   symmetry.
   109 basis functions,   236 primitive gaussians,   109 cartesian basis functions
    32 alpha electrons       32 beta electrons
       nuclear repulsion energy       317.6037509847 Hartrees.
 NAtoms=    6 NActive=    6 NUniq=    6 SFac= 1.00D+00 NAtFMM=   60 NAOKFM=F Big=F
 Integral buffers will be    131072 words long.
 Raffenetti 2 integral format.
 Two-electron integral symmetry is turned on.
 One-electron integrals computed using PRISM.
 NBasis=   109 RedAO= T EigKep=  3.38D-05  NBF=   109
 NBsUse=   109 1.00D-06 EigRej= -1.00D+00 NBFU=   109
 Initial guess from the checkpoint file:  "/srv/scratch/z5358697/gauss/Gau-749796.chk"
 B after Tr=     0.000000    0.000000    0.000000
         Rot=    1.000000    0.000000    0.000000    0.000000 Ang=   0.00 deg.
 Keep R1 ints in memory in canonical form, NReq=18960552.
 Requested convergence on RMS density matrix=1.00D-08 within 128 cycles.
 Requested convergence on MAX density matrix=1.00D-06.
 Requested convergence on             energy=1.00D-06.
 No special actions if energy rises.
 SCF Done:  E(RM062X) =  -1457.24110064     A.U. after    1 cycles
            NFock=  1  Conv=0.13D-08     -V/T= 2.0030
 DoSCS=F DFT=T ScalE2(SS,OS)=  1.000000  1.000000
 Range of M.O.s used for correlation:     1   109
 NBasis=   109 NAE=    32 NBE=    32 NFC=     0 NFV=     0
 NROrb=    109 NOA=    32 NOB=    32 NVA=    77 NVB=    77

 **** Warning!!: The largest alpha MO coefficient is  0.93120263D+02

 Symmetrizing basis deriv contribution to polar:
 IMax=3 JMax=2 DiffMx= 0.00D+00
 G2DrvN: will do     7 centers at a time, making    1 passes.
 Calling FoFCou, ICntrl=  3107 FMM=F I1Cent=   0 AccDes= 0.00D+00.
 End of G2Drv F.D. properties file   721 does not exist.
 End of G2Drv F.D. properties file   722 does not exist.
 End of G2Drv F.D. properties file   788 does not exist.
          IDoAtm=111111
          Differentiating once with respect to electric field.
                with respect to dipole field.
          Differentiating once with respect to nuclear coordinates.
 Keep R1 ints in memory in canonical form, NReq=18905640.
[...]
 N-N= 3.176037509847D+02 E-N=-4.093563178379D+03  KE= 1.452936716315D+03
  Exact polarizability:  80.215   1.061  59.913  -0.001   0.001  34.102
 Approx polarizability:  91.025   1.251  72.265  -0.003   0.002  40.518
 Calling FoFJK, ICntrl=    100127 FMM=F ISym2X=0 I1Cent= 0 IOpClX= 0 NMat=1 NMatS=1 NMatT=0.
 Full mass-weighted force constant matrix:
 Low frequencies ---  -41.6385  -12.4041   -8.2017    0.0053    0.0058    0.0064
 Low frequencies ---  177.0578  188.2254  279.8647
 Diagonal vibrational polarizability:
        4.8990544       4.5818083       2.0468037
 Harmonic frequencies (cm**-1), IR intensities (KM/Mole), Raman scattering
 activities (A**4/AMU), depolarization ratios for plane and unpolarized
 incident light, reduced masses (AMU), force constants (mDyne/A),
 and normal coordinates:
                      1                      2                      3
                      A                      A                      A
 Frequencies --    177.0510               188.1725               279.8647
 Red. masses --     25.9668                 6.7512                22.4569
 Frc consts  --      0.4796                 0.1408                 1.0363
 IR Inten    --      0.8919                 0.4911                 0.3416
  Atom  AN      X      Y      Z        X      Y      Z        X      Y      Z
     1   6    -0.02   0.25   0.00     0.00   0.00   0.52    -0.28  -0.16   0.00
     2   6    -0.06   0.31   0.00     0.00   0.00   0.30    -0.15  -0.29   0.00
     3  17    -0.20  -0.08   0.00     0.00   0.00  -0.15     0.14   0.45   0.00
     4  17     0.48   0.35   0.00     0.00   0.00   0.02     0.34  -0.34   0.00
     5  17    -0.26  -0.47   0.00     0.00   0.00  -0.17    -0.32   0.05   0.00
     6   1     0.28   0.28   0.00     0.00   0.00   0.77    -0.44  -0.18   0.00
                      4                      5                      6
                      A                      A                      A
 Frequencies --    391.4991               469.2772               642.9133
 Red. masses --     25.3639                 5.0375                 9.9324
 Frc consts  --      2.2905                 0.6536                 2.4188
 IR Inten    --      0.0825                 4.6285                12.7740
  Atom  AN      X      Y      Z        X      Y      Z        X      Y      Z
     1   6    -0.05   0.35   0.00     0.00   0.00  -0.22     0.15   0.56   0.00
     2   6     0.26   0.04   0.00     0.00   0.00   0.55     0.24   0.29   0.00
     3  17     0.58  -0.25   0.00     0.00   0.00  -0.04    -0.11   0.04   0.00
     4  17    -0.18   0.09   0.00     0.00   0.00  -0.07    -0.03  -0.30   0.00
     5  17    -0.47   0.01   0.00     0.00   0.00   0.02     0.00  -0.04   0.00
     6   1    -0.20   0.33   0.00     0.00   0.00  -0.80     0.26   0.59   0.00
                      7                      8                      9
                      A                      A                      A
 Frequencies --    831.8654               857.1815               951.1340
 Red. masses --      1.3194                 9.4401                 6.3607
 Frc consts  --      0.5379                 4.0867                 3.3903
 IR Inten    --     28.4901               115.6364               107.7115
  Atom  AN      X      Y      Z        X      Y      Z        X      Y      Z
     1   6     0.00   0.00   0.16     0.55  -0.31   0.00     0.15  -0.20   0.00
     2   6     0.00   0.00  -0.06     0.39  -0.05   0.00    -0.38   0.47   0.00
     3  17     0.00   0.00   0.01    -0.13   0.03   0.00     0.08  -0.04   0.00
     4  17     0.00   0.00   0.00    -0.01   0.02   0.00     0.02  -0.09   0.00
     5  17     0.00   0.00  -0.01    -0.21   0.08   0.00    -0.03   0.04   0.00
     6   1     0.00   0.00  -0.99     0.51  -0.33   0.00     0.73  -0.14   0.00
                     10                     11                     12
                      A                      A                      A
 Frequencies --   1292.4586              1701.4965              3268.3079
 Red. masses --      1.1771                 9.3819                 1.0931
 Frc consts  --      1.1585                16.0031                 6.8792
 IR Inten    --     10.3237                11.0309                17.2036
  Atom  AN      X      Y      Z        X      Y      Z        X      Y      Z
     1   6     0.06  -0.04   0.00     0.53   0.30   0.00     0.00  -0.09   0.00
     2   6     0.02   0.10   0.00    -0.50  -0.38   0.00     0.01   0.00   0.00
     3  17     0.00   0.00   0.00     0.02   0.00   0.00     0.00   0.00   0.00
     4  17     0.00  -0.01   0.00     0.00   0.02   0.00     0.00   0.00   0.00
     5  17     0.00  -0.01   0.00    -0.02   0.00   0.00     0.00   0.00   0.00
     6   1    -0.98  -0.14   0.00    -0.38   0.31   0.00    -0.09   0.99   0.00

 -------------------
 - Thermochemistry -
 -------------------
 Temperature   298.150 Kelvin.  Pressure   1.00000 Atm.
 Atom     1 has atomic number  6 and mass  12.00000
 Atom     2 has atomic number  6 and mass  12.00000
 Atom     3 has atomic number 17 and mass  34.96885
 Atom     4 has atomic number 17 and mass  34.96885
 Atom     5 has atomic number 17 and mass  34.96885
 Atom     6 has atomic number  1 and mass   1.00783
 Molecular mass:   129.91438 amu.
 Principal axes and moments of inertia in atomic units:
                           1         2         3
     Eigenvalues --   462.535821187.187281649.72307
           X            0.99998   0.00631   0.00000
           Y           -0.00631   0.99998   0.00000
           Z            0.00000   0.00000   1.00000
 This molecule is an asymmetric top.
 Rotational symmetry number  1.
 Warning -- assumption of classical behavior for rotation
           may cause significant error
 Rotational temperatures (Kelvin)      0.18726     0.07296     0.05250
 Rotational constants (GHZ):           3.90184     1.52018     1.09397
 Zero-point vibrational energy      66101.0 (Joules/Mol)
                                   15.79851 (Kcal/Mol)
 Warning -- explicit consideration of   5 degrees of freedom as
           vibrations may cause significant error
 Vibrational temperatures:    254.74   270.74   402.66   563.28   675.18
          (Kelvin)            925.01  1196.87  1233.29  1368.47  1859.56
                             2448.07  4702.36
 
 Zero-point correction=                           0.025177 (Hartree/Particle)
 Thermal correction to Energy=                    0.030527
 Thermal correction to Enthalpy=                  0.031471
 Thermal correction to Gibbs Free Energy=        -0.005373
 Sum of electronic and zero-point Energies=          -1457.215924
 Sum of electronic and thermal Energies=             -1457.210574
 Sum of electronic and thermal Enthalpies=           -1457.209630
 Sum of electronic and thermal Free Energies=        -1457.246473
 
                     E (Thermal)             CV                S
                      KCal/Mol        Cal/Mol-Kelvin    Cal/Mol-Kelvin
 Total                   19.156             16.931             77.544
 Electronic               0.000              0.000              0.000
 Translational            0.889              2.981             40.498
 Rotational               0.889              2.981             28.295
 Vibrational             17.378             10.969              8.750
 Vibration     1          0.628              1.871              2.359
 Vibration     2          0.633              1.856              2.246
 Vibration     3          0.680              1.711              1.535
 Vibration     4          0.759              1.488              0.994
 Vibration     5          0.826              1.318              0.740
                       Q            Log10(Q)             Ln(Q)
 Total Bot       0.295988D+03          2.471275          5.690320
 Total V=0       0.112630D+15         14.051652         32.355125
 Vib (Bot)       0.149262D-10        -10.826051        -24.927903
 Vib (Bot)    1  0.113557D+01          0.055214          0.127134
 Vib (Bot)    2  0.106430D+01          0.027066          0.062322
 Vib (Bot)    3  0.687030D+00         -0.163024         -0.375377
 Vib (Bot)    4  0.458081D+00         -0.339058         -0.780709
 Vib (Bot)    5  0.359653D+00         -0.444116         -1.022616
 Vib (V=0)       0.567972D+01          0.754327          1.736902
 Vib (V=0)    1  0.174077D+01          0.240742          0.554329
 Vib (V=0)    2  0.167590D+01          0.224248          0.516351
 Vib (V=0)    3  0.134971D+01          0.130241          0.299891
 Vib (V=0)    4  0.117811D+01          0.071187          0.163915
 Vib (V=0)    5  0.111591D+01          0.047631          0.109674
 Electronic      0.100000D+01          0.000000          0.000000
 Translational   0.582024D+08          7.764941         17.879438
 Rotational      0.340709D+06          5.532384         12.738785
 ***** Axes restored to original set *****
 -------------------------------------------------------------------
 Center     Atomic                   Forces (Hartrees/Bohr)
 Number     Number              X              Y              Z
 -------------------------------------------------------------------
      1        6           0.000061638   -0.000138993   -0.000039406
      2        6           0.000057085    0.000025427   -0.000015343
      3       17          -0.000017325    0.000006458   -0.000027936
      4       17          -0.000030252    0.000021359    0.000000172
      5       17          -0.000044251    0.000057366    0.000064292
      6        1          -0.000026895    0.000028382    0.000018221
 -------------------------------------------------------------------
 Cartesian Forces:  Max     0.000138993 RMS     0.000048619
 FormGI is forming the generalized inverse of G from B-inverse, IUseBI=4.

 GradGradGradGradGradGradGradGradGradGradGradGradGradGradGradGradGradGrad
 Berny optimization.
 Internal  Forces:  Max     0.000085840 RMS     0.000037461
 Search for a local minimum.
 Step number   1 out of a maximum of    2
 All quantities printed in internal units (Hartrees-Bohrs-Radians)
 Second derivative matrix not updated -- analytic derivatives used.
 The second derivative matrix:
                          R1        R2        R3        R4        R5
           R1           0.64721
           R2           0.02561   0.26850
           R3           0.00308   0.00494   0.37532
           R4           0.02371   0.00340  -0.00056   0.25100
           R5           0.02518   0.00161  -0.00095   0.02866   0.26505
           A1           0.02822   0.02631  -0.00599   0.00313  -0.00318
           A2           0.00170  -0.03720   0.00721  -0.00067   0.00519
           A3          -0.02992   0.01089  -0.00122  -0.00246  -0.00201
           A4           0.00756   0.00760  -0.00358   0.03118  -0.04319
           A5           0.02577  -0.00484   0.00326  -0.04421   0.02708
           A6          -0.03333  -0.00277   0.00032   0.01303   0.01611
           D1           0.00002   0.00000   0.00000  -0.00001   0.00001
           D2          -0.00001   0.00001   0.00000  -0.00002  -0.00001
           D3           0.00001  -0.00001   0.00000   0.00000   0.00002
           D4          -0.00002   0.00000   0.00000  -0.00001  -0.00001
                          A1        A2        A3        A4        A5
           A1           0.13450
           A2          -0.06576   0.09363
           A3          -0.06874  -0.02788   0.09662
           A4          -0.00870   0.00518   0.00353   0.14250
           A5           0.02296  -0.00765  -0.01531  -0.07465   0.15529
           A6          -0.01426   0.00247   0.01179  -0.06785  -0.08064
           D1           0.00000   0.00000   0.00000   0.00001   0.00001
           D2           0.00000   0.00000   0.00000   0.00000  -0.00003
           D3           0.00000  -0.00001   0.00000   0.00001   0.00001
           D4          -0.00001  -0.00001   0.00001   0.00000  -0.00003
                          A6        D1        D2        D3        D4
           A6           0.14849
           D1           0.00000   0.03188
           D2           0.00001   0.00353   0.02770
           D3           0.00000   0.00882  -0.01423   0.02584
           D4           0.00001  -0.01952   0.00994   0.00278   0.03224
 ITU=  0
     Eigenvalues ---    0.02497   0.03821   0.05448   0.11224   0.14167
     Eigenvalues ---    0.18625   0.21836   0.28396   0.29683   0.30255
     Eigenvalues ---    0.37594   0.66029
 Angle between quadratic step and forces=  28.99 degrees.
 Linear search not attempted -- first point.
 Iteration  1 RMS(Cart)=  0.00038173 RMS(Int)=  0.00000014
 Iteration  2 RMS(Cart)=  0.00000014 RMS(Int)=  0.00000006
 Variable       Old X    -DE/DX   Delta X   Delta X   Delta X     New X
                                 (Linear)    (Quad)   (Total)
    R1        2.51687   0.00001   0.00000  -0.00004  -0.00004   2.51684
    R2        3.24559   0.00008   0.00000   0.00038   0.00038   3.24596
    R3        2.04618   0.00000   0.00000  -0.00003  -0.00003   2.04615
    R4        3.26729  -0.00001   0.00000  -0.00002  -0.00002   3.26726
    R5        3.24377   0.00000   0.00000  -0.00004  -0.00004   3.24373
    A1        2.15959   0.00004   0.00000   0.00015   0.00015   2.15974
    A2        2.11034   0.00004   0.00000   0.00054   0.00054   2.11087
    A3        2.01326  -0.00009   0.00000  -0.00069  -0.00069   2.01257
    A4        2.09744  -0.00002   0.00000  -0.00010  -0.00010   2.09735
    A5        2.16612   0.00001   0.00000   0.00001   0.00001   2.16612
    A6        2.01962   0.00001   0.00000   0.00009   0.00009   2.01971
    D1        3.14092   0.00004   0.00000   0.00075   0.00075  -3.14151
    D2        0.00029  -0.00002   0.00000  -0.00027  -0.00027   0.00001
    D3       -0.00030   0.00002   0.00000   0.00034   0.00034   0.00004
    D4       -3.14093  -0.00004   0.00000  -0.00069  -0.00069   3.14157
         Item               Value     Threshold  Converged?
 Maximum Force            0.000086     0.000450     YES
 RMS     Force            0.000037     0.000300     YES
 Maximum Displacement     0.000849     0.001800     YES
 RMS     Displacement     0.000382     0.001200     YES
 Predicted change in Energy=-9.363921D-08
 Optimization completed.
    -- Stationary point found.
                           ----------------------------
                           !   Optimized Parameters   !
                           ! (Angstroms and Degrees)  !
 --------------------------                            --------------------------
 ! Name  Definition              Value          Derivative Info.                !
 --------------------------------------------------------------------------------
 ! R1    R(1,2)                  1.3319         -DE/DX =    0.0                 !
 ! R2    R(1,5)                  1.7175         -DE/DX =    0.0001              !
 ! R3    R(1,6)                  1.0828         -DE/DX =    0.0                 !
 ! R4    R(2,3)                  1.729          -DE/DX =    0.0                 !
 ! R5    R(2,4)                  1.7165         -DE/DX =    0.0                 !
 ! A1    A(2,1,5)              123.7353         -DE/DX =    0.0                 !
 ! A2    A(2,1,6)              120.9135         -DE/DX =    0.0                 !
 ! A3    A(5,1,6)              115.3512         -DE/DX =   -0.0001              !
 ! A4    A(1,2,3)              120.1747         -DE/DX =    0.0                 !
 ! A5    A(1,2,4)              124.1093         -DE/DX =    0.0                 !
 ! A6    A(3,2,4)              115.716          -DE/DX =    0.0                 !
 ! D1    D(5,1,2,3)           -180.0386         -DE/DX =    0.0                 !
 ! D2    D(5,1,2,4)              0.0164         -DE/DX =    0.0                 !
 ! D3    D(6,1,2,3)             -0.0171         -DE/DX =    0.0                 !
 ! D4    D(6,1,2,4)            180.0379         -DE/DX =    0.0                 !
 --------------------------------------------------------------------------------
 GradGradGradGradGradGradGradGradGradGradGradGradGradGradGradGradGradGrad

 1\1\GINC-KATANA1\Freq\RM062X\6-31+G(d)\C2H1Cl3\Z5358697\14-Mar-2025\0\
 \#N Geom=AllCheck Guess=TCheck SCRF=Check GenChk RM062X/6-31+G(d) Freq
 \\1,1,2-trichloroethylene\\0,1\C,-0.2474592847,0.312622059,0.600336839
 2\C,0.2250025292,-0.3423085636,-0.4587800069\Cl,0.7610036733,-1.978487
 6244,-0.3007591099\Cl,0.3511947545,0.3342187067,-2.0313119181\Cl,-0.80
 25269455,1.9370897314,0.54765471\H,-0.3035147269,-0.1652343091,1.57035
 94856\\Version=ES64L-G09RevD.01\State=1-A\HF=-1457.2411006\RMSD=1.333e
 -09\RMSF=4.862e-05\ZeroPoint=0.0251765\Thermal=0.0305267\Dipole=-0.031
 961,-0.145188,0.3597716\DipoleDeriv=-0.021519,-0.2539028,-0.0763397,-0
 .3307447,0.6213631,0.3007845,0.0397196,-0.0320253,-0.2510067,0.0484177
 ,-0.2654693,-0.0770431,-0.2379531,0.8906685,-0.4135606,-0.1176922,-0.2
 959909,0.8976276,-0.0780817,0.2197493,0.0127286,0.2319616,-0.695654,0.
 0510711,-0.0064655,0.10572,-0.1308463,0.0000137,0.0298104,0.0422461,0.
 0061125,-0.17544,0.2703296,0.0778408,0.1675461,-0.5721055,-0.103895,0.
 2065091,0.0746713,0.2576408,-0.6196565,-0.2009713,-0.002585,0.0203955,
 -0.0342732,0.1550643,0.0633033,0.0237368,0.072983,-0.0212811,-0.007653
 2,0.0091824,0.0343545,0.090604\Polar=40.8724452,-14.3147142,72.2902598
 ,-7.6843294,4.2222459,61.067186\PG=C01 [X(C2H1Cl3)]\NImag=0\\0.1833429
 8,-0.15477512,0.49897705,-0.17447345,0.05038108,0.77116277,-0.11480846
 ,0.08934848,0.14362427,0.17593292,0.08946774,-0.18379203,-0.18656798,-
 0.15199988,0.42614282,0.14338067,-0.18593757,-0.39145266,-0.17095870,0
 .14005942,0.61343577,0.00026580,0.01698872,-0.00004459,-0.03786388,0.0
 4934143,0.00433570,0.03410282,0.01276961,-0.03090511,0.00092428,0.0523
 1433,-0.16676909,-0.00355504,-0.07261870,0.22571456,0.00639241,-0.0174
 7680,0.00497107,-0.00020524,0.00943030,-0.03298621,-0.00189820,-0.0150
 0222,0.03924690,0.00522649,-0.00354051,0.01167047,-0.02759658,-0.00041
 767,0.01344926,0.00333402,0.00547360,-0.00612867,0.01704708,0.00165164
 ,0.00322307,-0.00194650,-0.00422960,-0.05288528,0.06114570,0.00362366,
 -0.02449757,0.02725561,-0.00326829,0.07268481,0.00381484,0.02058149,-0
 .04105568,0.01921928,0.04457536,-0.17555562,-0.00332415,0.01923742,-0.
 01093083,-0.02270456,-0.07981268,0.23015004,-0.03851774,0.05572061,0.0
 0079517,-0.00048925,0.01725095,0.00044758,0.00357586,0.00296997,0.0020
 6206,-0.00312039,-0.00011020,0.00016459,0.03703323,0.05598491,-0.18654
 268,0.01113881,0.01281033,-0.03181432,0.00110779,0.00313082,-0.0024051
 5,-0.00221679,-0.00112407,0.00099688,-0.00134085,-0.08031390,0.2407426
 9,0.00040378,0.01224308,-0.03929886,0.00717243,-0.01814600,0.00201462,
 0.00181928,-0.00152262,-0.00050571,0.00171206,-0.00576160,-0.00181327,
 -0.00434271,-0.00416360,0.03324109,-0.03550907,-0.00374218,0.01842813,
 0.00482525,-0.00364256,0.00934549,-0.00341461,-0.00090881,-0.00022236,
 0.00510938,0.00233278,0.00282999,0.00151830,0.00951191,-0.00676485,0.0
 2747077,-0.00509877,-0.10096029,0.12607031,0.00175633,0.00911788,-0.01
 282031,-0.00046593,-0.00113764,-0.00199009,0.00287694,0.00047808,-0.00
 324075,0.00448257,-0.02097743,0.01735075,-0.00355114,0.11347939,0.0204
 8175,0.12020871,-0.30432664,0.00114795,0.01064890,-0.01545590,-0.00088
 805,-0.00008182,0.00020477,0.00200145,-0.00088053,-0.00079465,0.000873
 31,-0.00452536,0.00636212,-0.02361640,-0.12536991,0.31401029\\-0.00006
 164,0.00013899,0.00003941,-0.00005709,-0.00002543,0.00001534,0.0000173
 2,-0.00000646,0.00002794,0.00003025,-0.00002136,-0.00000017,0.00004425
 ,-0.00005737,-0.00006429,0.00002690,-0.00002838,-0.00001822\\\@


 IN THE LONG RUN, DIGGING FOR TRUTH HAS ALWAYS PROVED NOT ONLY 
 MORE INTERESTING BUT MORE PROFITABLE THAN DIGGING FOR GOLD.

                             -- GEORGE R. HARRISON
 Job cpu time:       0 days  0 hours  0 minutes 39.4 seconds.
 File lengths (MBytes):  RWF=    132 Int=      0 D2E=      0 Chk=      3 Scr=      2
 Normal termination of Gaussian 09 at Fri Mar 14 14:08:41 2025.
