 Entering Gaussian System, Link 0=g09
 Initial command:
 /apps/z_install_tree/linux-rocky8-ivybridge/gcc-12.2.0/gaussian-09-D.01-wczn3gur5lpur3omlkzwa2l5ecyxp5ef/g09/l1.exe "/srv/scratch/z5358697/gauss/Gau-51449.inp" -scrdir="/srv/scratch/z5358697/gauss/"
 Entering Link 1 = /apps/z_install_tree/linux-rocky8-ivybridge/gcc-12.2.0/gaussian-09-D.01-wczn3gur5lpur3omlkzwa2l5ecyxp5ef/g09/l1.exe PID=     51451.
  
 Copyright (c) 1988,1990,1992,1993,1995,1998,2003,2009,2013,
            Gaussian, Inc.  All Rights Reserved.
  
 This is part of the Gaussian(R) 09 program.  It is based on
 the Gaussian(R) 03 system (copyright 2003, Gaussian, Inc.),
 the Gaussian(R) 98 system (copyright 1998, Gaussian, Inc.),
 the Gaussian(R) 94 system (copyright 1995, Gaussian, Inc.),
 the Gaussian 92(TM) system (copyright 1992, Gaussian, Inc.),
 the Gaussian 90(TM) system (copyright 1990, Gaussian, Inc.),
 the Gaussian 88(TM) system (copyright 1988, Gaussian, Inc.),
 the Gaussian 86(TM) system (copyright 1986, Carnegie Mellon
 University), and the Gaussian 82(TM) system (copyright 1983,
 Carnegie Mellon University). Gaussian is a federally registered
 trademark of Gaussian, Inc.
  
 This software contains proprietary and confidential information,
 including trade secrets, belonging to Gaussian, Inc.
  
 This software is provided under written license and may be
 used, copied, transmitted, or stored only in accord with that
 written license.
  
 The following legend is applicable only to US Government
 contracts under FAR:
  
                    RESTRICTED RIGHTS LEGEND
  
 Use, reproduction and disclosure by the US Government is
 subject to restrictions as set forth in subparagraphs (a)
 and (c) of the Commercial Computer Software - Restricted
 Rights clause in FAR 52.227-19.
  
 Gaussian, Inc.
 340 Quinnipiac St., Bldg. 40, Wallingford CT 06492
  
  
 ---------------------------------------------------------------
 Warning -- This program may not be used in any manner that
 competes with the business of Gaussian, Inc. or will provide
 assistance to any competitor of Gaussian, Inc.  The licensee
 of this program is prohibited from giving any competitor of
 Gaussian, Inc. access to this program.  By using this program,
 the user acknowledges that Gaussian, Inc. is engaged in the
 business of creating and licensing software in the field of
 computational chemistry and represents and warrants to the
 licensee that it is not a competitor of Gaussian, Inc. and that
 it will not use this program in any manner prohibited above.
 ---------------------------------------------------------------
  

 Cite this work as:
 Gaussian 09, Revision D.01,
 M. J. Frisch, G. W. Trucks, H. B. Schlegel, G. E. Scuseria, 
 M. A. Robb, J. R. Cheeseman, G. Scalmani, V. Barone, B. Mennucci, 
 G. A. Petersson, H. Nakatsuji, M. Caricato, X. Li, H. P. Hratchian, 
 A. F. Izmaylov, J. Bloino, G. Zheng, J. L. Sonnenberg, M. Hada, 
 M. Ehara, K. Toyota, R. Fukuda, J. Hasegawa, M. Ishida, T. Nakajima, 
 Y. Honda, O. Kitao, H. Nakai, T. Vreven, J. A. Montgomery, Jr., 
 J. E. Peralta, F. Ogliaro, M. Bearpark, J. J. Heyd, E. Brothers, 
 K. N. Kudin, V. N. Staroverov, T. Keith, R. Kobayashi, J. Normand, 
 K. Raghavachari, A. Rendell, J. C. Burant, S. S. Iyengar, J. Tomasi, 
 M. Cossi, N. Rega, J. M. Millam, M. Klene, J. E. Knox, J. B. Cross, 
 V. Bakken, C. Adamo, J. Jaramillo, R. Gomperts, R. E. Stratmann, 
 O. Yazyev, A. J. Austin, R. Cammi, C. Pomelli, J. W. Ochterski, 
 R. L. Martin, K. Morokuma, V. G. Zakrzewski, G. A. Voth, 
 P. Salvador, J. J. Dannenberg, S. Dapprich, A. D. Daniels, 
 O. Farkas, J. B. Foresman, J. V. Ortiz, J. Cioslowski, 
 and D. J. Fox, Gaussian, Inc., Wallingford CT, 2013.
 
 ******************************************
 Gaussian 09:  ES64L-G09RevD.01 24-Apr-2013
                21-Mar-2025 
 ******************************************
 ---------------------------------
 #m062X/6-31+G(d) OPT Freq=noraman
 ---------------------------------
 1/14=-1,18=20,19=15,26=3,38=1/1,3;
 2/9=110,12=2,17=6,18=5,40=1/2;
 3/5=1,6=6,7=11,11=2,16=1,25=1,30=1,71=1,74=-55/1,2,3;
 4//1;
 5/5=2,38=5/2;
 6/7=2,8=2,9=2,10=2,28=1/1;
 7//1,2,3,16;
 1/14=-1,18=20,19=15,26=3/3(2);
 2/9=110/2;
 99//99;
 2/9=110/2;
 3/5=1,6=6,7=11,11=2,16=1,25=1,30=1,71=1,74=-55/1,2,3;
 4/5=5,16=3,69=1/1;
 5/5=2,38=5/2;
 7//1,2,3,16;
 1/14=-1,18=20,19=15,26=3/3(-5);
 2/9=110/2;
 6/7=2,8=2,9=2,10=2,19=2,28=1/1;
 99/9=1/99;
 -----------------
 2-methylbut-2-ene
 -----------------
 Symbolic Z-matrix:
 Charge =  0 Multiplicity = 1
 C                    -0.9435   -0.41      0.392 
 C                    -1.3569    0.248     1.6461 
 C                    -2.4533   -0.0044    2.3864 
 C                    -2.7323    0.7616    3.6496 
 C                    -3.4775   -1.0459    2.0346 
 H                    -1.3486    0.0987   -0.4963 
 H                     0.1477   -0.4206    0.2574 
 H                    -1.2926   -1.4502    0.323 
 H                    -0.678     1.0254    1.9917 
 H                    -3.3278    1.6534    3.4285 
 H                    -3.2895    0.1376    4.3561 
 H                    -1.8145    1.0901    4.1485 
 H                    -3.2088   -2.0065    2.4865 
 H                    -4.4617   -0.7495    2.412 
 H                    -3.5723   -1.2044    0.9566 
 

 GradGradGradGradGradGradGradGradGradGradGradGradGradGradGradGradGradGrad
 Berny optimization.
 Initialization pass.
                           ----------------------------
                           !    Initial Parameters    !
                           ! (Angstroms and Degrees)  !
 --------------------------                            --------------------------
 ! Name  Definition              Value          Derivative Info.                !
 --------------------------------------------------------------------------------
 ! R1    R(1,2)                  1.4753         estimate D2E/DX2                !
 ! R2    R(1,6)                  1.1009         estimate D2E/DX2                !
 ! R3    R(1,7)                  1.0995         estimate D2E/DX2                !
 ! R4    R(1,8)                  1.0994         estimate D2E/DX2                !
 ! R5    R(2,3)                  1.3468         estimate D2E/DX2                !
 ! R6    R(2,9)                  1.0884         estimate D2E/DX2                !
 ! R7    R(3,4)                  1.5034         estimate D2E/DX2                !
 ! R8    R(3,5)                  1.5025         estimate D2E/DX2                !
 ! R9    R(4,10)                 1.0949         estimate D2E/DX2                !
 ! R10   R(4,11)                 1.095          estimate D2E/DX2                !
 ! R11   R(4,12)                 1.0951         estimate D2E/DX2                !
 ! R12   R(5,13)                 1.0951         estimate D2E/DX2                !
 ! R13   R(5,14)                 1.095          estimate D2E/DX2                !
 ! R14   R(5,15)                 1.0937         estimate D2E/DX2                !
 ! A1    A(2,1,6)              112.1291         estimate D2E/DX2                !
 ! A2    A(2,1,7)              112.7335         estimate D2E/DX2                !
 ! A3    A(2,1,8)              112.7283         estimate D2E/DX2                !
 ! A4    A(6,1,7)              105.7159         estimate D2E/DX2                !
 ! A5    A(6,1,8)              105.6473         estimate D2E/DX2                !
 ! A6    A(7,1,8)              107.3575         estimate D2E/DX2                !
 ! A7    A(1,2,3)              127.718          estimate D2E/DX2                !
 ! A8    A(1,2,9)              114.436          estimate D2E/DX2                !
 ! A9    A(3,2,9)              117.846          estimate D2E/DX2                !
 ! A10   A(2,3,4)              121.1606         estimate D2E/DX2                !
 ! A11   A(2,3,5)              123.7893         estimate D2E/DX2                !
 ! A12   A(4,3,5)              115.0501         estimate D2E/DX2                !
 ! A13   A(3,4,10)             110.2584         estimate D2E/DX2                !
 ! A14   A(3,4,11)             110.2552         estimate D2E/DX2                !
 ! A15   A(3,4,12)             112.3399         estimate D2E/DX2                !
 ! A16   A(10,4,11)            108.5232         estimate D2E/DX2                !
 ! A17   A(10,4,12)            107.6683         estimate D2E/DX2                !
 ! A18   A(11,4,12)            107.6674         estimate D2E/DX2                !
 ! A19   A(3,5,13)             110.1316         estimate D2E/DX2                !
 ! A20   A(3,5,14)             110.1435         estimate D2E/DX2                !
 ! A21   A(3,5,15)             112.9747         estimate D2E/DX2                !
 ! A22   A(13,5,14)            108.4076         estimate D2E/DX2                !
 ! A23   A(13,5,15)            107.5109         estimate D2E/DX2                !
 ! A24   A(14,5,15)            107.5201         estimate D2E/DX2                !
 ! D1    D(6,1,2,3)             90.0088         estimate D2E/DX2                !
 ! D2    D(6,1,2,9)            -89.9905         estimate D2E/DX2                !
 ! D3    D(7,1,2,3)           -150.8199         estimate D2E/DX2                !
 ! D4    D(7,1,2,9)             29.1808         estimate D2E/DX2                !
 ! D5    D(8,1,2,3)            -29.0703         estimate D2E/DX2                !
 ! D6    D(8,1,2,9)            150.9304         estimate D2E/DX2                !
 ! D7    D(1,2,3,4)            179.9978         estimate D2E/DX2                !
 ! D8    D(1,2,3,5)             -0.0085         estimate D2E/DX2                !
 ! D9    D(9,2,3,4)             -0.0029         estimate D2E/DX2                !
 ! D10   D(9,2,3,5)            179.9908         estimate D2E/DX2                !
 ! D11   D(2,3,4,10)            89.997          estimate D2E/DX2                !
 ! D12   D(2,3,4,11)          -150.1908         estimate D2E/DX2                !
 ! D13   D(2,3,4,12)           -30.0986         estimate D2E/DX2                !
 ! D14   D(5,3,4,10)           -89.9973         estimate D2E/DX2                !
 ! D15   D(5,3,4,11)            29.815          estimate D2E/DX2                !
 ! D16   D(5,3,4,12)           149.9072         estimate D2E/DX2                !
 ! D17   D(2,3,5,13)            90.0048         estimate D2E/DX2                !
 ! D18   D(2,3,5,14)          -150.4772         estimate D2E/DX2                !
 ! D19   D(2,3,5,15)           -30.2261         estimate D2E/DX2                !
 ! D20   D(4,3,5,13)           -90.0011         estimate D2E/DX2                !
 ! D21   D(4,3,5,14)            29.5169         estimate D2E/DX2                !
 ! D22   D(4,3,5,15)           149.7679         estimate D2E/DX2                !
 --------------------------------------------------------------------------------
 Trust Radius=3.00D-01 FncErr=1.00D-07 GrdErr=1.00D-06
 Number of steps in this run=     70 maximum allowed number of steps=    100.
 GradGradGradGradGradGradGradGradGradGradGradGradGradGradGradGradGradGrad

                          Input orientation:                          
 ---------------------------------------------------------------------
 Center     Atomic      Atomic             Coordinates (Angstroms)
 Number     Number       Type             X           Y           Z
 ---------------------------------------------------------------------
      1          6           0       -0.943500   -0.410000    0.392000
      2          6           0       -1.356900    0.248000    1.646100
      3          6           0       -2.453300   -0.004400    2.386400
      4          6           0       -2.732300    0.761600    3.649600
      5          6           0       -3.477500   -1.045900    2.034600
      6          1           0       -1.348600    0.098700   -0.496300
      7          1           0        0.147700   -0.420600    0.257400
      8          1           0       -1.292600   -1.450200    0.323000
      9          1           0       -0.678000    1.025400    1.991700
     10          1           0       -3.327800    1.653400    3.428500
     11          1           0       -3.289500    0.137600    4.356100
     12          1           0       -1.814500    1.090100    4.148500
     13          1           0       -3.208800   -2.006500    2.486500
     14          1           0       -4.461700   -0.749500    2.412000
     15          1           0       -3.572300   -1.204400    0.956600
 ---------------------------------------------------------------------
                    Distance matrix (angstroms):
                    1          2          3          4          5
     1  C    0.000000
     2  C    1.475341   0.000000
     3  C    2.534095   1.346790   0.000000
     4  C    3.896718   2.483852   1.503420   0.000000
     5  C    3.086043   2.514369   1.502488   2.535864   0.000000
     6  H    1.100890   2.147612   3.088843   4.420696   3.499683
     7  H    1.099521   2.153912   3.386896   4.604239   4.085525
     8  H    1.099385   2.153744   2.774019   4.246300   2.804785
     9  H    2.165619   1.088437   2.089968   2.652993   3.482718
    10  H    4.377538   3.006085   2.144533   1.094903   3.041642
    11  H    4.638714   3.330350   2.144554   1.094984   2.612543
    12  H    4.137660   2.679652   2.170482   1.095066   3.434623
    13  H    3.473806   3.036211   2.142243   3.040104   1.095064
    14  H    4.071043   3.349835   2.142312   2.608812   1.094958
    15  H    2.803647   2.737311   2.176348   3.438460   1.093706
                    6          7          8          9         10
     6  H    0.000000
     7  H    1.754038   0.000000
     8  H    1.753134   1.771678   0.000000
     9  H    2.738361   2.404266   3.048096   0.000000
    10  H    4.662444   5.141639   4.839267   3.078996   0.000000
    11  H    5.226317   5.378222   4.772276   3.632975   1.777515
    12  H    4.772222   4.612277   4.621683   2.438771   1.767989
    13  H    4.097476   4.330134   2.943132   3.980225   3.781057
    14  H    4.343851   5.098730   3.859805   4.200394   2.844808
    15  H    2.958687   3.865440   2.378844   3.797422   3.786435
                   11         12         13         14         15
    11  H    0.000000
    12  H    1.768044   0.000000
    13  H    2.845889   3.780906   0.000000
    14  H    2.437319   3.661588   1.776333   0.000000
    15  H    3.665725   4.306137   1.765245   1.765264   0.000000
 Stoichiometry    C5H10
 Framework group  C1[X(C5H10)]
 Deg. of freedom    39
 Full point group                 C1      NOp   1
 Largest Abelian subgroup         C1      NOp   1
 Largest concise Abelian subgroup C1      NOp   1
                         Standard orientation:                         
 ---------------------------------------------------------------------
 Center     Atomic      Atomic             Coordinates (Angstroms)
 Number     Number       Type             X           Y           Z
 ---------------------------------------------------------------------
      1          6           0        2.079341   -0.100808   -0.002485
      2          6           0        0.726383   -0.689141   -0.001482
      3          6           0       -0.454041   -0.040728   -0.000322
      4          6           0       -1.755263   -0.793784    0.000547
      5          6           0       -0.585229    1.456022    0.000342
      6          1           0        2.460568    0.064171    1.017028
      7          1           0        2.821658   -0.743202   -0.497704
      8          1           0        2.115023    0.881453   -0.494966
      9          1           0        0.708636   -1.777433   -0.001723
     10          1           0       -2.082511   -0.984015    1.027938
     11          1           0       -2.530259   -0.212055   -0.509319
     12          1           0       -1.677002   -1.760580   -0.507736
     13          1           0       -0.619022    1.831859   -1.027651
     14          1           0       -1.508852    1.753361    0.507731
     15          1           0        0.244618    1.957069    0.506800
 ---------------------------------------------------------------------
 Rotational constants (GHZ):      8.0810110      3.5583171      2.5896937
 Standard basis: 6-31+G(d) (6D, 7F)
 There are   115 symmetry adapted cartesian basis functions of A   symmetry.
 There are   115 symmetry adapted basis functions of A   symmetry.
   115 basis functions,   200 primitive gaussians,   115 cartesian basis functions
    20 alpha electrons       20 beta electrons
       nuclear repulsion energy       174.8383652176 Hartrees.
 NAtoms=   15 NActive=   15 NUniq=   15 SFac= 1.00D+00 NAtFMM=   60 NAOKFM=F Big=F
 Integral buffers will be    131072 words long.
 Raffenetti 2 integral format.
 Two-electron integral symmetry is turned on.
 One-electron integrals computed using PRISM.
 NBasis=   115 RedAO= T EigKep=  2.27D-05  NBF=   115
 NBsUse=   115 1.00D-06 EigRej= -1.00D+00 NBFU=   115
 ExpMin= 4.38D-02 ExpMax= 3.05D+03 ExpMxC= 4.57D+02 IAcc=2 IRadAn=         4 AccDes= 0.00D+00
 Harris functional with IExCor= 1009 and IRadAn=       4 diagonalized for initial guess.
 HarFok:  IExCor= 1009 AccDes= 0.00D+00 IRadAn=         4 IDoV= 1 UseB2=F ITyADJ=14
 ICtDFT=  3500011 ScaDFX=  1.000000  1.000000  1.000000  1.000000
 FoFCou: FMM=F IPFlag=           0 FMFlag=      100000 FMFlg1=           0
         NFxFlg=           0 DoJE=T BraDBF=F KetDBF=T FulRan=T
         wScrn=  0.000000 ICntrl=     500 IOpCl=  0 I1Cent=   200000004 NGrid=           0
         NMat0=    1 NMatS0=      1 NMatT0=    0 NMatD0=    1 NMtDS0=    0 NMtDT0=    0
 Petite list used in FoFCou.
 Keep R1 ints in memory in canonical form, NReq=23244378.
 Requested convergence on RMS density matrix=1.00D-08 within 128 cycles.
 Requested convergence on MAX density matrix=1.00D-06.
 Requested convergence on             energy=1.00D-06.
 No special actions if energy rises.
 SCF Done:  E(RM062X) =  -196.429475949     A.U. after   12 cycles
            NFock= 12  Conv=0.39D-08     -V/T= 2.0091

 **********************************************************************

            Population analysis using the SCF density.

 **********************************************************************

 Orbital symmetries:
       Occupied  (A) (A) (A) (A) (A) (A) (A) (A) (A) (A) (A) (A)
                 (A) (A) (A) (A) (A) (A) (A) (A)
       Virtual   (A) (A) (A) (A) (A) (A) (A) (A) (A) (A) (A) (A)
                 (A) (A) (A) (A) (A) (A) (A) (A) (A) (A) (A) (A)
                 (A) (A) (A) (A) (A) (A) (A) (A) (A) (A) (A) (A)
                 (A) (A) (A) (A) (A) (A) (A) (A) (A) (A) (A) (A)
                 (A) (A) (A) (A) (A) (A) (A) (A) (A) (A) (A) (A)
                 (A) (A) (A) (A) (A) (A) (A) (A) (A) (A) (A) (A)
                 (A) (A) (A) (A) (A) (A) (A) (A) (A) (A) (A) (A)
                 (A) (A) (A) (A) (A) (A) (A) (A) (A) (A) (A)
 The electronic state is 1-A.
 Alpha  occ. eigenvalues --  -10.54985 -10.53819 -10.53619 -10.53601 -10.53513
 Alpha  occ. eigenvalues --   -0.91217  -0.82984  -0.78251  -0.71852  -0.58739
 Alpha  occ. eigenvalues --   -0.52994  -0.50175  -0.50117  -0.46517  -0.45487
 Alpha  occ. eigenvalues --   -0.44757  -0.42775  -0.41089  -0.38582  -0.27977
 Alpha virt. eigenvalues --    0.02731   0.03618   0.04260   0.04302   0.05482
 Alpha virt. eigenvalues --    0.06179   0.06524   0.08229   0.08679   0.09325
 Alpha virt. eigenvalues --    0.09431   0.10994   0.13343   0.13987   0.15145
 Alpha virt. eigenvalues --    0.15770   0.15974   0.18518   0.20979   0.21714
 Alpha virt. eigenvalues --    0.22029   0.23161   0.24449   0.24672   0.26921
 Alpha virt. eigenvalues --    0.29471   0.30375   0.31063   0.32638   0.34668
 Alpha virt. eigenvalues --    0.35166   0.36694   0.37305   0.43811   0.49342
 Alpha virt. eigenvalues --    0.69637   0.69991   0.70742   0.72615   0.73797
 Alpha virt. eigenvalues --    0.76930   0.77340   0.78487   0.79143   0.80563
 Alpha virt. eigenvalues --    0.82142   0.85915   0.86841   0.91034   0.96089
 Alpha virt. eigenvalues --    1.01634   1.03417   1.04359   1.05438   1.06618
 Alpha virt. eigenvalues --    1.07977   1.08772   1.18447   1.18742   1.19538
 Alpha virt. eigenvalues --    1.24623   1.27755   1.28703   1.44728   1.48832
 Alpha virt. eigenvalues --    1.51045   1.54451   1.61034   1.83856   1.88847
 Alpha virt. eigenvalues --    1.93061   1.94961   1.97299   1.99480   2.08387
 Alpha virt. eigenvalues --    2.17081   2.18047   2.22896   2.28354   2.30600
 Alpha virt. eigenvalues --    2.35507   2.38199   2.43571   2.46014   2.51291
 Alpha virt. eigenvalues --    2.58009   2.59210   2.72416   2.89823   3.07544
 Alpha virt. eigenvalues --    4.23175   4.29776   4.35016   4.42298   4.60445
          Condensed to atoms (all electrons):
               1          2          3          4          5          6
     1  C    5.858397  -0.213339   0.105790  -0.065226  -0.017959   0.447740
     2  C   -0.213339   5.879886   0.179134   0.072872  -0.090373  -0.055857
     3  C    0.105790   0.179134   5.714150  -0.103575   0.026043  -0.044555
     4  C   -0.065226   0.072872  -0.103575   5.810359  -0.068969  -0.004991
     5  C   -0.017959  -0.090373   0.026043  -0.068969   5.847994  -0.005274
     6  H    0.447740  -0.055857  -0.044555  -0.004991  -0.005274   0.496874
     7  H    0.410301  -0.088561   0.028261  -0.000167   0.003988  -0.030855
     8  H    0.434360  -0.144652   0.042459  -0.001131   0.011535  -0.031092
     9  H    0.000605   0.274745   0.028876  -0.013957   0.002228   0.001072
    10  H   -0.000968  -0.014616  -0.046276   0.416122  -0.018106   0.000051
    11  H   -0.000377  -0.001303  -0.088326   0.411569   0.021002  -0.000004
    12  H    0.000579   0.013986  -0.107912   0.447739  -0.007449  -0.000014
    13  H    0.005123  -0.032496  -0.044660  -0.021246   0.431624  -0.000140
    14  H   -0.002239   0.022042  -0.085938   0.002167   0.408323   0.000044
    15  H   -0.003934   0.002219  -0.087553  -0.000435   0.436869   0.000469
               7          8          9         10         11         12
     1  C    0.410301   0.434360   0.000605  -0.000968  -0.000377   0.000579
     2  C   -0.088561  -0.144652   0.274745  -0.014616  -0.001303   0.013986
     3  C    0.028261   0.042459   0.028876  -0.046276  -0.088326  -0.107912
     4  C   -0.000167  -0.001131  -0.013957   0.416122   0.411569   0.447739
     5  C    0.003988   0.011535   0.002228  -0.018106   0.021002  -0.007449
     6  H   -0.030855  -0.031092   0.001072   0.000051  -0.000004  -0.000014
     7  H    0.495043  -0.025068  -0.005013  -0.000005   0.000003   0.000000
     8  H   -0.025068   0.501626   0.003508  -0.000015   0.000008   0.000010
     9  H   -0.005013   0.003508   0.524967   0.000250   0.000148   0.002540
    10  H   -0.000005  -0.000015   0.000250   0.487250  -0.029411  -0.025683
    11  H    0.000003   0.000008   0.000148  -0.029411   0.506231  -0.025991
    12  H    0.000000   0.000010   0.002540  -0.025683  -0.025991   0.487168
    13  H    0.000042   0.000495  -0.000111  -0.000122   0.000954  -0.000080
    14  H   -0.000006  -0.000011  -0.000106   0.000931  -0.001280   0.000219
    15  H    0.000015  -0.001769   0.000003  -0.000071   0.000186  -0.000106
              13         14         15
     1  C    0.005123  -0.002239  -0.003934
     2  C   -0.032496   0.022042   0.002219
     3  C   -0.044660  -0.085938  -0.087553
     4  C   -0.021246   0.002167  -0.000435
     5  C    0.431624   0.408323   0.436869
     6  H   -0.000140   0.000044   0.000469
     7  H    0.000042  -0.000006   0.000015
     8  H    0.000495  -0.000011  -0.001769
     9  H   -0.000111  -0.000106   0.000003
    10  H   -0.000122   0.000931  -0.000071
    11  H    0.000954  -0.001280   0.000186
    12  H   -0.000080   0.000219  -0.000106
    13  H    0.481109  -0.027369  -0.027157
    14  H   -0.027369   0.497515  -0.026253
    15  H   -0.027157  -0.026253   0.493219
 Mulliken charges:
               1
     1  C   -0.958854
     2  C    0.196312
     3  C    0.484081
     4  C   -0.881131
     5  C   -0.981479
     6  H    0.226531
     7  H    0.212020
     8  H    0.209735
     9  H    0.180246
    10  H    0.230667
    11  H    0.206588
    12  H    0.214993
    13  H    0.234033
    14  H    0.211959
    15  H    0.214297
 Sum of Mulliken charges =   0.00000
 Mulliken charges with hydrogens summed into heavy atoms:
               1
     1  C   -0.310568
     2  C    0.376558
     3  C    0.484081
     4  C   -0.228883
     5  C   -0.321189
 Electronic spatial extent (au):  <R**2>=            535.6972
 Charge=              0.0000 electrons
 Dipole moment (field-independent basis, Debye):
    X=             -0.0870    Y=              0.2228    Z=              0.0313  Tot=              0.2412
 Quadrupole moment (field-independent basis, Debye-Ang):
   XX=            -32.5513   YY=            -32.9210   ZZ=            -34.9347
   XY=             -0.2736   XZ=              0.0051   YZ=             -0.0321
 Traceless Quadrupole moment (field-independent basis, Debye-Ang):
   XX=              0.9177   YY=              0.5480   ZZ=             -1.4657
   XY=             -0.2736   XZ=              0.0051   YZ=             -0.0321
 Octapole moment (field-independent basis, Debye-Ang**2):
  XXX=              1.1392  YYY=             -1.9365  ZZZ=              0.6306  XYY=              0.7263
  XXY=             -0.2247  XXZ=              0.3047  XZZ=             -0.6855  YZZ=              1.3341
  YYZ=             -0.8721  XYZ=              0.4914
 Hexadecapole moment (field-independent basis, Debye-Ang**3):
 XXXX=           -474.5157 YYYY=           -228.7046 ZZZZ=            -61.5069 XXXY=             -6.6923
 XXXZ=             -0.8725 YYYX=              0.7743 YYYZ=              1.5150 ZZZX=              0.4895
 ZZZY=             -1.7867 XXYY=           -115.7670 XXZZ=            -86.7730 YYZZ=            -47.8838
 XXYZ=              1.3533 YYXZ=             -0.5611 ZZXY=              0.7420
 N-N= 1.748383652176D+02 E-N=-8.031429043252D+02  KE= 1.946507867099D+02
 Calling FoFJK, ICntrl=      2127 FMM=F ISym2X=0 I1Cent= 0 IOpClX= 0 NMat=1 NMatS=1 NMatT=0.
 ***** Axes restored to original set *****
 -------------------------------------------------------------------
 Center     Atomic                   Forces (Hartrees/Bohr)
 Number     Number              X              Y              Z
 -------------------------------------------------------------------
      1        6           0.000707937   -0.013463944   -0.021185570
      2        6          -0.007529386    0.005854706    0.018584256
      3        6           0.012751688    0.002782927   -0.007931089
      4        6           0.002911166    0.000697082    0.003313989
      5        6          -0.001110814   -0.000148145   -0.005337498
      6        1           0.000238960    0.001292088    0.001148146
      7        1          -0.003131954    0.000169057    0.003393931
      8        1           0.001325457    0.001824679    0.001411650
      9        1          -0.000634355    0.002072407    0.003224786
     10        1          -0.003304635    0.000197861    0.001770631
     11        1          -0.000832488    0.001561681    0.001145926
     12        1          -0.000044421    0.000634192   -0.001594371
     13        1          -0.001942875   -0.001825957    0.002042914
     14        1          -0.000324426   -0.001641957    0.000372535
     15        1           0.000920146   -0.000006676   -0.000360238
 -------------------------------------------------------------------
 Cartesian Forces:  Max     0.021185570 RMS     0.005643391

 GradGradGradGradGradGradGradGradGradGradGradGradGradGradGradGradGradGrad
 Berny optimization.
 FormGI is forming the generalized inverse of G from B-inverse, IUseBI=4.
 Internal  Forces:  Max     0.017237434 RMS     0.003445188
 Search for a local minimum.
 Step number   1 out of a maximum of   70
 All quantities printed in internal units (Hartrees-Bohrs-Radians)
 Mixed Optimization -- RFO/linear search
 Second derivative matrix not updated -- first step.
 ITU=  0
     Eigenvalues ---    0.00721   0.00733   0.01092   0.01301   0.01796
     Eigenvalues ---    0.02793   0.07039   0.07047   0.07113   0.07214
     Eigenvalues ---    0.07323   0.07348   0.16000   0.16000   0.16000
     Eigenvalues ---    0.16000   0.16000   0.16000   0.16000   0.16000
     Eigenvalues ---    0.16000   0.16000   0.22000   0.25000   0.25000
     Eigenvalues ---    0.32021   0.32118   0.33584   0.33735   0.33750
     Eigenvalues ---    0.34234   0.34234   0.34243   0.34246   0.34252
     Eigenvalues ---    0.34388   0.34994   0.35109   0.55710
 RFO step:  Lambda=-3.39457030D-03 EMin= 7.20709403D-03
 Linear search not attempted -- first point.
 Iteration  1 RMS(Cart)=  0.06176428 RMS(Int)=  0.00231539
 Iteration  2 RMS(Cart)=  0.00246359 RMS(Int)=  0.00004467
 Iteration  3 RMS(Cart)=  0.00000378 RMS(Int)=  0.00004457
 Iteration  4 RMS(Cart)=  0.00000000 RMS(Int)=  0.00004457
 Variable       Old X    -DE/DX   Delta X   Delta X   Delta X     New X
                                 (Linear)    (Quad)   (Total)
    R1        2.78799   0.01724   0.00000   0.04863   0.04863   2.83662
    R2        2.08038  -0.00042   0.00000  -0.00123  -0.00123   2.07915
    R3        2.07779  -0.00352   0.00000  -0.01034  -0.01034   2.06745
    R4        2.07754  -0.00224   0.00000  -0.00657  -0.00657   2.07096
    R5        2.54506  -0.01138   0.00000  -0.02030  -0.02030   2.52477
    R6        2.05685   0.00211   0.00000   0.00597   0.00597   2.06282
    R7        2.84105   0.00570   0.00000   0.01763   0.01763   2.85868
    R8        2.83929   0.00496   0.00000   0.01528   0.01528   2.85457
    R9        2.06907   0.00160   0.00000   0.00461   0.00461   2.07368
   R10        2.06922   0.00028   0.00000   0.00081   0.00081   2.07003
   R11        2.06938  -0.00057   0.00000  -0.00166  -0.00166   2.06771
   R12        2.06937   0.00196   0.00000   0.00568   0.00568   2.07505
   R13        2.06917  -0.00002   0.00000  -0.00007  -0.00007   2.06910
   R14        2.06681   0.00028   0.00000   0.00081   0.00081   2.06762
    A1        1.95702  -0.00073   0.00000  -0.00071  -0.00076   1.95626
    A2        1.96757  -0.00377   0.00000  -0.02734  -0.02747   1.94010
    A3        1.96748  -0.00014   0.00000  -0.00036  -0.00048   1.96700
    A4        1.84509   0.00225   0.00000   0.01287   0.01281   1.85790
    A5        1.84389   0.00188   0.00000   0.01932   0.01929   1.86319
    A6        1.87374   0.00104   0.00000  -0.00024  -0.00043   1.87331
    A7        2.22910  -0.00630   0.00000  -0.02819  -0.02820   2.20090
    A8        1.99729   0.00651   0.00000   0.03466   0.03465   2.03194
    A9        2.05680  -0.00021   0.00000  -0.00647  -0.00648   2.05032
   A10        2.11465   0.00086   0.00000   0.00341   0.00340   2.11805
   A11        2.16053  -0.00467   0.00000  -0.01844  -0.01845   2.14208
   A12        2.00800   0.00381   0.00000   0.01503   0.01503   2.02303
   A13        1.92437   0.00205   0.00000   0.01090   0.01091   1.93528
   A14        1.92432   0.00246   0.00000   0.01442   0.01442   1.93874
   A15        1.96070  -0.00170   0.00000  -0.00811  -0.00810   1.95260
   A16        1.89409  -0.00313   0.00000  -0.02363  -0.02365   1.87044
   A17        1.87917   0.00001   0.00000   0.00133   0.00135   1.88051
   A18        1.87915   0.00012   0.00000   0.00384   0.00384   1.88299
   A19        1.92216   0.00190   0.00000   0.01065   0.01065   1.93281
   A20        1.92237   0.00160   0.00000   0.00862   0.00862   1.93099
   A21        1.97178  -0.00133   0.00000  -0.00592  -0.00591   1.96587
   A22        1.89207  -0.00259   0.00000  -0.02028  -0.02029   1.87178
   A23        1.87642   0.00008   0.00000   0.00277   0.00278   1.87920
   A24        1.87658   0.00017   0.00000   0.00298   0.00299   1.87956
    D1        1.57095   0.00093   0.00000   0.02858   0.02853   1.59948
    D2       -1.57063   0.00111   0.00000   0.03689   0.03691  -1.53372
    D3       -2.63230   0.00069   0.00000   0.02556   0.02548  -2.60683
    D4        0.50930   0.00087   0.00000   0.03387   0.03385   0.54315
    D5       -0.50737  -0.00087   0.00000   0.00441   0.00444  -0.50294
    D6        2.63423  -0.00070   0.00000   0.01272   0.01281   2.64705
    D7        3.14155   0.00084   0.00000   0.02989   0.02981  -3.11182
    D8       -0.00015   0.00071   0.00000   0.02233   0.02231   0.02217
    D9       -0.00005   0.00065   0.00000   0.02134   0.02135   0.02130
   D10        3.14143   0.00053   0.00000   0.01378   0.01386  -3.12789
   D11        1.57074   0.00150   0.00000   0.10809   0.10804   1.67879
   D12       -2.62132   0.00049   0.00000   0.09488   0.09485  -2.52647
   D13       -0.52532   0.00120   0.00000   0.10429   0.10425  -0.42107
   D14       -1.57075   0.00162   0.00000   0.11503   0.11505  -1.45570
   D15        0.52037   0.00060   0.00000   0.10181   0.10186   0.62223
   D16        2.61637   0.00132   0.00000   0.11122   0.11126   2.72764
   D17        1.57088   0.00117   0.00000   0.06563   0.06561   1.63649
   D18       -2.62632   0.00017   0.00000   0.05266   0.05265  -2.57368
   D19       -0.52755   0.00062   0.00000   0.05856   0.05854  -0.46900
   D20       -1.57082   0.00105   0.00000   0.05849   0.05850  -1.51232
   D21        0.51517   0.00005   0.00000   0.04551   0.04553   0.56070
   D22        2.61394   0.00051   0.00000   0.05142   0.05143   2.66537
         Item               Value     Threshold  Converged?
 Maximum Force            0.017237     0.000450     NO 
 RMS     Force            0.003445     0.000300     NO 
 Maximum Displacement     0.177763     0.001800     NO 
 RMS     Displacement     0.061930     0.001200     NO 
 Predicted change in Energy=-1.869039D-03
 GradGradGradGradGradGradGradGradGradGradGradGradGradGradGradGradGradGrad

                          Input orientation:                          
 ---------------------------------------------------------------------
 Center     Atomic      Atomic             Coordinates (Angstroms)
 Number     Number       Type             X           Y           Z
 ---------------------------------------------------------------------
      1          6           0       -0.970140   -0.422872    0.378849
      2          6           0       -1.344361    0.248167    1.668378
      3          6           0       -2.437129    0.001014    2.396253
      4          6           0       -2.728316    0.771011    3.665395
      5          6           0       -3.456938   -1.044120    2.009577
      6          1           0       -1.350351    0.123358   -0.497280
      7          1           0        0.116370   -0.477025    0.262638
      8          1           0       -1.357635   -1.445408    0.306189
      9          1           0       -0.657693    1.013564    2.034764
     10          1           0       -3.412724    1.605783    3.468152
     11          1           0       -3.207048    0.130329    4.413906
     12          1           0       -1.817698    1.184168    4.109606
     13          1           0       -3.238947   -2.001084    2.501979
     14          1           0       -4.460489   -0.738770    2.323422
     15          1           0       -3.486502   -1.224817    0.930872
 ---------------------------------------------------------------------
                    Distance matrix (angstroms):
                    1          2          3          4          5
     1  C    0.000000
     2  C    1.501073   0.000000
     3  C    2.530149   1.336049   0.000000
     4  C    3.913813   2.485312   1.512748   0.000000
     5  C    3.037991   2.499881   1.510574   2.562679   0.000000
     6  H    1.100241   2.169260   3.093313   4.432393   3.476356
     7  H    1.094049   2.153078   3.361724   4.607450   4.017701
     8  H    1.095906   2.173461   2.761487   4.251535   2.733064
     9  H    2.214278   1.091597   2.079020   2.646747   3.474258
    10  H    4.430062   3.059482   2.162415   1.097344   3.025125
    11  H    4.646663   3.319851   2.163428   1.095411   2.687484
    12  H    4.149636   2.657017   2.172354   1.094187   3.473110
    13  H    3.485099   3.056710   2.159279   3.049392   1.098070
    14  H    4.007953   3.333673   2.155591   2.660968   1.094920
    15  H    2.698133   2.702289   2.179722   3.469264   1.094135
                    6          7          8          9         10
     6  H    0.000000
     7  H    1.757614   0.000000
     8  H    1.762567   1.764186   0.000000
     9  H    2.771911   2.441610   3.086168   0.000000
    10  H    4.709100   5.202683   4.850893   3.161569   0.000000
    11  H    5.250440   5.352290   4.772485   3.597170   1.764573
    12  H    4.750487   4.615121   4.646752   2.383209   1.770121
    13  H    4.132264   4.312256   2.944419   3.996156   3.738071
    14  H    4.286325   5.026229   3.767793   4.197053   2.811610
    15  H    2.901781   3.739842   2.229566   3.772411   3.802043
                   11         12         13         14         15
    11  H    0.000000
    12  H    1.770160   0.000000
    13  H    2.863460   3.840604   0.000000
    14  H    2.587774   3.724578   1.765640   0.000000
    15  H    3.747805   4.323478   1.769817   1.767508   0.000000
 Stoichiometry    C5H10
 Framework group  C1[X(C5H10)]
 Deg. of freedom    39
 Full point group                 C1      NOp   1
 Largest Abelian subgroup         C1      NOp   1
 Largest concise Abelian subgroup C1      NOp   1
                         Standard orientation:                         
 ---------------------------------------------------------------------
 Center     Atomic      Atomic             Coordinates (Angstroms)
 Number     Number       Type             X           Y           Z
 ---------------------------------------------------------------------
      1          6           0        2.072746   -0.130555    0.007432
      2          6           0        0.693508   -0.722534   -0.014530
      3          6           0       -0.455788   -0.041295   -0.006788
      4          6           0       -1.791543   -0.751201    0.007376
      5          6           0       -0.510474    1.468281   -0.001837
      6          1           0        2.457864   -0.016864    1.031780
      7          1           0        2.785323   -0.769748   -0.522293
      8          1           0        2.114936    0.860825   -0.457752
      9          1           0        0.632880   -1.812324   -0.030881
     10          1           0       -2.179853   -0.833684    1.030398
     11          1           0       -2.536375   -0.201015   -0.577812
     12          1           0       -1.720278   -1.762272   -0.404817
     13          1           0       -0.596940    1.857651   -1.024907
     14          1           0       -1.384979    1.820939    0.554691
     15          1           0        0.376724    1.920317    0.451677
 ---------------------------------------------------------------------
 Rotational constants (GHZ):      8.0376260      3.5667289      2.5897156
 Standard basis: 6-31+G(d) (6D, 7F)
 There are   115 symmetry adapted cartesian basis functions of A   symmetry.
 There are   115 symmetry adapted basis functions of A   symmetry.
   115 basis functions,   200 primitive gaussians,   115 cartesian basis functions
    20 alpha electrons       20 beta electrons
       nuclear repulsion energy       174.5745827077 Hartrees.
 NAtoms=   15 NActive=   15 NUniq=   15 SFac= 1.00D+00 NAtFMM=   60 NAOKFM=F Big=F
 Integral buffers will be    131072 words long.
 Raffenetti 2 integral format.
 Two-electron integral symmetry is turned on.
 One-electron integrals computed using PRISM.
 NBasis=   115 RedAO= T EigKep=  2.33D-05  NBF=   115
 NBsUse=   115 1.00D-06 EigRej= -1.00D+00 NBFU=   115
 Initial guess from the checkpoint file:  "/srv/scratch/z5358697/gauss/Gau-51451.chk"
 B after Tr=     0.000000    0.000000    0.000000
         Rot=    0.999891    0.001960   -0.000515    0.014596 Ang=   1.69 deg.
 ExpMin= 4.38D-02 ExpMax= 3.05D+03 ExpMxC= 4.57D+02 IAcc=2 IRadAn=         4 AccDes= 0.00D+00
 Harris functional with IExCor= 1009 and IRadAn=       4 diagonalized for initial guess.
 HarFok:  IExCor= 1009 AccDes= 0.00D+00 IRadAn=         4 IDoV= 1 UseB2=F ITyADJ=14
 ICtDFT=  3500011 ScaDFX=  1.000000  1.000000  1.000000  1.000000
 FoFCou: FMM=F IPFlag=           0 FMFlag=      100000 FMFlg1=           0
         NFxFlg=           0 DoJE=T BraDBF=F KetDBF=T FulRan=T
         wScrn=  0.000000 ICntrl=     500 IOpCl=  0 I1Cent=   200000004 NGrid=           0
         NMat0=    1 NMatS0=      1 NMatT0=    0 NMatD0=    1 NMtDS0=    0 NMtDT0=    0
 Petite list used in FoFCou.
 Keep R1 ints in memory in canonical form, NReq=23244378.
 Requested convergence on RMS density matrix=1.00D-08 within 128 cycles.
 Requested convergence on MAX density matrix=1.00D-06.
 Requested convergence on             energy=1.00D-06.
 No special actions if energy rises.
 SCF Done:  E(RM062X) =  -196.431457095     A.U. after   11 cycles
            NFock= 11  Conv=0.47D-08     -V/T= 2.0094
 Calling FoFJK, ICntrl=      2127 FMM=F ISym2X=0 I1Cent= 0 IOpClX= 0 NMat=1 NMatS=1 NMatT=0.
 ***** Axes restored to original set *****
 -------------------------------------------------------------------
 Center     Atomic                   Forces (Hartrees/Bohr)
 Number     Number              X              Y              Z
 -------------------------------------------------------------------
      1        6           0.000341028   -0.002609570   -0.005104320
      2        6           0.001725173    0.001855096    0.001525526
      3        6          -0.001683921   -0.000185373    0.001338819
      4        6           0.001166877   -0.001523054   -0.000602181
      5        6          -0.000730499    0.001110478   -0.001186643
      6        1           0.000202215    0.000677404    0.001768066
      7        1           0.000363468   -0.000053074    0.000875370
      8        1           0.000611098    0.001134418    0.001290817
      9        1          -0.000242667   -0.000129953   -0.001126783
     10        1          -0.001163557   -0.000943850   -0.000090109
     11        1           0.000078094   -0.000454728    0.000445387
     12        1           0.000123833    0.000467650   -0.001075218
     13        1          -0.000492331    0.000341314    0.000799759
     14        1          -0.000499044    0.000045066    0.000237701
     15        1           0.000200234    0.000268174    0.000903811
 -------------------------------------------------------------------
 Cartesian Forces:  Max     0.005104320 RMS     0.001239126

 GradGradGradGradGradGradGradGradGradGradGradGradGradGradGradGradGradGrad
 Berny optimization.
 Using GEDIIS/GDIIS optimizer.
 FormGI is forming the generalized inverse of G from B-inverse, IUseBI=4.
 Internal  Forces:  Max     0.003036528 RMS     0.000993062
 Search for a local minimum.
 Step number   2 out of a maximum of   70
 All quantities printed in internal units (Hartrees-Bohrs-Radians)
 Mixed Optimization -- En-DIIS/RFO-DIIS
 Update second derivatives using D2CorX and points    1    2
 DE= -1.98D-03 DEPred=-1.87D-03 R= 1.06D+00
 TightC=F SS=  1.41D+00  RLast= 3.19D-01 DXNew= 5.0454D-01 9.5557D-01
 Trust test= 1.06D+00 RLast= 3.19D-01 DXMaxT set to 5.05D-01
 ITU=  1  0
 Use linear search instead of GDIIS.
     Eigenvalues ---    0.00558   0.00735   0.01093   0.01292   0.01783
     Eigenvalues ---    0.02895   0.06977   0.07033   0.07086   0.07209
     Eigenvalues ---    0.07264   0.07323   0.15049   0.16000   0.16000
     Eigenvalues ---    0.16000   0.16000   0.16000   0.16000   0.16000
     Eigenvalues ---    0.16000   0.16630   0.22421   0.24998   0.26642
     Eigenvalues ---    0.31851   0.32563   0.33208   0.33660   0.33824
     Eigenvalues ---    0.34157   0.34234   0.34242   0.34245   0.34270
     Eigenvalues ---    0.34329   0.34910   0.36938   0.59764
 RFO step:  Lambda=-1.00011944D-03 EMin= 5.58329978D-03
 Quartic linear search produced a step of  0.18233.
 Iteration  1 RMS(Cart)=  0.06237977 RMS(Int)=  0.00348155
 Iteration  2 RMS(Cart)=  0.00364395 RMS(Int)=  0.00002897
 Iteration  3 RMS(Cart)=  0.00001085 RMS(Int)=  0.00002768
 Iteration  4 RMS(Cart)=  0.00000000 RMS(Int)=  0.00002768
 Variable       Old X    -DE/DX   Delta X   Delta X   Delta X     New X
                                 (Linear)    (Quad)   (Total)
    R1        2.83662   0.00176   0.00887   0.00804   0.01691   2.85353
    R2        2.07915  -0.00114  -0.00022  -0.00395  -0.00417   2.07498
    R3        2.06745   0.00027  -0.00189   0.00043  -0.00145   2.06600
    R4        2.07096  -0.00136  -0.00120  -0.00494  -0.00614   2.06483
    R5        2.52477   0.00304  -0.00370   0.00530   0.00160   2.52636
    R6        2.06282  -0.00062   0.00109  -0.00176  -0.00067   2.06215
    R7        2.85868  -0.00240   0.00321  -0.00777  -0.00456   2.85412
    R8        2.85457  -0.00039   0.00279  -0.00067   0.00212   2.85669
    R9        2.07368   0.00002   0.00084   0.00029   0.00113   2.07481
   R10        2.07003   0.00054   0.00015   0.00184   0.00199   2.07201
   R11        2.06771  -0.00016  -0.00030  -0.00060  -0.00091   2.06681
   R12        2.07505  -0.00003   0.00104   0.00015   0.00119   2.07624
   R13        2.06910   0.00054  -0.00001   0.00180   0.00178   2.07088
   R14        2.06762  -0.00094   0.00015  -0.00310  -0.00296   2.06466
    A1        1.95626  -0.00149  -0.00014  -0.00955  -0.00973   1.94654
    A2        1.94010  -0.00072  -0.00501  -0.00765  -0.01277   1.92733
    A3        1.96700  -0.00088  -0.00009  -0.00622  -0.00637   1.96063
    A4        1.85790   0.00113   0.00234   0.00838   0.01065   1.86855
    A5        1.86319   0.00167   0.00352   0.01513   0.01864   1.88183
    A6        1.87331   0.00056  -0.00008   0.00188   0.00168   1.87499
    A7        2.20090   0.00114  -0.00514   0.00466  -0.00049   2.20041
    A8        2.03194  -0.00136   0.00632  -0.00704  -0.00073   2.03121
    A9        2.05032   0.00022  -0.00118   0.00242   0.00123   2.05155
   A10        2.11805  -0.00032   0.00062  -0.00133  -0.00071   2.11734
   A11        2.14208   0.00293  -0.00336   0.01257   0.00921   2.15129
   A12        2.02303  -0.00260   0.00274  -0.01123  -0.00849   2.01453
   A13        1.93528  -0.00045   0.00199  -0.00367  -0.00169   1.93359
   A14        1.93874   0.00009   0.00263   0.00101   0.00364   1.94238
   A15        1.95260  -0.00071  -0.00148  -0.00423  -0.00570   1.94690
   A16        1.87044  -0.00016  -0.00431  -0.00452  -0.00884   1.86160
   A17        1.88051   0.00071   0.00025   0.00567   0.00592   1.88643
   A18        1.88299   0.00059   0.00070   0.00610   0.00681   1.88980
   A19        1.93281  -0.00014   0.00194  -0.00073   0.00121   1.93402
   A20        1.93099   0.00000   0.00157  -0.00083   0.00074   1.93172
   A21        1.96587  -0.00010  -0.00108   0.00050  -0.00058   1.96529
   A22        1.87178  -0.00037  -0.00370  -0.00646  -0.01016   1.86162
   A23        1.87920   0.00048   0.00051   0.00590   0.00640   1.88560
   A24        1.87956   0.00013   0.00054   0.00147   0.00202   1.88158
    D1        1.59948   0.00031   0.00520   0.01389   0.01906   1.61854
    D2       -1.53372   0.00021   0.00673   0.00809   0.01480  -1.51892
    D3       -2.60683   0.00025   0.00465   0.01297   0.01759  -2.58924
    D4        0.54315   0.00016   0.00617   0.00717   0.01333   0.55648
    D5       -0.50294  -0.00016   0.00081   0.00560   0.00645  -0.49649
    D6        2.64705  -0.00026   0.00234  -0.00020   0.00219   2.64924
    D7       -3.11182  -0.00060   0.00544  -0.02508  -0.01966  -3.13148
    D8        0.02217  -0.00059   0.00407  -0.02355  -0.01948   0.00268
    D9        0.02130  -0.00051   0.00389  -0.01927  -0.01537   0.00593
   D10       -3.12789  -0.00050   0.00253  -0.01774  -0.01519   3.14010
   D11        1.67879   0.00108   0.01970   0.12380   0.14349   1.82228
   D12       -2.52647   0.00064   0.01729   0.11639   0.13368  -2.39279
   D13       -0.42107   0.00097   0.01901   0.12198   0.14098  -0.28008
   D14       -1.45570   0.00106   0.02098   0.12228   0.14326  -1.31244
   D15        0.62223   0.00062   0.01857   0.11487   0.13345   0.75568
   D16        2.72764   0.00095   0.02029   0.12045   0.14075   2.86839
   D17        1.63649   0.00062   0.01196   0.04303   0.05500   1.69149
   D18       -2.57368   0.00007   0.00960   0.03400   0.04360  -2.53008
   D19       -0.46900   0.00017   0.01067   0.03564   0.04631  -0.42269
   D20       -1.51232   0.00063   0.01067   0.04452   0.05519  -1.45713
   D21        0.56070   0.00009   0.00830   0.03548   0.04379   0.60449
   D22        2.66537   0.00018   0.00938   0.03712   0.04650   2.71187
         Item               Value     Threshold  Converged?
 Maximum Force            0.003037     0.000450     NO 
 RMS     Force            0.000993     0.000300     NO 
 Maximum Displacement     0.237976     0.001800     NO 
 RMS     Displacement     0.062436     0.001200     NO 
 Predicted change in Energy=-6.166001D-04
 GradGradGradGradGradGradGradGradGradGradGradGradGradGradGradGradGradGrad

                          Input orientation:                          
 ---------------------------------------------------------------------
 Center     Atomic      Atomic             Coordinates (Angstroms)
 Number     Number       Type             X           Y           Z
 ---------------------------------------------------------------------
      1          6           0       -0.958616   -0.430508    0.373706
      2          6           0       -1.340779    0.248208    1.667329
      3          6           0       -2.437274    0.002016    2.391466
      4          6           0       -2.720624    0.757206    3.668382
      5          6           0       -3.475077   -1.025571    2.001272
      6          1           0       -1.322626    0.129361   -0.497913
      7          1           0        0.129039   -0.493853    0.282839
      8          1           0       -1.352457   -1.447482    0.306215
      9          1           0       -0.653716    1.011824    2.035628
     10          1           0       -3.506147    1.507968    3.510934
     11          1           0       -3.081116    0.085545    4.456510
     12          1           0       -1.828625    1.271384    4.037377
     13          1           0       -3.301786   -1.974537    2.527172
     14          1           0       -4.478797   -0.688471    2.283810
     15          1           0       -3.481000   -1.229790    0.927973
 ---------------------------------------------------------------------
                    Distance matrix (angstroms):
                    1          2          3          4          5
     1  C    0.000000
     2  C    1.510021   0.000000
     3  C    2.538673   1.336894   0.000000
     4  C    3.920489   2.483398   1.510337   0.000000
     5  C    3.055429   2.507839   1.511695   2.554751   0.000000
     6  H    1.098032   2.168577   3.099543   4.439212   3.494687
     7  H    1.093280   2.151240   3.358296   4.598655   4.028074
     8  H    1.092659   2.174427   2.761547   4.246964   2.748953
     9  H    2.221547   1.091242   2.080243   2.646285   3.480263
    10  H    4.482165   3.110416   2.159535   1.097943   2.949383
    11  H    4.630400   3.291620   2.164698   1.096462   2.723596
    12  H    4.132292   2.627168   2.165819   1.093708   3.483177
    13  H    3.537215   3.086336   2.161610   3.017040   1.098698
    14  H    4.013317   3.332352   2.157818   2.664244   1.095864
    15  H    2.703422   2.704010   2.179110   3.469318   1.092571
                    6          7          8          9         10
     6  H    0.000000
     7  H    1.762186   0.000000
     8  H    1.770295   1.762040   0.000000
     9  H    2.764962   2.439680   3.086632   0.000000
    10  H    4.768561   5.257609   4.862436   3.249468   0.000000
    11  H    5.257425   5.297200   4.750093   3.551187   1.760129
    12  H    4.704159   4.587490   4.641179   2.335547   1.774033
    13  H    4.182654   4.358901   3.001720   4.021472   3.624554
    14  H    4.285819   5.027316   3.776371   4.193308   2.697448
    15  H    2.922161   3.740346   2.228154   3.774291   3.763992
                   11         12         13         14         15
    11  H    0.000000
    12  H    1.774998   0.000000
    13  H    2.831073   3.871294   0.000000
    14  H    2.696894   3.733555   1.760269   0.000000
    15  H    3.786896   4.319098   1.773190   1.768309   0.000000
 Stoichiometry    C5H10
 Framework group  C1[X(C5H10)]
 Deg. of freedom    39
 Full point group                 C1      NOp   1
 Largest Abelian subgroup         C1      NOp   1
 Largest concise Abelian subgroup C1      NOp   1
                         Standard orientation:                         
 ---------------------------------------------------------------------
 Center     Atomic      Atomic             Coordinates (Angstroms)
 Number     Number       Type             X           Y           Z
 ---------------------------------------------------------------------
      1          6           0        2.083795   -0.115476    0.002276
      2          6           0        0.699962   -0.719731   -0.004699
      3          6           0       -0.453878   -0.044500   -0.003931
      4          6           0       -1.783074   -0.761664    0.001650
      5          6           0       -0.530980    1.465219    0.000910
      6          1           0        2.469913   -0.004607    1.024184
      7          1           0        2.783918   -0.759061   -0.537065
      8          1           0        2.109972    0.867763   -0.473600
      9          1           0        0.646828   -1.809676   -0.006884
     10          1           0       -2.244788   -0.718766    0.996868
     11          1           0       -2.490533   -0.294288   -0.693541
     12          1           0       -1.673098   -1.813670   -0.276532
     13          1           0       -0.673107    1.852094   -1.017552
     14          1           0       -1.389819    1.806973    0.589568
     15          1           0        0.365764    1.930153    0.417319
 ---------------------------------------------------------------------
 Rotational constants (GHZ):      8.0382350      3.5523456      2.5821031
 Standard basis: 6-31+G(d) (6D, 7F)
 There are   115 symmetry adapted cartesian basis functions of A   symmetry.
 There are   115 symmetry adapted basis functions of A   symmetry.
   115 basis functions,   200 primitive gaussians,   115 cartesian basis functions
    20 alpha electrons       20 beta electrons
       nuclear repulsion energy       174.4247003597 Hartrees.
 NAtoms=   15 NActive=   15 NUniq=   15 SFac= 1.00D+00 NAtFMM=   60 NAOKFM=F Big=F
 Integral buffers will be    131072 words long.
 Raffenetti 2 integral format.
 Two-electron integral symmetry is turned on.
 One-electron integrals computed using PRISM.
 NBasis=   115 RedAO= T EigKep=  2.36D-05  NBF=   115
 NBsUse=   115 1.00D-06 EigRej= -1.00D+00 NBFU=   115
 Initial guess from the checkpoint file:  "/srv/scratch/z5358697/gauss/Gau-51451.chk"
 B after Tr=     0.000000    0.000000    0.000000
         Rot=    0.999981    0.004615    0.000280   -0.004018 Ang=   0.70 deg.
 ExpMin= 4.38D-02 ExpMax= 3.05D+03 ExpMxC= 4.57D+02 IAcc=2 IRadAn=         4 AccDes= 0.00D+00
 Harris functional with IExCor= 1009 and IRadAn=       4 diagonalized for initial guess.
 HarFok:  IExCor= 1009 AccDes= 0.00D+00 IRadAn=         4 IDoV= 1 UseB2=F ITyADJ=14
 ICtDFT=  3500011 ScaDFX=  1.000000  1.000000  1.000000  1.000000
 FoFCou: FMM=F IPFlag=           0 FMFlag=      100000 FMFlg1=           0
         NFxFlg=           0 DoJE=T BraDBF=F KetDBF=T FulRan=T
         wScrn=  0.000000 ICntrl=     500 IOpCl=  0 I1Cent=   200000004 NGrid=           0
         NMat0=    1 NMatS0=      1 NMatT0=    0 NMatD0=    1 NMtDS0=    0 NMtDT0=    0
 Petite list used in FoFCou.
 Keep R1 ints in memory in canonical form, NReq=23244378.
 Requested convergence on RMS density matrix=1.00D-08 within 128 cycles.
 Requested convergence on MAX density matrix=1.00D-06.
 Requested convergence on             energy=1.00D-06.
 No special actions if energy rises.
 SCF Done:  E(RM062X) =  -196.432311287     A.U. after   11 cycles
            NFock= 11  Conv=0.35D-08     -V/T= 2.0094
 Calling FoFJK, ICntrl=      2127 FMM=F ISym2X=0 I1Cent= 0 IOpClX= 0 NMat=1 NMatS=1 NMatT=0.
 ***** Axes restored to original set *****
 -------------------------------------------------------------------
 Center     Atomic                   Forces (Hartrees/Bohr)
 Number     Number              X              Y              Z
 -------------------------------------------------------------------
      1        6          -0.000053775    0.002016494    0.002000909
      2        6           0.001288293   -0.001277864   -0.001910622
      3        6          -0.002251079   -0.000376689    0.001240067
      4        6           0.000174640   -0.000572809   -0.000902919
      5        6           0.000124500    0.000767163    0.000563449
      6        1           0.000189673   -0.000035637    0.000241349
      7        1           0.000699291   -0.000060379   -0.000159371
      8        1          -0.000519819   -0.000263739    0.000134973
      9        1          -0.000051654   -0.000387852   -0.000961606
     10        1          -0.000414418   -0.000612077   -0.000199162
     11        1           0.000748755   -0.000700281    0.000095878
     12        1          -0.000211893    0.000538986   -0.000153519
     13        1           0.000072589    0.000503251    0.000042645
     14        1           0.000062997    0.000677302   -0.000145395
     15        1           0.000141899   -0.000215868    0.000113324
 -------------------------------------------------------------------
 Cartesian Forces:  Max     0.002251079 RMS     0.000799119

 GradGradGradGradGradGradGradGradGradGradGradGradGradGradGradGradGradGrad
 Berny optimization.
 Using GEDIIS/GDIIS optimizer.
 FormGI is forming the generalized inverse of G from B-inverse, IUseBI=4.
 Internal  Forces:  Max     0.002561639 RMS     0.000698954
 Search for a local minimum.
 Step number   3 out of a maximum of   70
 All quantities printed in internal units (Hartrees-Bohrs-Radians)
 Mixed Optimization -- En-DIIS/RFO-DIIS
 Swapping is turned off.
 Update second derivatives using D2CorX and points    2    3
 DE= -8.54D-04 DEPred=-6.17D-04 R= 1.39D+00
 TightC=F SS=  1.41D+00  RLast= 3.67D-01 DXNew= 8.4853D-01 1.1010D+00
 Trust test= 1.39D+00 RLast= 3.67D-01 DXMaxT set to 8.49D-01
 ITU=  1  1  0
     Eigenvalues ---    0.00218   0.00737   0.01093   0.01298   0.01785
     Eigenvalues ---    0.03002   0.06986   0.07101   0.07205   0.07261
     Eigenvalues ---    0.07329   0.07459   0.15755   0.16000   0.16000
     Eigenvalues ---    0.16000   0.16000   0.16000   0.16000   0.16000
     Eigenvalues ---    0.16450   0.16942   0.22433   0.24983   0.26615
     Eigenvalues ---    0.32247   0.32563   0.33586   0.33797   0.34002
     Eigenvalues ---    0.34216   0.34234   0.34243   0.34252   0.34281
     Eigenvalues ---    0.34680   0.35046   0.38746   0.58745
 En-DIIS/RFO-DIIS IScMMF=        0 using points:     3    2
 RFO step:  Lambda=-1.12657649D-04.
 DidBck=F Rises=F RFO-DIIS coefs:    2.28361   -1.28361
 Iteration  1 RMS(Cart)=  0.10073263 RMS(Int)=  0.03587135
 Iteration  2 RMS(Cart)=  0.04658932 RMS(Int)=  0.00214584
 Iteration  3 RMS(Cart)=  0.00222252 RMS(Int)=  0.00005088
 Iteration  4 RMS(Cart)=  0.00000386 RMS(Int)=  0.00005079
 Iteration  5 RMS(Cart)=  0.00000000 RMS(Int)=  0.00005079
 Variable       Old X    -DE/DX   Delta X   Delta X   Delta X     New X
                                 (Linear)    (Quad)   (Total)
    R1        2.85353  -0.00256   0.02171  -0.01364   0.00806   2.86159
    R2        2.07498  -0.00027  -0.00536   0.00036  -0.00500   2.06998
    R3        2.06600   0.00071  -0.00186   0.00287   0.00101   2.06701
    R4        2.06483   0.00042  -0.00788   0.00480  -0.00308   2.06175
    R5        2.52636   0.00162   0.00205   0.00015   0.00220   2.52856
    R6        2.06215  -0.00063  -0.00086  -0.00207  -0.00293   2.05922
    R7        2.85412  -0.00171  -0.00585  -0.00462  -0.01047   2.84365
    R8        2.85669  -0.00160   0.00272  -0.00851  -0.00580   2.85089
    R9        2.07481  -0.00010   0.00145  -0.00009   0.00137   2.07618
   R10        2.07201   0.00025   0.00255   0.00071   0.00326   2.07528
   R11        2.06681   0.00003  -0.00116   0.00031  -0.00086   2.06595
   R12        2.07624  -0.00041   0.00152  -0.00188  -0.00036   2.07588
   R13        2.07088   0.00012   0.00229  -0.00032   0.00196   2.07285
   R14        2.06466  -0.00007  -0.00379   0.00154  -0.00226   2.06240
    A1        1.94654  -0.00007  -0.01249   0.00385  -0.00871   1.93783
    A2        1.92733   0.00028  -0.01639   0.00541  -0.01116   1.91617
    A3        1.96063  -0.00046  -0.00818  -0.00309  -0.01139   1.94924
    A4        1.86855  -0.00008   0.01366  -0.00374   0.00979   1.87834
    A5        1.88183   0.00014   0.02393  -0.00619   0.01773   1.89956
    A6        1.87499   0.00021   0.00216   0.00349   0.00544   1.88043
    A7        2.20041   0.00101  -0.00062   0.00310   0.00247   2.20289
    A8        2.03121  -0.00132  -0.00093  -0.00698  -0.00791   2.02330
    A9        2.05155   0.00031   0.00158   0.00386   0.00544   2.05700
   A10        2.11734   0.00050  -0.00091   0.00592   0.00500   2.12234
   A11        2.15129   0.00115   0.01182  -0.00006   0.01175   2.16304
   A12        2.01453  -0.00165  -0.01090  -0.00582  -0.01673   1.99780
   A13        1.93359  -0.00044  -0.00217  -0.00178  -0.00398   1.92961
   A14        1.94238  -0.00080   0.00467  -0.01092  -0.00626   1.93611
   A15        1.94690   0.00050  -0.00732   0.00917   0.00185   1.94875
   A16        1.86160   0.00053  -0.01134   0.00502  -0.00637   1.85523
   A17        1.88643   0.00015   0.00759   0.00127   0.00886   1.89528
   A18        1.88980   0.00010   0.00874  -0.00267   0.00608   1.89588
   A19        1.93402  -0.00026   0.00156  -0.00104   0.00049   1.93451
   A20        1.93172  -0.00076   0.00095  -0.00954  -0.00861   1.92312
   A21        1.96529   0.00026  -0.00074   0.00257   0.00181   1.96711
   A22        1.86162   0.00050  -0.01304   0.00773  -0.00535   1.85628
   A23        1.88560   0.00009   0.00821  -0.00076   0.00743   1.89303
   A24        1.88158   0.00021   0.00259   0.00158   0.00417   1.88575
    D1        1.61854   0.00005   0.02446   0.01934   0.04375   1.66229
    D2       -1.51892   0.00004   0.01900   0.02297   0.04192  -1.47700
    D3       -2.58924   0.00009   0.02257   0.02068   0.04322  -2.54602
    D4        0.55648   0.00008   0.01711   0.02431   0.04139   0.59788
    D5       -0.49649   0.00025   0.00828   0.02677   0.03513  -0.46135
    D6        2.64924   0.00024   0.00282   0.03040   0.03331   2.68254
    D7       -3.13148  -0.00008  -0.02524   0.01098  -0.01430   3.13740
    D8        0.00268  -0.00003  -0.02501   0.01908  -0.00590  -0.00322
    D9        0.00593  -0.00007  -0.01973   0.00729  -0.01247  -0.00654
   D10        3.14010  -0.00002  -0.01950   0.01539  -0.00407   3.13603
   D11        1.82228   0.00081   0.18419   0.13552   0.31967   2.14195
   D12       -2.39279   0.00067   0.17160   0.13362   0.30522  -2.08757
   D13       -0.28008   0.00059   0.18096   0.12897   0.30990   0.02982
   D14       -1.31244   0.00075   0.18389   0.12801   0.31190  -1.00054
   D15        0.75568   0.00061   0.17130   0.12611   0.29745   1.05313
   D16        2.86839   0.00053   0.18066   0.12145   0.30214  -3.11266
   D17        1.69149   0.00028   0.07059   0.05511   0.12570   1.81719
   D18       -2.53008   0.00026   0.05596   0.05802   0.11400  -2.41608
   D19       -0.42269   0.00017   0.05944   0.05505   0.11449  -0.30820
   D20       -1.45713   0.00034   0.07084   0.06281   0.13364  -1.32349
   D21        0.60449   0.00032   0.05621   0.06572   0.12194   0.72643
   D22        2.71187   0.00023   0.05969   0.06275   0.12243   2.83430
         Item               Value     Threshold  Converged?
 Maximum Force            0.002562     0.000450     NO 
 RMS     Force            0.000699     0.000300     NO 
 Maximum Displacement     0.547689     0.001800     NO 
 RMS     Displacement     0.140132     0.001200     NO 
 Predicted change in Energy=-7.722767D-04
 GradGradGradGradGradGradGradGradGradGradGradGradGradGradGradGradGradGrad

                          Input orientation:                          
 ---------------------------------------------------------------------
 Center     Atomic      Atomic             Coordinates (Angstroms)
 Number     Number       Type             X           Y           Z
 ---------------------------------------------------------------------
      1          6           0       -0.945048   -0.436979    0.368875
      2          6           0       -1.328484    0.237038    1.669546
      3          6           0       -2.435526    0.004340    2.384186
      4          6           0       -2.711039    0.733685    3.671259
      5          6           0       -3.499751   -0.989205    1.988902
      6          1           0       -1.255552    0.164788   -0.492133
      7          1           0        0.141476   -0.552206    0.317762
      8          1           0       -1.389054   -1.429886    0.283195
      9          1           0       -0.626949    0.981403    2.045302
     10          1           0       -3.673404    1.260976    3.617532
     11          1           0       -2.791292    0.030697    4.511131
     12          1           0       -1.927219    1.461144    3.898490
     13          1           0       -3.429505   -1.900355    2.598484
     14          1           0       -4.496381   -0.569961    2.173727
     15          1           0       -3.441871   -1.272179    0.936439
 ---------------------------------------------------------------------
                    Distance matrix (angstroms):
                    1          2          3          4          5
     1  C    0.000000
     2  C    1.514288   0.000000
     3  C    2.545146   1.338058   0.000000
     4  C    3.923636   2.482936   1.504795   0.000000
     5  C    3.075053   2.513972   1.508627   2.533918   0.000000
     6  H    1.095385   2.164115   3.113084   4.447012   3.538879
     7  H    1.093812   2.147326   3.349745   4.586535   4.030163
     8  H    1.091030   2.168933   2.750685   4.231744   2.749304
     9  H    2.218875   1.089690   2.083374   2.654907   3.484174
    10  H    4.569546   3.215858   2.152351   1.098667   2.783147
    11  H    4.559125   3.202653   2.156654   1.098188   2.811362
    12  H    4.126223   2.612491   2.161890   1.093254   3.481895
    13  H    3.644881   3.137779   2.159115   2.933462   1.098507
    14  H    3.985868   3.307720   2.149706   2.670119   1.096904
    15  H    2.693291   2.698441   2.176741   3.469416   1.091377
                    6          7          8          9         10
     6  H    0.000000
     7  H    1.766833   0.000000
     8  H    1.778184   1.764664   0.000000
     9  H    2.738718   2.434508   3.082230   0.000000
    10  H    4.892543   5.359983   4.855594   3.439616   0.000000
    11  H    5.235372   5.150266   4.687751   3.415924   1.757905
    12  H    4.627012   4.599423   4.660261   2.314121   1.779935
    13  H    4.306135   4.446471   3.121753   4.057691   3.330458
    14  H    4.260239   4.995462   3.737521   4.170818   2.472689
    15  H    2.980886   3.706953   2.160013   3.772532   3.695773
                   11         12         13         14         15
    11  H    0.000000
    12  H    1.779924   0.000000
    13  H    2.791862   3.904683   0.000000
    14  H    2.954924   3.701457   1.757438   0.000000
    15  H    3.859943   4.305691   1.776837   1.770871   0.000000
 Stoichiometry    C5H10
 Framework group  C1[X(C5H10)]
 Deg. of freedom    39
 Full point group                 C1      NOp   1
 Largest Abelian subgroup         C1      NOp   1
 Largest concise Abelian subgroup C1      NOp   1
                         Standard orientation:                         
 ---------------------------------------------------------------------
 Center     Atomic      Atomic             Coordinates (Angstroms)
 Number     Number       Type             X           Y           Z
 ---------------------------------------------------------------------
      1          6           0        2.095009   -0.092463   -0.001191
      2          6           0        0.713301   -0.712096    0.001508
      3          6           0       -0.449791   -0.050570    0.001160
      4          6           0       -1.768841   -0.774800   -0.001341
      5          6           0       -0.562998    1.453803    0.001961
      6          1           0        2.492872   -0.014602    1.016409
      7          1           0        2.780984   -0.719634   -0.577836
      8          1           0        2.090915    0.899836   -0.454704
      9          1           0        0.679601   -1.801255    0.006213
     10          1           0       -2.375641   -0.474252    0.863837
     11          1           0       -2.355654   -0.518114   -0.893406
     12          1           0       -1.633694   -1.859284    0.027554
     13          1           0       -0.841397    1.825276   -0.993639
     14          1           0       -1.359907    1.773058    0.684756
     15          1           0        0.361837    1.945719    0.308233
 ---------------------------------------------------------------------
 Rotational constants (GHZ):      8.0990998      3.5372540      2.5803199
 Standard basis: 6-31+G(d) (6D, 7F)
 There are   115 symmetry adapted cartesian basis functions of A   symmetry.
 There are   115 symmetry adapted basis functions of A   symmetry.
   115 basis functions,   200 primitive gaussians,   115 cartesian basis functions
    20 alpha electrons       20 beta electrons
       nuclear repulsion energy       174.4993494109 Hartrees.
 NAtoms=   15 NActive=   15 NUniq=   15 SFac= 1.00D+00 NAtFMM=   60 NAOKFM=F Big=F
 Integral buffers will be    131072 words long.
 Raffenetti 2 integral format.
 Two-electron integral symmetry is turned on.
 One-electron integrals computed using PRISM.
 NBasis=   115 RedAO= T EigKep=  2.32D-05  NBF=   115
 NBsUse=   115 1.00D-06 EigRej= -1.00D+00 NBFU=   115
 Initial guess from the checkpoint file:  "/srv/scratch/z5358697/gauss/Gau-51451.chk"
 B after Tr=     0.000000    0.000000    0.000000
         Rot=    0.999941    0.008741    0.000149   -0.006401 Ang=   1.24 deg.
 ExpMin= 4.38D-02 ExpMax= 3.05D+03 ExpMxC= 4.57D+02 IAcc=2 IRadAn=         4 AccDes= 0.00D+00
 Harris functional with IExCor= 1009 and IRadAn=       4 diagonalized for initial guess.
 HarFok:  IExCor= 1009 AccDes= 0.00D+00 IRadAn=         4 IDoV= 1 UseB2=F ITyADJ=14
 ICtDFT=  3500011 ScaDFX=  1.000000  1.000000  1.000000  1.000000
 FoFCou: FMM=F IPFlag=           0 FMFlag=      100000 FMFlg1=           0
         NFxFlg=           0 DoJE=T BraDBF=F KetDBF=T FulRan=T
         wScrn=  0.000000 ICntrl=     500 IOpCl=  0 I1Cent=   200000004 NGrid=           0
         NMat0=    1 NMatS0=      1 NMatT0=    0 NMatD0=    1 NMtDS0=    0 NMtDT0=    0
 Petite list used in FoFCou.
 Keep R1 ints in memory in canonical form, NReq=23244378.
 Requested convergence on RMS density matrix=1.00D-08 within 128 cycles.
 Requested convergence on MAX density matrix=1.00D-06.
 Requested convergence on             energy=1.00D-06.
 No special actions if energy rises.
 SCF Done:  E(RM062X) =  -196.432872357     A.U. after   13 cycles
            NFock= 13  Conv=0.25D-08     -V/T= 2.0094
 Calling FoFJK, ICntrl=      2127 FMM=F ISym2X=0 I1Cent= 0 IOpClX= 0 NMat=1 NMatS=1 NMatT=0.
 ***** Axes restored to original set *****
 -------------------------------------------------------------------
 Center     Atomic                   Forces (Hartrees/Bohr)
 Number     Number              X              Y              Z
 -------------------------------------------------------------------
      1        6           0.000262382    0.003263353    0.007686396
      2        6          -0.000054567   -0.002734590   -0.004222099
      3        6          -0.000989315   -0.000011130   -0.000120563
      4        6          -0.001184920    0.000142943    0.000766258
      5        6          -0.000148838    0.000145845    0.000932657
      6        1           0.000076976   -0.000361051   -0.001400267
      7        1           0.000240697   -0.000315928   -0.001120425
      8        1          -0.000386183   -0.000745851   -0.001666970
      9        1          -0.000115310    0.000693489   -0.000150814
     10        1           0.001298461    0.000479047   -0.000082058
     11        1           0.000662449    0.000052095   -0.000092487
     12        1           0.000016301   -0.000020649    0.000806169
     13        1           0.000378081    0.000049853   -0.000374278
     14        1           0.000351409    0.000142972   -0.000904521
     15        1          -0.000407623   -0.000780395   -0.000056998
 -------------------------------------------------------------------
 Cartesian Forces:  Max     0.007686396 RMS     0.001574693

 GradGradGradGradGradGradGradGradGradGradGradGradGradGradGradGradGradGrad
 Berny optimization.
 Using GEDIIS/GDIIS optimizer.
 FormGI is forming the generalized inverse of G from B-inverse, IUseBI=4.
 Internal  Forces:  Max     0.003775664 RMS     0.000871350
 Search for a local minimum.
 Step number   4 out of a maximum of   70
 All quantities printed in internal units (Hartrees-Bohrs-Radians)
 Mixed Optimization -- En-DIIS/RFO-DIIS
 Swapping is turned off.
 Update second derivatives using D2CorX and points    3    4
 DE= -5.61D-04 DEPred=-7.72D-04 R= 7.27D-01
 TightC=F SS=  1.41D+00  RLast= 8.19D-01 DXNew= 1.4270D+00 2.4557D+00
 Trust test= 7.27D-01 RLast= 8.19D-01 DXMaxT set to 1.43D+00
 ITU=  1  1  1  0
     Eigenvalues ---    0.00247   0.00773   0.01095   0.01324   0.01791
     Eigenvalues ---    0.03028   0.06971   0.07091   0.07335   0.07344
     Eigenvalues ---    0.07411   0.07598   0.15942   0.16000   0.16000
     Eigenvalues ---    0.16000   0.16000   0.16000   0.16000   0.16142
     Eigenvalues ---    0.16641   0.17006   0.22582   0.25309   0.26534
     Eigenvalues ---    0.32271   0.32962   0.33633   0.33824   0.34041
     Eigenvalues ---    0.34229   0.34235   0.34248   0.34279   0.34302
     Eigenvalues ---    0.34706   0.35222   0.37892   0.58593
 En-DIIS/RFO-DIIS IScMMF=        0 using points:     4    3    2
 RFO step:  Lambda=-1.01725289D-04.
 DidBck=F Rises=F RFO-DIIS coefs:    0.83691   -0.03847    0.20156
 Iteration  1 RMS(Cart)=  0.02630912 RMS(Int)=  0.00058703
 Iteration  2 RMS(Cart)=  0.00061440 RMS(Int)=  0.00001640
 Iteration  3 RMS(Cart)=  0.00000025 RMS(Int)=  0.00001640
 Variable       Old X    -DE/DX   Delta X   Delta X   Delta X     New X
                                 (Linear)    (Quad)   (Total)
    R1        2.86159  -0.00378  -0.00472  -0.00608  -0.01080   2.85079
    R2        2.06998   0.00088   0.00166   0.00105   0.00271   2.07269
    R3        2.06701   0.00032   0.00013   0.00079   0.00092   2.06793
    R4        2.06175   0.00097   0.00174   0.00102   0.00276   2.06450
    R5        2.52856   0.00045  -0.00068   0.00172   0.00104   2.52960
    R6        2.05922   0.00035   0.00061   0.00038   0.00100   2.06021
    R7        2.84365   0.00137   0.00263   0.00158   0.00420   2.84785
    R8        2.85089   0.00027   0.00052   0.00054   0.00106   2.85195
    R9        2.07618  -0.00090  -0.00045  -0.00202  -0.00247   2.07371
   R10        2.07528  -0.00015  -0.00093   0.00021  -0.00072   2.07455
   R11        2.06595   0.00017   0.00032   0.00020   0.00053   2.06648
   R12        2.07588  -0.00022  -0.00018  -0.00044  -0.00062   2.07525
   R13        2.07285  -0.00042  -0.00068  -0.00052  -0.00120   2.07164
   R14        2.06240   0.00024   0.00096  -0.00023   0.00073   2.06313
    A1        1.93783   0.00086   0.00338   0.00070   0.00410   1.94192
    A2        1.91617   0.00121   0.00439   0.00444   0.00885   1.92503
    A3        1.94924   0.00153   0.00314   0.00636   0.00950   1.95874
    A4        1.87834  -0.00119  -0.00374  -0.00431  -0.00803   1.87031
    A5        1.89956  -0.00164  -0.00665  -0.00557  -0.01222   1.88733
    A6        1.88043  -0.00095  -0.00123  -0.00215  -0.00337   1.87706
    A7        2.20289   0.00218  -0.00031   0.00905   0.00874   2.21163
    A8        2.02330  -0.00102   0.00144  -0.00524  -0.00380   2.01950
    A9        2.05700  -0.00116  -0.00114  -0.00381  -0.00495   2.05205
   A10        2.12234  -0.00127  -0.00067  -0.00432  -0.00503   2.11731
   A11        2.16304   0.00025  -0.00377   0.00397   0.00015   2.16319
   A12        1.99780   0.00103   0.00444   0.00033   0.00473   2.00253
   A13        1.92961   0.00044   0.00099   0.00266   0.00365   1.93326
   A14        1.93611  -0.00036   0.00029  -0.00154  -0.00125   1.93486
   A15        1.94875   0.00067   0.00085   0.00110   0.00194   1.95069
   A16        1.85523   0.00051   0.00282   0.00370   0.00652   1.86175
   A17        1.89528  -0.00067  -0.00264  -0.00206  -0.00469   1.89059
   A18        1.89588  -0.00063  -0.00236  -0.00386  -0.00622   1.88965
   A19        1.93451  -0.00035  -0.00032  -0.00167  -0.00198   1.93252
   A20        1.92312   0.00002   0.00126   0.00034   0.00160   1.92472
   A21        1.96711   0.00098  -0.00018   0.00437   0.00419   1.97130
   A22        1.85628   0.00052   0.00292   0.00233   0.00526   1.86154
   A23        1.89303  -0.00059  -0.00250  -0.00263  -0.00512   1.88790
   A24        1.88575  -0.00060  -0.00109  -0.00291  -0.00400   1.88175
    D1        1.66229   0.00001  -0.01098   0.01353   0.00256   1.66485
    D2       -1.47700   0.00007  -0.00982   0.01521   0.00540  -1.47160
    D3       -2.54602  -0.00016  -0.01059   0.01145   0.00085  -2.54517
    D4        0.59788  -0.00010  -0.00944   0.01313   0.00368   0.60156
    D5       -0.46135   0.00043  -0.00703   0.01575   0.00872  -0.45263
    D6        2.68254   0.00049  -0.00587   0.01743   0.01155   2.69410
    D7        3.13740  -0.00044   0.00630  -0.02342  -0.01709   3.12031
    D8       -0.00322  -0.00013   0.00489  -0.00335   0.00151  -0.00171
    D9       -0.00654  -0.00050   0.00513  -0.02513  -0.01997  -0.02650
   D10        3.13603  -0.00019   0.00373  -0.00506  -0.00137   3.13466
   D11        2.14195  -0.00038  -0.08106   0.02833  -0.05272   2.08922
   D12       -2.08757   0.00031  -0.07672   0.03362  -0.04311  -2.13068
   D13        0.02982  -0.00029  -0.07896   0.02837  -0.05059  -0.02077
   D14       -1.00054  -0.00066  -0.07974   0.01003  -0.06971  -1.07025
   D15        1.05313   0.00003  -0.07541   0.01532  -0.06010   0.99304
   D16       -3.11266  -0.00057  -0.07765   0.01007  -0.06758   3.10294
   D17        1.81719  -0.00016  -0.03159   0.03535   0.00374   1.82093
   D18       -2.41608   0.00027  -0.02738   0.03741   0.01000  -2.40607
   D19       -0.30820   0.00017  -0.02801   0.03688   0.00886  -0.29934
   D20       -1.32349   0.00013  -0.03292   0.05414   0.02124  -1.30225
   D21        0.72643   0.00056  -0.02871   0.05620   0.02750   0.75393
   D22        2.83430   0.00046  -0.02934   0.05567   0.02636   2.86066
         Item               Value     Threshold  Converged?
 Maximum Force            0.003776     0.000450     NO 
 RMS     Force            0.000871     0.000300     NO 
 Maximum Displacement     0.094889     0.001800     NO 
 RMS     Displacement     0.026326     0.001200     NO 
 Predicted change in Energy=-1.563554D-04
 GradGradGradGradGradGradGradGradGradGradGradGradGradGradGradGradGradGrad

                          Input orientation:                          
 ---------------------------------------------------------------------
 Center     Atomic      Atomic             Coordinates (Angstroms)
 Number     Number       Type             X           Y           Z
[...]
 ! R10   R(4,11)                 1.0975         -DE/DX =    0.0                 !
 ! R11   R(4,12)                 1.0936         -DE/DX =    0.0                 !
 ! R12   R(5,13)                 1.0973         -DE/DX =    0.0                 !
 ! R13   R(5,14)                 1.0973         -DE/DX =    0.0                 !
 ! R14   R(5,15)                 1.0911         -DE/DX =    0.0                 !
 ! A1    A(2,1,6)              110.6473         -DE/DX =    0.0                 !
 ! A2    A(2,1,7)              110.6471         -DE/DX =    0.0                 !
 ! A3    A(2,1,8)              113.0014         -DE/DX =    0.0                 !
 ! A4    A(6,1,7)              106.813          -DE/DX =    0.0                 !
 ! A5    A(6,1,8)              107.7392         -DE/DX =    0.0                 !
 ! A6    A(7,1,8)              107.737          -DE/DX =    0.0                 !
 ! A7    A(1,2,3)              128.1738         -DE/DX =    0.0                 !
 ! A8    A(1,2,9)              114.8003         -DE/DX =    0.0                 !
 ! A9    A(3,2,9)              117.0259         -DE/DX =    0.0                 !
 ! A10   A(2,3,4)              120.9205         -DE/DX =    0.0                 !
 ! A11   A(2,3,5)              125.0408         -DE/DX =    0.0                 !
 ! A12   A(4,3,5)              114.0387         -DE/DX =    0.0                 !
 ! A13   A(3,4,10)             110.7803         -DE/DX =    0.0                 !
 ! A14   A(3,4,11)             110.7805         -DE/DX =    0.0                 !
 ! A15   A(3,4,12)             111.7982         -DE/DX =    0.0                 !
 ! A16   A(10,4,11)            106.7649         -DE/DX =    0.0                 !
 ! A17   A(10,4,12)            108.2676         -DE/DX =    0.0                 !
 ! A18   A(11,4,12)            108.2671         -DE/DX =    0.0                 !
 ! A19   A(3,5,13)             110.2491         -DE/DX =    0.0                 !
 ! A20   A(3,5,14)             110.2479         -DE/DX =    0.0                 !
 ! A21   A(3,5,15)             113.4367         -DE/DX =    0.0                 !
 ! A22   A(13,5,14)            106.6889         -DE/DX =    0.0                 !
 ! A23   A(13,5,15)            107.9789         -DE/DX =    0.0                 !
 ! A24   A(14,5,15)            107.9784         -DE/DX =    0.0                 !
 ! D1    D(6,1,2,3)            120.9358         -DE/DX =    0.0                 !
 ! D2    D(6,1,2,9)            -59.0681         -DE/DX =    0.0                 !
 ! D3    D(7,1,2,3)           -120.8799         -DE/DX =    0.0                 !
 ! D4    D(7,1,2,9)             59.1162         -DE/DX =    0.0                 !
 ! D5    D(8,1,2,3)              0.0264         -DE/DX =    0.0                 !
 ! D6    D(8,1,2,9)            180.0225         -DE/DX =    0.0                 !
 ! D7    D(1,2,3,4)           -180.0038         -DE/DX =    0.0                 !
 ! D8    D(1,2,3,5)             -0.0011         -DE/DX =    0.0                 !
 ! D9    D(9,2,3,4)              0.0001         -DE/DX =    0.0                 !
 ! D10   D(9,2,3,5)            180.0028         -DE/DX =    0.0                 !
 ! D11   D(2,3,4,10)           120.8546         -DE/DX =    0.0                 !
 ! D12   D(2,3,4,11)          -120.8524         -DE/DX =    0.0                 !
 ! D13   D(2,3,4,12)             0.0009         -DE/DX =    0.0                 !
 ! D14   D(5,3,4,10)           -59.1478         -DE/DX =    0.0                 !
 ! D15   D(5,3,4,11)            59.1452         -DE/DX =    0.0                 !
 ! D16   D(5,3,4,12)          -180.0015         -DE/DX =    0.0                 !
 ! D17   D(2,3,5,13)           121.2295         -DE/DX =    0.0                 !
 ! D18   D(2,3,5,14)          -121.2327         -DE/DX =    0.0                 !
 ! D19   D(2,3,5,15)            -0.0024         -DE/DX =    0.0                 !
 ! D20   D(4,3,5,13)           -58.768          -DE/DX =    0.0                 !
 ! D21   D(4,3,5,14)            58.7698         -DE/DX =    0.0                 !
 ! D22   D(4,3,5,15)          -179.9999         -DE/DX =    0.0                 !
 --------------------------------------------------------------------------------
 GradGradGradGradGradGradGradGradGradGradGradGradGradGradGradGradGradGrad

 1\1\GINC-KATANA1\Freq\RM062X\6-31+G(d)\C5H10\Z5358697\21-Mar-2025\0\\#
 N Geom=AllCheck Guess=TCheck SCRF=Check GenChk RM062X/6-31+G(d) Freq\\
 2-methylbut-2-ene\\0,1\C,-0.9576774155,-0.3716327986,0.3302845436\C,-1
 .3703120165,0.2586136694,1.6296014506\C,-2.4440320504,-0.0192992519,2.
 3801497719\C,-2.7019102002,0.7214049152,3.66801827\C,-3.483982344,-1.0
 584328731,2.0510262466\H,-0.8917067468,0.3835009407,-0.4619583658\H,0.
 0364196023,-0.8256129035,0.4192865923\H,-1.6486810324,-1.1472744508,-0
 .0061246558\H,-0.6997449679,1.0389052887,1.9931363487\H,-3.6710810377,
 1.2352454598,3.6343174454\H,-2.7417050819,0.0258365391,4.5159948158\H,
 -1.9263990584,1.4652794193,3.8709455542\H,-3.546062841,-1.8018250698,2
 .8558143541\H,-4.4748767538,-0.5931681984,1.9746714802\H,-3.2878480557
 ,-1.5882406862,1.1175361482\\Version=ES64L-G09RevD.01\State=1-A\HF=-19
 6.433702\RMSD=3.417e-10\RMSF=2.468e-06\ZeroPoint=0.1377237\Thermal=0.1
 4459\Dipole=-0.060481,-0.0475265,-0.001328\DipoleDeriv=0.0437138,-0.02
 82405,0.089374,-0.0516737,0.0871666,-0.0526056,0.0570201,-0.0773348,-0
 .0009486,-0.0760755,0.1019927,-0.0737566,0.0485692,-0.1100907,0.180221
 8,-0.1468684,0.1239752,0.045977,0.0992593,0.1644133,-0.1142904,0.18476
 4,0.0080965,0.1223453,-0.0864099,0.1437764,0.0652485,0.0665843,-0.0383
 917,0.0530893,-0.0678668,0.0706234,-0.0605392,0.0126649,-0.0916126,0.0
 278884,0.0370605,-0.0848243,0.0144556,-0.0694572,0.0400603,-0.0928769,
 0.0355691,-0.0766617,0.0184906,0.0746836,0.0036186,0.015468,0.0051624,
 -0.0314577,0.0964549,0.0763428,0.060461,-0.0942108,-0.1066463,0.081442
 9,0.0283874,0.1035438,0.0467233,-0.051248,-0.0000484,0.0096636,0.00887
 01,-0.0085019,-0.1011216,-0.0611375,-0.0586385,-0.0355935,-0.0765404,-
 0.0028074,-0.031766,0.0245966,-0.0073177,-0.1086063,0.0020302,-0.11521
 01,-0.0220039,-0.0952211,-0.0070466,-0.1021849,0.003197,-0.1140877,0.1
 001193,0.0381786,0.0916737,0.0324467,-0.0515511,-0.0140237,0.0076536,0
 .0115453,0.0705356,0.0022732,0.0183884,0.001879,-0.036021,0.1169353,0.
 0584702,0.0484115,-0.1046106,-0.0370748,-0.1223924,-0.0518051,-0.07279
 43,-0.0326156,-0.0682059,0.0162263,-0.0159295,0.0340959,0.0315846,-0.0
 105577,-0.0056526,-0.0736804,-0.0254015,0.0924851,0.0198082,0.1226249,
 -0.0510164,-0.1339859,0.0216808,0.0115811,0.0865958,0.0044323,0.017724
 5,-0.011425,-0.0105307,0.0847058,0.0602679,0.0185938,0.0356896,-0.0128
 67,0.0036348,-0.0773787,-0.0074722,-0.1105459,-0.073829\Polar=65.22195
 23,5.0231019,51.7584292,-13.1111622,2.266708,63.1732384\PG=C01 [X(C5H1
 0)]\NImag=0\\0.56471708,0.02739780,0.56316754,0.01794630,-0.00548981,0
 .51970299,-0.09507155,0.00847295,0.03694334,0.64875649,0.00831349,-0.1
 1144669,-0.06418411,0.21995279,0.40381949,0.03672781,-0.06434338,-0.19
 801552,-0.22854864,0.12224196,0.55424332,-0.00282925,0.00147205,0.0090
 6982,-0.37758211,-0.09765273,0.20720349,0.65338649,0.01162428,0.008331
 51,-0.00611430,-0.09356159,-0.10354976,0.03054190,0.18582168,0.3854700
 5,0.02299037,0.00458339,-0.01408557,0.21281969,0.03485415,-0.23043065,
 -0.23926624,0.07969234,0.54608734,0.00151002,-0.00664213,0.00396175,-0
 .00409715,0.01206646,0.02652051,-0.08615295,0.00546376,0.02048387,0.57
 919056,-0.00691736,0.00608561,-0.00344564,0.00010222,0.00636130,0.0012
 6552,0.00752701,-0.11582743,-0.06554147,0.03129386,0.55892278,0.003582
 33,-0.00373545,0.00501078,0.01010971,-0.01134505,-0.02085817,0.0233133
 7,-0.06336798,-0.18532692,0.00926473,-0.01697813,0.51419487,-0.0002942
 0,0.00213524,-0.00261808,-0.01829278,-0.02172534,-0.00300235,-0.148131
 16,-0.07045439,-0.01930807,0.00455330,0.00077137,-0.00057313,0.5235326
 3,0.00283780,-0.00231183,0.00146510,-0.01076717,-0.00088285,0.00035776
 ,-0.06956417,-0.14909389,-0.02862304,-0.01347495,-0.01331917,-0.008187
 87,-0.02882334,0.53600419,-0.00165657,0.00220441,-0.00078904,0.0120291
 8,0.01190789,0.01078298,-0.01808668,-0.02768401,-0.09367691,-0.0201149
 3,-0.02320546,-0.00762153,-0.01791328,0.01934237,0.58947116,-0.0466593
 8,-0.01251774,0.00869952,-0.00258936,-0.00696576,0.00936366,0.00041121
 ,0.00051640,0.00106993,-0.00072822,0.00067553,-0.00026218,0.00011720,-
 0.00040196,0.00030882,0.04820176,-0.01171802,-0.17727135,0.13151548,0.
 00083985,0.01356269,-0.01232170,0.00019660,-0.00073425,-0.00155138,0.0
 0093500,-0.00070859,0.00064974,-0.00027169,-0.00020306,-0.00021729,0.0
 1074759,0.19082526,0.00854773,0.13439807,-0.18296912,0.00549720,0.0192
 5016,-0.02228863,-0.00232693,-0.00238299,-0.00192289,0.00204704,-0.001
 28476,0.00087557,-0.00057112,0.00028680,-0.00061196,-0.01310323,-0.144
 46434,0.20087488,-0.26650150,0.09842673,-0.02539764,-0.00770886,0.0021
 2618,0.00295545,0.00118866,0.00143085,0.00001921,0.00007169,-0.0005741
 0,0.00064966,-0.00043593,0.00029418,-0.00025888,0.00194426,-0.00123851
 ,-0.00040272,0.28891199,0.09944845,-0.09353146,0.00955046,0.01223046,-
 0.00443008,0.00051500,-0.00118356,-0.00144505,-0.00053050,-0.00013809,
 0.00095910,-0.00056724,-0.00010755,-0.00038377,-0.00000597,0.02221018,
 -0.01040556,0.00241074,-0.11017182,0.09737482,-0.02274610,0.00857837,-
 0.04685916,0.03139378,-0.01218549,0.00082288,-0.00060888,-0.00279233,-
 0.00198487,-0.00070748,0.00210116,-0.00159209,0.00024618,-0.00079849,0
 .00012202,-0.02270746,0.00920344,-0.00255028,0.02362355,-0.00938090,0.
 05361080,-0.16042158,-0.12486496,-0.05305319,0.00826775,0.00811390,0.0
 0076962,-0.00038054,-0.00048099,-0.00039642,-0.00001007,-0.00003568,-0
 .00006532,-0.00140871,-0.00000620,0.00113968,-0.00101015,0.00052919,0.
 00028897,-0.01779782,-0.02227289,-0.00783636,0.17459507,-0.12401092,-0
 .18612384,-0.05870609,-0.00820046,-0.01036324,-0.00342136,-0.00090990,
 -0.00035685,0.00065102,0.00013378,0.00004165,-0.00004937,-0.00045474,-
 0.00028883,0.00052041,-0.01474697,-0.01559228,-0.00772434,0.00913499,0
 .01148676,0.00477285,0.13880150,0.19937550,-0.05188013,-0.05780779,-0.
 07281247,-0.02161530,-0.02060254,-0.00707029,-0.00098521,0.00019708,0.
 00117893,0.00016834,0.00012920,-0.00002357,0.00052464,0.00004726,-0.00
 080762,0.01662047,0.01607454,0.00827438,-0.00203592,-0.00203683,-0.002
 01973,0.05449848,0.06488161,0.07715186,0.00725515,0.00668572,0.0042582
 0,-0.15220237,-0.12419397,-0.05033655,-0.01545929,-0.02173894,-0.00814
 018,-0.00226689,0.00196644,-0.00370354,0.00163694,-0.00333377,0.006272
 63,0.00021457,-0.00030656,-0.00022141,0.00038495,-0.00033647,-0.001010
 55,0.00034517,0.00088019,0.00239800,0.16050867,-0.00850239,-0.00695924
 ,-0.00414210,-0.12668160,-0.18687230,-0.07022502,-0.00667949,-0.003515
 71,-0.00478780,0.00448789,-0.00339646,0.00205010,-0.00406140,0.0066113
 1,-0.00301009,0.00020739,0.00024160,-0.00064922,0.00009410,0.00013599,
 0.00048182,0.00090606,0.00043065,-0.00238648,0.14008580,0.19267941,-0.
 01657359,-0.02014670,-0.00757896,-0.05374926,-0.07284687,-0.08160167,0
 .01251659,0.01108513,0.00712008,-0.00024530,0.00470778,-0.00162354,0.0
 0527557,-0.00377612,0.00118604,-0.00040926,0.00089491,0.00070224,0.000
 47203,-0.00006883,0.00063361,0.00243264,-0.00236221,-0.00432647,0.0495
 4374,0.08206635,0.08555766,0.00025845,-0.00044640,0.00048261,0.0006957
 6,0.00117892,0.00045924,-0.00544127,0.00133611,0.00336692,-0.25513914,
 0.10751804,-0.01296967,0.00044313,-0.00052799,-0.00029541,-0.00002077,
 0.00016478,0.00020259,-0.00001299,-0.00003394,-0.00008620,0.00002486,0
 .00006261,0.00012181,-0.00014445,0.00073598,-0.00037479,0.27641891,0.0
 0007846,0.00100115,-0.00050713,-0.00097149,-0.00134433,-0.00080628,0.0
 1354474,-0.00633990,0.00045361,0.10850506,-0.10662990,0.00408902,0.000
 40173,0.00054666,0.00040106,0.00008998,-0.00020742,-0.00029804,-0.0000
 1744,-0.00008549,0.00003576,-0.00001499,-0.00007612,0.00000310,0.00016
 091,0.00009033,0.00002266,-0.12073515,0.11190105,-0.00062281,0.0020971
 8,-0.00164772,-0.00036882,-0.00261824,-0.00235556,0.02856788,-0.014405
 22,-0.00015818,-0.01063021,0.00356451,-0.04582043,0.00057976,0.0009623
 6,0.00075721,0.00026192,-0.00033062,-0.00067574,-0.00008838,0.00004536
 ,0.00028635,-0.00002900,-0.00007598,0.00001038,0.00071376,-0.00074192,
 0.00043525,0.01052632,-0.00336520,0.05188152,-0.00057675,0.00082122,-0
 .00030515,0.00012985,0.00050183,0.00117672,-0.00180212,-0.00405104,0.0
 0748752,-0.04689999,-0.00805640,0.00436069,-0.00004352,-0.00005380,-0.
 00045371,0.00002574,-0.00009762,-0.00016574,-0.00008780,0.00010462,0.0
 0022564,-0.00001060,0.00004681,0.00002570,0.00062403,-0.00045078,0.000
 52019,0.00095485,0.01974836,-0.02372288,0.04760991,0.00117458,-0.00066
 191,0.00052723,0.00004925,-0.00083284,-0.00147015,-0.00067405,0.013010
 71,-0.01390521,-0.00721845,-0.15827293,0.12882769,0.00037995,0.0007818
 0,-0.00001457,-0.00010224,0.00004233,0.00010667,0.00016557,-0.00011361
 ,-0.00033912,-0.00005970,0.00006314,0.00004142,0.00018056,0.00030758,-
 0.00017459,-0.00101320,-0.01091623,0.01158647,0.00580836,0.17002485,0.
 00200524,-0.00115211,0.00085063,-0.00156551,-0.00240147,-0.00230094,0.
 00366553,0.01738215,-0.02314811,0.00452429,0.13127583,-0.20241419,0.00
 054140,0.00086159,0.00100876,-0.00014738,0.00010966,0.00011958,0.00014
 731,-0.00032102,-0.00070271,-0.00007624,-0.00007350,-0.00009303,-0.000
 49122,0.00064918,-0.00055062,-0.00056894,0.00115166,-0.00121820,-0.008
 04697,-0.14161582,0.22256490,0.00019105,0.00005849,-0.00024451,0.00024
 547,0.00160144,0.00124829,0.00358705,0.00475828,0.00085190,-0.18793965
 ,-0.13263130,-0.03517175,0.00071356,0.00031097,0.00057605,0.00003671,-
 0.00002498,-0.00007917,0.00001789,-0.00000336,-0.00002662,0.00004355,0
 .00007919,0.00005195,0.00037793,0.00001735,0.00014210,-0.01860027,-0.0
 2017972,-0.00425283,-0.00006473,0.00115039,0.00036878,0.20087702,0.000
 41488,0.00020054,-0.00000140,-0.00068537,0.00025533,0.00196967,-0.0117
 3022,-0.01175479,-0.00129445,-0.13117265,-0.17341880,-0.03279747,0.001
 49912,-0.00059988,-0.00357657,-0.00000877,-0.00001267,-0.00001657,0.00
 002437,-0.00005219,-0.00007667,-0.00003187,0.00011552,0.00020611,0.000
 69557,0.00077709,-0.00033954,0.01146867,0.01222729,0.00299942,-0.01438
 900,-0.01327045,-0.00466223,0.14479209,0.18531061,0.00024427,0.0003739
 6,0.00013878,-0.00188835,-0.00044041,0.00073186,-0.02176579,-0.0186753
 2,-0.00447043,-0.03317100,-0.03125996,-0.05662437,0.00220595,-0.002323
 96,-0.00465769,-0.00001827,-0.00002787,-0.00004175,-0.00002726,-0.0000
 1893,0.00001651,-0.00010043,0.00008901,0.00021764,0.00107238,0.0003753
 0,-0.00012536,-0.00104408,-0.00069115,-0.00136774,0.01925706,0.0160088
 9,0.00559404,0.03584049,0.03784384,0.06058858,0.00025791,-0.00069358,0
 .00026376,-0.00100939,-0.00219293,-0.00186547,-0.00403637,-0.01879684,
 0.01962050,0.00031492,0.00084895,0.00064222,-0.04413762,-0.00830678,0.
 00994558,-0.00019234,-0.00002277,0.00012870,0.00000658,0.00006683,0.00
 004433,0.00015260,-0.00000715,-0.00000570,-0.00164094,0.00098718,-0.00
 058646,-0.00001620,0.00013881,-0.00020150,0.00031233,-0.00000700,-0.00
 058413,-0.00015164,0.00035319,0.00007261,0.04984400,0.00019858,-0.0005
 1887,0.00002858,-0.00035490,-0.00209774,-0.00259179,-0.00327251,-0.015
 33985,0.01693935,0.00014475,0.00076504,0.00070524,-0.00737969,-0.16760
 741,0.13163143,0.00011538,0.00015511,0.00018138,0.00001182,0.00008924,
 0.00012606,0.00006526,0.00013502,0.00022129,-0.00135571,0.00086057,-0.
 00040818,0.00003273,-0.00013057,0.00007085,-0.00010829,-0.00024428,-0.
 00093893,-0.00004545,0.00050704,-0.00019264,0.01190816,0.18154361,0.00
 014209,-0.00011474,-0.00019057,-0.00135071,-0.00058440,-0.00003950,0.0
 0279693,-0.00539686,0.00640469,-0.00014579,-0.00044430,0.00067198,0.00
 802584,0.12986299,-0.19396268,0.00022365,0.00018723,0.00009411,0.00004
 645,0.00000231,0.00001041,-0.00002498,0.00024152,0.00030719,-0.0004429
 2,0.00056903,-0.00022155,-0.00001185,0.00001796,-0.00005182,-0.0002448
 3,0.00015940,-0.00011199,0.00016380,0.00005996,0.00020693,-0.00906734,
 -0.14471178,0.20817608,-0.00049571,0.00026098,-0.00040569,-0.00016028,
 -0.00196365,-0.00284415,-0.02380682,0.00704681,0.00035103,0.00075383,0
 .00060266,0.00085080,-0.25992525,0.10665527,-0.01676610,0.00000607,0.0
 0006828,0.00012350,-0.00012399,0.00000890,0.00013491,0.00003503,0.0000
 8765,-0.00009239,0.00012803,-0.00132651,0.00108283,0.00035718,-0.00048
 270,-0.00072072,-0.00001506,0.00000672,-0.00004658,0.00038806,-0.00025
 571,0.00032865,0.00167178,-0.00037751,-0.00014271,0.28565257,-0.000344
 57,0.00022168,-0.00054547,-0.00146679,-0.00238752,-0.00132554,-0.02405
 491,0.01154876,-0.00210535,-0.00019428,0.00078385,0.00065390,0.1039398
 7,-0.09665835,0.00560441,0.00003208,0.00006231,0.00004141,0.00000809,0
 .00013780,0.00015630,0.00004954,0.00023089,0.00017412,0.00045729,-0.00
 148384,0.00132364,0.00038103,-0.00033796,-0.00024166,0.00016205,-0.000
 12893,-0.00000667,0.00013929,0.00014506,0.00031575,0.02063135,-0.01056
 782,0.00076331,-0.11232389,0.10556188,0.00010935,-0.00009879,-0.000178
 49,-0.00015673,-0.00087221,-0.00059796,-0.00419200,0.00381144,-0.00071
 442,-0.00042036,0.00022107,0.00021445,-0.01729994,0.00548729,-0.049122
 56,-0.00000394,0.00006886,0.00003823,0.00022856,0.00029483,0.00004327,
 -0.00002593,0.00018950,0.00032837,0.00017246,-0.00024277,0.00035374,-0
 .00001427,-0.00053643,-0.00006314,-0.00016865,0.00009813,-0.00005464,0
 .00023243,0.00005928,0.00002919,-0.02337551,0.01106522,-0.00215378,0.0
 1854821,-0.00739764,0.04834841,-0.00133974,-0.00056637,0.00039895,0.00
 061853,0.00083937,0.00017237,0.00704845,-0.00891438,-0.02195004,-0.003
 16025,-0.00309124,-0.00002793,-0.05832757,0.02516190,0.04527363,0.0002
 4269,0.00019886,0.00003457,0.00014287,0.00017825,0.00006126,-0.0024245
 5,-0.00089658,0.00220527,0.00023849,0.00018043,-0.00004704,0.00022194,
 -0.00026655,-0.00001249,-0.00015614,0.00015927,0.00027441,0.00027801,-
 0.00097430,-0.00100623,-0.00137563,0.00041740,0.00003237,-0.00446542,0
 .01258385,0.02636632,0.06245834,0.00000494,-0.00018284,0.00004920,0.00
 104185,0.00020855,-0.00038659,0.00715947,-0.01040354,-0.01883467,-0.00
 419000,-0.00234605,0.00005286,0.02415086,-0.11259493,-0.11389802,0.000
 14891,0.00024586,0.00014504,0.00028499,0.00026350,0.00011726,-0.000698
 14,0.00092203,0.00085791,0.00015293,0.00009302,0.00002256,-0.00012219,
 0.00030143,0.00045271,0.00001368,0.00021077,-0.00025831,-0.00002268,-0
 .00042970,-0.00137650,-0.00490740,0.01245091,0.01938838,0.00199271,-0.
 00712781,-0.01214777,-0.02500992,0.11838880,0.00118371,0.00065340,-0.0
 0057656,0.00045042,-0.00017335,-0.00102218,0.00009812,-0.00189104,-0.0
 0487209,-0.00153546,-0.00110535,0.00093716,0.04388662,-0.11496405,-0.2
 5207820,0.00010375,0.00020935,0.00008138,0.00006857,0.00011152,0.00016
 298,0.00247847,0.00106693,-0.00031557,-0.00008479,-0.00000639,0.000039
 54,0.00020572,0.00002941,-0.00001218,0.00005440,0.00016358,0.00045651,
 0.00029908,-0.00037338,-0.00023620,0.00496837,-0.01212607,-0.01913950,
 -0.00040158,0.00258948,0.00352932,-0.05177542,0.12581596,0.27304557\\-
 0.00000052,0.00000729,-0.00000044,-0.00000077,0.00000193,-0.00000038,-
 0.00000328,0.00000225,-0.00000133,-0.00000261,-0.00000220,0.00000083,0
 .00000367,-0.00000412,-0.00000027,0.00000386,0.00000234,0.00000366,0.0
 0000289,0.00000078,0.00000201,0.00000517,0.00000111,0.00000041,-0.0000
 0010,0.00000090,0.00000230,-0.00000242,-0.00000314,-0.00000104,-0.0000
 0265,-0.00000259,0.00000003,-0.00000302,-0.00000191,0.00000170,-0.0000
 0110,-0.00000214,-0.00000288,0.00000024,-0.00000123,-0.00000311,0.0000
 0063,0.00000072,-0.00000148\\\@


 YOU WILL NEVER "FIND" TIME FOR ANYTHING.
 IF YOU WANT TIME, YOU MUST MAKE IT.

                        -- CHARLES BIXTON
 Job cpu time:       0 days  0 hours  2 minutes 33.0 seconds.
 File lengths (MBytes):  RWF=    132 Int=      0 D2E=      0 Chk=      3 Scr=      2
 Normal termination of Gaussian 09 at Fri Mar 21 15:11:40 2025.
