 Entering Gaussian System, Link 0=g09
 Initial command:
 /apps/z_install_tree/linux-rocky8-ivybridge/gcc-12.2.0/gaussian-09-D.01-wczn3gur5lpur3omlkzwa2l5ecyxp5ef/g09/l1.exe "/srv/scratch/z5358697/gauss/Gau-2169371.inp" -scrdir="/srv/scratch/z5358697/gauss/"
 Entering Link 1 = /apps/z_install_tree/linux-rocky8-ivybridge/gcc-12.2.0/gaussian-09-D.01-wczn3gur5lpur3omlkzwa2l5ecyxp5ef/g09/l1.exe PID=   2169372.
  
 Copyright (c) 1988,1990,1992,1993,1995,1998,2003,2009,2013,
            Gaussian, Inc.  All Rights Reserved.
  
 This is part of the Gaussian(R) 09 program.  It is based on
 the Gaussian(R) 03 system (copyright 2003, Gaussian, Inc.),
 the Gaussian(R) 98 system (copyright 1998, Gaussian, Inc.),
 the Gaussian(R) 94 system (copyright 1995, Gaussian, Inc.),
 the Gaussian 92(TM) system (copyright 1992, Gaussian, Inc.),
 the Gaussian 90(TM) system (copyright 1990, Gaussian, Inc.),
 the Gaussian 88(TM) system (copyright 1988, Gaussian, Inc.),
 the Gaussian 86(TM) system (copyright 1986, Carnegie Mellon
 University), and the Gaussian 82(TM) system (copyright 1983,
 Carnegie Mellon University). Gaussian is a federally registered
 trademark of Gaussian, Inc.
  
 This software contains proprietary and confidential information,
 including trade secrets, belonging to Gaussian, Inc.
  
 This software is provided under written license and may be
 used, copied, transmitted, or stored only in accord with that
 written license.
  
 The following legend is applicable only to US Government
 contracts under FAR:
  
                    RESTRICTED RIGHTS LEGEND
  
 Use, reproduction and disclosure by the US Government is
 subject to restrictions as set forth in subparagraphs (a)
 and (c) of the Commercial Computer Software - Restricted
 Rights clause in FAR 52.227-19.
  
 Gaussian, Inc.
 340 Quinnipiac St., Bldg. 40, Wallingford CT 06492
  
  
 ---------------------------------------------------------------
 Warning -- This program may not be used in any manner that
 competes with the business of Gaussian, Inc. or will provide
 assistance to any competitor of Gaussian, Inc.  The licensee
 of this program is prohibited from giving any competitor of
 Gaussian, Inc. access to this program.  By using this program,
 the user acknowledges that Gaussian, Inc. is engaged in the
 business of creating and licensing software in the field of
 computational chemistry and represents and warrants to the
 licensee that it is not a competitor of Gaussian, Inc. and that
 it will not use this program in any manner prohibited above.
 ---------------------------------------------------------------
  

 Cite this work as:
 Gaussian 09, Revision D.01,
 M. J. Frisch, G. W. Trucks, H. B. Schlegel, G. E. Scuseria, 
 M. A. Robb, J. R. Cheeseman, G. Scalmani, V. Barone, B. Mennucci, 
 G. A. Petersson, H. Nakatsuji, M. Caricato, X. Li, H. P. Hratchian, 
 A. F. Izmaylov, J. Bloino, G. Zheng, J. L. Sonnenberg, M. Hada, 
 M. Ehara, K. Toyota, R. Fukuda, J. Hasegawa, M. Ishida, T. Nakajima, 
 Y. Honda, O. Kitao, H. Nakai, T. Vreven, J. A. Montgomery, Jr., 
 J. E. Peralta, F. Ogliaro, M. Bearpark, J. J. Heyd, E. Brothers, 
 K. N. Kudin, V. N. Staroverov, T. Keith, R. Kobayashi, J. Normand, 
 K. Raghavachari, A. Rendell, J. C. Burant, S. S. Iyengar, J. Tomasi, 
 M. Cossi, N. Rega, J. M. Millam, M. Klene, J. E. Knox, J. B. Cross, 
 V. Bakken, C. Adamo, J. Jaramillo, R. Gomperts, R. E. Stratmann, 
 O. Yazyev, A. J. Austin, R. Cammi, C. Pomelli, J. W. Ochterski, 
 R. L. Martin, K. Morokuma, V. G. Zakrzewski, G. A. Voth, 
 P. Salvador, J. J. Dannenberg, S. Dapprich, A. D. Daniels, 
 O. Farkas, J. B. Foresman, J. V. Ortiz, J. Cioslowski, 
 and D. J. Fox, Gaussian, Inc., Wallingford CT, 2013.
 
 ******************************************
 Gaussian 09:  ES64L-G09RevD.01 24-Apr-2013
                14-Mar-2025 
 ******************************************
 ---------------------------------
 #m062X/6-31+G(d) OPT Freq=noraman
 ---------------------------------
 1/14=-1,18=20,19=15,26=3,38=1/1,3;
 2/9=110,12=2,17=6,18=5,40=1/2;
 3/5=1,6=6,7=11,11=2,16=1,25=1,30=1,71=1,74=-55/1,2,3;
 4//1;
 5/5=2,38=5/2;
 6/7=2,8=2,9=2,10=2,28=1/1;
 7//1,2,3,16;
 1/14=-1,18=20,19=15,26=3/3(2);
 2/9=110/2;
 99//99;
 2/9=110/2;
 3/5=1,6=6,7=11,11=2,16=1,25=1,30=1,71=1,74=-55/1,2,3;
 4/5=5,16=3,69=1/1;
 5/5=2,38=5/2;
 7//1,2,3,16;
 1/14=-1,18=20,19=15,26=3/3(-5);
 2/9=110/2;
 6/7=2,8=2,9=2,10=2,19=2,28=1/1;
 99/9=1/99;
 -------
 methane
 -------
 Symbolic Z-matrix:
 Charge =  0 Multiplicity = 1
 C                     0.       -0.0001    0. 
 H                     0.5541    0.7996    0.4965 
 H                     0.6833   -0.8134   -0.2537 
 H                    -0.7782   -0.3735    0.6693 
 H                    -0.4591    0.3873   -0.9121 
 

 GradGradGradGradGradGradGradGradGradGradGradGradGradGradGradGradGradGrad
 Berny optimization.
 Initialization pass.
                           ----------------------------
                           !    Initial Parameters    !
                           ! (Angstroms and Degrees)  !
 --------------------------                            --------------------------
 ! Name  Definition              Value          Derivative Info.                !
 --------------------------------------------------------------------------------
 ! R1    R(1,2)                  1.0923         estimate D2E/DX2                !
 ! R2    R(1,3)                  1.0921         estimate D2E/DX2                !
 ! R3    R(1,4)                  1.0922         estimate D2E/DX2                !
 ! R4    R(1,5)                  1.0921         estimate D2E/DX2                !
 ! A1    A(2,1,3)              109.4769         estimate D2E/DX2                !
 ! A2    A(2,1,4)              109.4624         estimate D2E/DX2                !
 ! A3    A(2,1,5)              109.4611         estimate D2E/DX2                !
 ! A4    A(3,1,4)              109.4835         estimate D2E/DX2                !
 ! A5    A(3,1,5)              109.4607         estimate D2E/DX2                !
 ! A6    A(4,1,5)              109.4827         estimate D2E/DX2                !
 ! D1    D(2,1,4,3)           -120.0091         estimate D2E/DX2                !
 ! D2    D(2,1,5,3)            119.9943         estimate D2E/DX2                !
 ! D3    D(2,1,5,4)           -119.99           estimate D2E/DX2                !
 ! D4    D(3,1,5,4)            120.0156         estimate D2E/DX2                !
 --------------------------------------------------------------------------------
 Trust Radius=3.00D-01 FncErr=1.00D-07 GrdErr=1.00D-06
 Number of steps in this run=     24 maximum allowed number of steps=    100.
 GradGradGradGradGradGradGradGradGradGradGradGradGradGradGradGradGradGrad

                          Input orientation:                          
 ---------------------------------------------------------------------
 Center     Atomic      Atomic             Coordinates (Angstroms)
 Number     Number       Type             X           Y           Z
 ---------------------------------------------------------------------
      1          6           0        0.000000   -0.000100    0.000000
      2          1           0        0.554100    0.799600    0.496500
      3          1           0        0.683300   -0.813400   -0.253700
      4          1           0       -0.778200   -0.373500    0.669300
      5          1           0       -0.459100    0.387300   -0.912100
 ---------------------------------------------------------------------
                    Distance matrix (angstroms):
                    1          2          3          4          5
     1  C    0.000000
     2  H    1.092272   0.000000
     3  H    1.092117   1.783609   0.000000
     4  H    1.092239   1.783549   1.783654   0.000000
     5  H    1.092144   1.783457   1.783325   1.783667   0.000000
 Stoichiometry    CH4
 Framework group  C1[X(CH4)]
 Deg. of freedom     9
 Full point group                 C1      NOp   1
 Largest Abelian subgroup         C1      NOp   1
 Largest concise Abelian subgroup C1      NOp   1
                         Standard orientation:                         
 ---------------------------------------------------------------------
 Center     Atomic      Atomic             Coordinates (Angstroms)
 Number     Number       Type             X           Y           Z
 ---------------------------------------------------------------------
      1          6           0        0.000001    0.000041   -0.000005
      2          1           0       -0.293240   -0.968946   -0.410046
      3          1           0        0.629313    0.525411   -0.721581
      4          1           0       -0.893454    0.594046    0.204644
      5          1           0        0.557379   -0.150757    0.927015
 ---------------------------------------------------------------------
 Rotational constants (GHZ):    157.6612035    157.6402355    157.6165482
 Standard basis: 6-31+G(d) (6D, 7F)
 There are    27 symmetry adapted cartesian basis functions of A   symmetry.
 There are    27 symmetry adapted basis functions of A   symmetry.
    27 basis functions,    48 primitive gaussians,    27 cartesian basis functions
     5 alpha electrons        5 beta electrons
       nuclear repulsion energy        13.4084129658 Hartrees.
 NAtoms=    5 NActive=    5 NUniq=    5 SFac= 1.00D+00 NAtFMM=   60 NAOKFM=F Big=F
 Integral buffers will be    131072 words long.
 Raffenetti 2 integral format.
 Two-electron integral symmetry is turned on.
 One-electron integrals computed using PRISM.
 NBasis=    27 RedAO= T EigKep=  1.24D-02  NBF=    27
 NBsUse=    27 1.00D-06 EigRej= -1.00D+00 NBFU=    27
 ExpMin= 4.38D-02 ExpMax= 3.05D+03 ExpMxC= 4.57D+02 IAcc=2 IRadAn=         4 AccDes= 0.00D+00
 Harris functional with IExCor= 1009 and IRadAn=       4 diagonalized for initial guess.
 HarFok:  IExCor= 1009 AccDes= 0.00D+00 IRadAn=         4 IDoV= 1 UseB2=F ITyADJ=14
 ICtDFT=  3500011 ScaDFX=  1.000000  1.000000  1.000000  1.000000
 FoFCou: FMM=F IPFlag=           0 FMFlag=      100000 FMFlg1=           0
         NFxFlg=           0 DoJE=T BraDBF=F KetDBF=T FulRan=T
         wScrn=  0.000000 ICntrl=     500 IOpCl=  0 I1Cent=   200000004 NGrid=           0
         NMat0=    1 NMatS0=      1 NMatT0=    0 NMatD0=    1 NMtDS0=    0 NMtDT0=    0
 Petite list used in FoFCou.
 Keep R1 ints in memory in canonical form, NReq=953308.
 Requested convergence on RMS density matrix=1.00D-08 within 128 cycles.
 Requested convergence on MAX density matrix=1.00D-06.
 Requested convergence on             energy=1.00D-06.
 No special actions if energy rises.
 SCF Done:  E(RM062X) =  -40.4835371934     A.U. after    7 cycles
            NFock=  7  Conv=0.37D-08     -V/T= 2.0099

 **********************************************************************

            Population analysis using the SCF density.

 **********************************************************************

 Orbital symmetries:
       Occupied  (A) (A) (A) (A) (A)
       Virtual   (A) (A) (A) (A) (A) (A) (A) (A) (A) (A) (A) (A)
                 (A) (A) (A) (A) (A) (A) (A) (A) (A) (A)
 The electronic state is 1-A.
 Alpha  occ. eigenvalues --  -10.52733  -0.78591  -0.45646  -0.45642  -0.45638
 Alpha virt. eigenvalues --    0.03890   0.07121   0.07122   0.07123   0.22932
 Alpha virt. eigenvalues --    0.22937   0.22939   0.30992   0.69230   0.69232
 Alpha virt. eigenvalues --    0.69234   0.99791   0.99798   0.99805   1.11477
 Alpha virt. eigenvalues --    1.18274   1.70887   1.70892   2.33100   2.33104
 Alpha virt. eigenvalues --    2.33113   4.24453
          Condensed to atoms (all electrons):
               1          2          3          4          5
     1  C    5.300047   0.379140   0.379150   0.379149   0.379143
     2  H    0.379140   0.487241  -0.023505  -0.023516  -0.023518
     3  H    0.379150  -0.023505   0.487211  -0.023503  -0.023529
     4  H    0.379149  -0.023516  -0.023503   0.487221  -0.023498
     5  H    0.379143  -0.023518  -0.023529  -0.023498   0.487253
 Mulliken charges:
               1
     1  C   -0.816629
     2  H    0.204159
     3  H    0.204176
     4  H    0.204147
     5  H    0.204149
 Sum of Mulliken charges =   0.00000
 Mulliken charges with hydrogens summed into heavy atoms:
               1
     1  C    0.000000
 Electronic spatial extent (au):  <R**2>=             35.9626
 Charge=              0.0000 electrons
 Dipole moment (field-independent basis, Debye):
    X=              0.0001    Y=             -0.0002    Z=             -0.0001  Tot=              0.0002
 Quadrupole moment (field-independent basis, Debye-Ang):
   XX=             -8.4834   YY=             -8.4842   ZZ=             -8.4847
   XY=              0.0001   XZ=             -0.0001   YZ=             -0.0002
 Traceless Quadrupole moment (field-independent basis, Debye-Ang):
   XX=              0.0007   YY=             -0.0001   ZZ=             -0.0006
   XY=              0.0001   XZ=             -0.0001   YZ=             -0.0002
 Octapole moment (field-independent basis, Debye-Ang**2):
  XXX=             -0.2404  YYY=             -0.4257  ZZZ=              0.2746  XYY=             -0.3078
  XXY=              0.4209  XXZ=              0.0993  XZZ=              0.5488  YZZ=              0.0046
  YYZ=             -0.3741  XYZ=             -0.4128
 Hexadecapole moment (field-independent basis, Debye-Ang**3):
 XXXX=            -16.7922 YYYY=            -16.5819 ZZZZ=            -16.6288 XXXY=             -0.3350
 XXXZ=             -0.1767 YYYX=              0.1925 YYYZ=              0.3503 ZZZX=              0.2504
 ZZZY=             -0.2801 XXYY=             -5.3931 XXZZ=             -5.3446 YYZZ=             -5.5554
 XXYZ=             -0.0712 YYXZ=             -0.0743 ZZXY=              0.1429
 N-N= 1.340841296580D+01 E-N=-1.197992787370D+02  KE= 4.008577925470D+01
 Calling FoFJK, ICntrl=      2127 FMM=F ISym2X=0 I1Cent= 0 IOpClX= 0 NMat=1 NMatS=1 NMatT=0.
 ***** Axes restored to original set *****
 -------------------------------------------------------------------
 Center     Atomic                   Forces (Hartrees/Bohr)
 Number     Number              X              Y              Z
 -------------------------------------------------------------------
      1        6           0.000081872    0.000024651    0.000040443
      2        1          -0.000182403   -0.000269118   -0.000130534
      3        1          -0.000163752    0.000184277    0.000077054
      4        1           0.000191925    0.000132288   -0.000245618
      5        1           0.000072359   -0.000072097    0.000258656
 -------------------------------------------------------------------
 Cartesian Forces:  Max     0.000269118 RMS     0.000161326

 GradGradGradGradGradGradGradGradGradGradGradGradGradGradGradGradGradGrad
 Berny optimization.
 FormGI is forming the generalized inverse of G from B-inverse, IUseBI=4.
 Internal  Forces:  Max     0.000348899 RMS     0.000165336
 Search for a local minimum.
 Step number   1 out of a maximum of   24
 All quantities printed in internal units (Hartrees-Bohrs-Radians)
 Mixed Optimization -- En-DIIS/RFO-DIIS
 Second derivative matrix not updated -- first step.
 The second derivative matrix:
                          R1        R2        R3        R4        A1
           R1           0.34551
           R2           0.00000   0.34569
           R3           0.00000   0.00000   0.34555
           R4           0.00000   0.00000   0.00000   0.34566
           A1           0.00000   0.00000   0.00000   0.00000   0.16000
           A2           0.00000   0.00000   0.00000   0.00000   0.00000
           A3           0.00000   0.00000   0.00000   0.00000   0.00000
           A4           0.00000   0.00000   0.00000   0.00000   0.00000
           A5           0.00000   0.00000   0.00000   0.00000   0.00000
           A6           0.00000   0.00000   0.00000   0.00000   0.00000
           D1           0.00000   0.00000   0.00000   0.00000   0.00000
           D2           0.00000   0.00000   0.00000   0.00000   0.00000
           D3           0.00000   0.00000   0.00000   0.00000   0.00000
           D4           0.00000   0.00000   0.00000   0.00000   0.00000
                          A2        A3        A4        A5        A6
           A2           0.16000
           A3           0.00000   0.16000
           A4           0.00000   0.00000   0.16000
           A5           0.00000   0.00000   0.00000   0.16000
           A6           0.00000   0.00000   0.00000   0.00000   0.16000
           D1           0.00000   0.00000   0.00000   0.00000   0.00000
           D2           0.00000   0.00000   0.00000   0.00000   0.00000
           D3           0.00000   0.00000   0.00000   0.00000   0.00000
           D4           0.00000   0.00000   0.00000   0.00000   0.00000
                          D1        D2        D3        D4
           D1           0.00230
           D2           0.00000   0.00230
           D3           0.00000   0.00000   0.00230
           D4           0.00000   0.00000   0.00000   0.00230
 ITU=  0
     Eigenvalues ---    0.05083   0.05715   0.08642   0.16000   0.16000
     Eigenvalues ---    0.34551   0.34555   0.34566   0.34569
 RFO step:  Lambda=-1.15834710D-06 EMin= 5.08293136D-02
 Linear search not attempted -- first point.
 Iteration  1 RMS(Cart)=  0.00051739 RMS(Int)=  0.00000012
 Iteration  2 RMS(Cart)=  0.00000009 RMS(Int)=  0.00000004
 Variable       Old X    -DE/DX   Delta X   Delta X   Delta X     New X
                                 (Linear)    (Quad)   (Total)
    R1        2.06410  -0.00035   0.00000  -0.00101  -0.00101   2.06309
    R2        2.06380  -0.00026   0.00000  -0.00075  -0.00075   2.06306
    R3        2.06403  -0.00033   0.00000  -0.00096  -0.00096   2.06307
    R4        2.06385  -0.00027   0.00000  -0.00079  -0.00079   2.06307
    A1        1.91073  -0.00001   0.00000   0.00010   0.00010   1.91083
    A2        1.91048   0.00002   0.00000  -0.00006  -0.00006   1.91042
    A3        1.91046   0.00001   0.00000   0.00007   0.00007   1.91052
    A4        1.91085   0.00001   0.00000   0.00008   0.00008   1.91093
    A5        1.91045   0.00005   0.00000   0.00038   0.00038   1.91083
    A6        1.91083  -0.00008   0.00000  -0.00057  -0.00057   1.91026
    D1       -2.09455   0.00000   0.00000  -0.00014  -0.00014  -2.09469
    D2        2.09430   0.00002   0.00000   0.00040   0.00040   2.09469
    D3       -2.09422   0.00002   0.00000   0.00038   0.00038  -2.09384
    D4        2.09467   0.00000   0.00000  -0.00002  -0.00002   2.09465
         Item               Value     Threshold  Converged?
 Maximum Force            0.000349     0.000450     YES
 RMS     Force            0.000165     0.000300     YES
 Maximum Displacement     0.000965     0.001800     YES
 RMS     Displacement     0.000517     0.001200     YES
 Predicted change in Energy=-5.791742D-07
 Optimization completed.
    -- Stationary point found.
                           ----------------------------
                           !   Optimized Parameters   !
                           ! (Angstroms and Degrees)  !
 --------------------------                            --------------------------
 ! Name  Definition              Value          Derivative Info.                !
 --------------------------------------------------------------------------------
 ! R1    R(1,2)                  1.0923         -DE/DX =   -0.0003              !
 ! R2    R(1,3)                  1.0921         -DE/DX =   -0.0003              !
 ! R3    R(1,4)                  1.0922         -DE/DX =   -0.0003              !
 ! R4    R(1,5)                  1.0921         -DE/DX =   -0.0003              !
 ! A1    A(2,1,3)              109.4769         -DE/DX =    0.0                 !
 ! A2    A(2,1,4)              109.4624         -DE/DX =    0.0                 !
 ! A3    A(2,1,5)              109.4611         -DE/DX =    0.0                 !
 ! A4    A(3,1,4)              109.4835         -DE/DX =    0.0                 !
 ! A5    A(3,1,5)              109.4607         -DE/DX =    0.0                 !
 ! A6    A(4,1,5)              109.4827         -DE/DX =   -0.0001              !
 ! D1    D(2,1,4,3)           -120.0091         -DE/DX =    0.0                 !
 ! D2    D(2,1,5,3)            119.9943         -DE/DX =    0.0                 !
 ! D3    D(2,1,5,4)           -119.99           -DE/DX =    0.0                 !
 ! D4    D(3,1,5,4)            120.0156         -DE/DX =    0.0                 !
 --------------------------------------------------------------------------------
 GradGradGradGradGradGradGradGradGradGradGradGradGradGradGradGradGradGrad

                          Input orientation:                          
 ---------------------------------------------------------------------
 Center     Atomic      Atomic             Coordinates (Angstroms)
 Number     Number       Type             X           Y           Z
 ---------------------------------------------------------------------
      1          6           0        0.000000   -0.000100    0.000000
      2          1           0        0.554100    0.799600    0.496500
      3          1           0        0.683300   -0.813400   -0.253700
      4          1           0       -0.778200   -0.373500    0.669300
      5          1           0       -0.459100    0.387300   -0.912100
 ---------------------------------------------------------------------
                    Distance matrix (angstroms):
                    1          2          3          4          5
     1  C    0.000000
     2  H    1.092272   0.000000
     3  H    1.092117   1.783609   0.000000
     4  H    1.092239   1.783549   1.783654   0.000000
     5  H    1.092144   1.783457   1.783325   1.783667   0.000000
 Stoichiometry    CH4
 Framework group  C1[X(CH4)]
 Deg. of freedom     9
 Full point group                 C1      NOp   1
 Largest Abelian subgroup         C1      NOp   1
 Largest concise Abelian subgroup C1      NOp   1
                         Standard orientation:                         
 ---------------------------------------------------------------------
 Center     Atomic      Atomic             Coordinates (Angstroms)
 Number     Number       Type             X           Y           Z
 ---------------------------------------------------------------------
      1          6           0        0.000001    0.000041   -0.000005
      2          1           0       -0.293240   -0.968946   -0.410046
      3          1           0        0.629313    0.525411   -0.721581
      4          1           0       -0.893454    0.594046    0.204644
      5          1           0        0.557379   -0.150757    0.927015
 ---------------------------------------------------------------------
 Rotational constants (GHZ):    157.6612035    157.6402355    157.6165482
 1\1\GINC-KATANA2\FOpt\RM062X\6-31+G(d)\C1H4\Z5358697\14-Mar-2025\0\\#m
 062X/6-31+G(d) OPT Freq=noraman\\methane\\0,1\C,0.,-0.0001,0.\H,0.5541
 ,0.7996,0.4965\H,0.6833,-0.8134,-0.2537\H,-0.7782,-0.3735,0.6693\H,-0.
 4591,0.3873,-0.9121\\Version=ES64L-G09RevD.01\State=1-A\HF=-40.4835372
 \RMSD=3.651e-09\RMSF=1.613e-04\Dipole=0.0000506,0.0000492,-0.0000106\Q
 uadrupole=-0.0002545,-0.0000036,0.0002581,-0.000056,-0.0004417,0.00016
 64\PG=C01 [X(C1H4)]\\@


 ERROR IS A HARDY PLANT... IT FLOURISHETH IN EVERY SOIL.
            MARTIN FARQUHAR TUPPER
 Job cpu time:       0 days  0 hours  0 minutes  1.8 seconds.
 File lengths (MBytes):  RWF=    132 Int=      0 D2E=      0 Chk=      2 Scr=      2
 Normal termination of Gaussian 09 at Fri Mar 14 14:01:37 2025.
 Link1:  Proceeding to internal job step number  2.
 ---------------------------------------------------------------------
 #N Geom=AllCheck Guess=TCheck SCRF=Check GenChk RM062X/6-31+G(d) Freq
 ---------------------------------------------------------------------
 1/10=4,29=7,30=1,38=1,40=1/1,3;
 2/12=2,40=1/2;
 3/5=1,6=6,7=11,11=2,14=-4,16=1,25=1,30=1,70=2,71=2,74=-55,116=1,140=1/1,2,3;
 4/5=101/1;
 5/5=2,98=1/2;
 8/6=4,10=90,11=11/1;
 11/6=1,8=1,9=11,15=111,16=1/1,2,10;
 10/6=1/2;
 6/7=2,8=2,9=2,10=2,18=1,28=1/1;
 7/8=1,10=1,25=1/1,2,3,16;
 1/10=4,30=1/3;
 99//99;
 Structure from the checkpoint file:  "/srv/scratch/z5358697/gauss/Gau-2169372.chk"
 -------
 methane
 -------
 Charge =  0 Multiplicity = 1
 Redundant internal coordinates found in file.
 C,0,0.,-0.0001,0.
 H,0,0.5541,0.7996,0.4965
 H,0,0.6833,-0.8134,-0.2537
 H,0,-0.7782,-0.3735,0.6693
 H,0,-0.4591,0.3873,-0.9121
 Recover connectivity data from disk.

 GradGradGradGradGradGradGradGradGradGradGradGradGradGradGradGradGradGrad
 Berny optimization.
 Initialization pass.
                           ----------------------------
                           !    Initial Parameters    !
                           ! (Angstroms and Degrees)  !
 --------------------------                            --------------------------
 ! Name  Definition              Value          Derivative Info.                !
 --------------------------------------------------------------------------------
 ! R1    R(1,2)                  1.0923         calculate D2E/DX2 analytically  !
 ! R2    R(1,3)                  1.0921         calculate D2E/DX2 analytically  !
 ! R3    R(1,4)                  1.0922         calculate D2E/DX2 analytically  !
 ! R4    R(1,5)                  1.0921         calculate D2E/DX2 analytically  !
 ! A1    A(2,1,3)              109.4769         calculate D2E/DX2 analytically  !
 ! A2    A(2,1,4)              109.4624         calculate D2E/DX2 analytically  !
 ! A3    A(2,1,5)              109.4611         calculate D2E/DX2 analytically  !
 ! A4    A(3,1,4)              109.4835         calculate D2E/DX2 analytically  !
 ! A5    A(3,1,5)              109.4607         calculate D2E/DX2 analytically  !
 ! A6    A(4,1,5)              109.4827         calculate D2E/DX2 analytically  !
 ! D1    D(2,1,4,3)           -120.0091         calculate D2E/DX2 analytically  !
 ! D2    D(2,1,5,3)            119.9943         calculate D2E/DX2 analytically  !
 ! D3    D(2,1,5,4)           -119.99           calculate D2E/DX2 analytically  !
 ! D4    D(3,1,5,4)            120.0156         calculate D2E/DX2 analytically  !
 --------------------------------------------------------------------------------
 Trust Radius=3.00D-01 FncErr=1.00D-07 GrdErr=1.00D-07
 Number of steps in this run=      2 maximum allowed number of steps=      2.
 GradGradGradGradGradGradGradGradGradGradGradGradGradGradGradGradGradGrad

                          Input orientation:                          
 ---------------------------------------------------------------------
 Center     Atomic      Atomic             Coordinates (Angstroms)
 Number     Number       Type             X           Y           Z
 ---------------------------------------------------------------------
      1          6           0        0.000000   -0.000100    0.000000
      2          1           0        0.554100    0.799600    0.496500
      3          1           0        0.683300   -0.813400   -0.253700
      4          1           0       -0.778200   -0.373500    0.669300
      5          1           0       -0.459100    0.387300   -0.912100
 ---------------------------------------------------------------------
                    Distance matrix (angstroms):
                    1          2          3          4          5
     1  C    0.000000
     2  H    1.092272   0.000000
     3  H    1.092117   1.783609   0.000000
     4  H    1.092239   1.783549   1.783654   0.000000
     5  H    1.092144   1.783457   1.783325   1.783667   0.000000
 Stoichiometry    CH4
 Framework group  C1[X(CH4)]
 Deg. of freedom     9
 Full point group                 C1      NOp   1
 Largest Abelian subgroup         C1      NOp   1
 Largest concise Abelian subgroup C1      NOp   1
                         Standard orientation:                         
 ---------------------------------------------------------------------
 Center     Atomic      Atomic             Coordinates (Angstroms)
 Number     Number       Type             X           Y           Z
 ---------------------------------------------------------------------
      1          6           0        0.000001    0.000041   -0.000005
      2          1           0       -0.293240   -0.968946   -0.410046
      3          1           0        0.629313    0.525411   -0.721581
      4          1           0       -0.893454    0.594046    0.204644
      5          1           0        0.557379   -0.150757    0.927015
 ---------------------------------------------------------------------
 Rotational constants (GHZ):    157.6612035    157.6402355    157.6165482
 Standard basis: 6-31+G(d) (6D, 7F)
 There are    27 symmetry adapted cartesian basis functions of A   symmetry.
 There are    27 symmetry adapted basis functions of A   symmetry.
    27 basis functions,    48 primitive gaussians,    27 cartesian basis functions
     5 alpha electrons        5 beta electrons
       nuclear repulsion energy        13.4084129658 Hartrees.
 NAtoms=    5 NActive=    5 NUniq=    5 SFac= 1.00D+00 NAtFMM=   60 NAOKFM=F Big=F
 Integral buffers will be    131072 words long.
 Raffenetti 2 integral format.
 Two-electron integral symmetry is turned on.
 One-electron integrals computed using PRISM.
 NBasis=    27 RedAO= T EigKep=  1.24D-02  NBF=    27
 NBsUse=    27 1.00D-06 EigRej= -1.00D+00 NBFU=    27
 Initial guess from the checkpoint file:  "/srv/scratch/z5358697/gauss/Gau-2169372.chk"
 B after Tr=     0.000000    0.000000    0.000000
         Rot=    1.000000    0.000000    0.000000    0.000000 Ang=   0.00 deg.
 Keep R1 ints in memory in canonical form, NReq=953308.
 Requested convergence on RMS density matrix=1.00D-08 within 128 cycles.
 Requested convergence on MAX density matrix=1.00D-06.
 Requested convergence on             energy=1.00D-06.
 No special actions if energy rises.
 SCF Done:  E(RM062X) =  -40.4835371934     A.U. after    1 cycles
            NFock=  1  Conv=0.80D-09     -V/T= 2.0099
 DoSCS=F DFT=T ScalE2(SS,OS)=  1.000000  1.000000
 Range of M.O.s used for correlation:     1    27
 NBasis=    27 NAE=     5 NBE=     5 NFC=     0 NFV=     0
 NROrb=     27 NOA=     5 NOB=     5 NVA=    22 NVB=    22
 Symmetrizing basis deriv contribution to polar:
 IMax=3 JMax=2 DiffMx= 0.00D+00
 G2DrvN: will do     6 centers at a time, making    1 passes.
 Calling FoFCou, ICntrl=  3107 FMM=F I1Cent=   0 AccDes= 0.00D+00.
 End of G2Drv F.D. properties file   721 does not exist.
 End of G2Drv F.D. properties file   722 does not exist.
 End of G2Drv F.D. properties file   788 does not exist.
          IDoAtm=11111
          Differentiating once with respect to electric field.
                with respect to dipole field.
          Differentiating once with respect to nuclear coordinates.
 Keep R1 ints in memory in canonical form, NReq=932119.
          There are    18 degrees of freedom in the 1st order CPHF.  IDoFFX=6 NUNeed=     3.
     15 vectors produced by pass  0 Test12= 6.11D-16 5.56D-09 XBig12= 4.71D+00 1.05D+00.
 AX will form    15 AO Fock derivatives at one time.
     15 vectors produced by pass  1 Test12= 6.11D-16 5.56D-09 XBig12= 5.51D-02 1.00D-01.
     15 vectors produced by pass  2 Test12= 6.11D-16 5.56D-09 XBig12= 3.11D-05 2.89D-03.
     15 vectors produced by pass  3 Test12= 6.11D-16 5.56D-09 XBig12= 1.05D-07 1.21D-04.
     15 vectors produced by pass  4 Test12= 6.11D-16 5.56D-09 XBig12= 7.94D-11 4.18D-06.
      4 vectors produced by pass  5 Test12= 6.11D-16 5.56D-09 XBig12= 2.13D-14 5.82D-08.
 InvSVY:  IOpt=1 It=  1 EMax= 1.11D-15
 Solved reduced A of dimension    79 with    15 vectors.
 Isotropic polarizability for W=    0.000000       13.31 Bohr**3.
 End of Minotr F.D. properties file   721 does not exist.
 End of Minotr F.D. properties file   722 does not exist.
 End of Minotr F.D. properties file   788 does not exist.

 **********************************************************************

            Population analysis using the SCF density.

 **********************************************************************

 Orbital symmetries:
       Occupied  (A) (A) (A) (A) (A)
       Virtual   (A) (A) (A) (A) (A) (A) (A) (A) (A) (A) (A) (A)
                 (A) (A) (A) (A) (A) (A) (A) (A) (A) (A)
 The electronic state is 1-A.
 Alpha  occ. eigenvalues --  -10.52733  -0.78591  -0.45646  -0.45642  -0.45638
 Alpha virt. eigenvalues --    0.03890   0.07121   0.07122   0.07123   0.22932
 Alpha virt. eigenvalues --    0.22937   0.22939   0.30992   0.69230   0.69232
 Alpha virt. eigenvalues --    0.69234   0.99791   0.99798   0.99805   1.11477
 Alpha virt. eigenvalues --    1.18274   1.70887   1.70892   2.33100   2.33104
 Alpha virt. eigenvalues --    2.33113   4.24453
          Condensed to atoms (all electrons):
               1          2          3          4          5
     1  C    5.300047   0.379140   0.379150   0.379149   0.379143
     2  H    0.379140   0.487241  -0.023505  -0.023516  -0.023518
     3  H    0.379150  -0.023505   0.487211  -0.023503  -0.023529
     4  H    0.379149  -0.023516  -0.023503   0.487221  -0.023498
     5  H    0.379143  -0.023518  -0.023529  -0.023498   0.487253
 Mulliken charges:
               1
     1  C   -0.816629
     2  H    0.204159
     3  H    0.204176
     4  H    0.204147
     5  H    0.204149
 Sum of Mulliken charges =   0.00000
 Mulliken charges with hydrogens summed into heavy atoms:
               1
     1  C    0.000000
 APT charges:
               1
     1  C   -0.049539
     2  H    0.011562
     3  H    0.012414
     4  H    0.012968
     5  H    0.012595
 Sum of APT charges =   0.00000
 APT charges with hydrogens summed into heavy atoms:
               1
     1  C    0.000000
 Electronic spatial extent (au):  <R**2>=             35.9626
 Charge=              0.0000 electrons
 Dipole moment (field-independent basis, Debye):
    X=              0.0001    Y=             -0.0002    Z=             -0.0001  Tot=              0.0002
 Quadrupole moment (field-independent basis, Debye-Ang):
   XX=             -8.4834   YY=             -8.4842   ZZ=             -8.4847
   XY=              0.0001   XZ=             -0.0001   YZ=             -0.0002
 Traceless Quadrupole moment (field-independent basis, Debye-Ang):
   XX=              0.0007   YY=             -0.0001   ZZ=             -0.0006
   XY=              0.0001   XZ=             -0.0001   YZ=             -0.0002
 Octapole moment (field-independent basis, Debye-Ang**2):
  XXX=             -0.2404  YYY=             -0.4257  ZZZ=              0.2746  XYY=             -0.3078
  XXY=              0.4209  XXZ=              0.0993  XZZ=              0.5488  YZZ=              0.0046
  YYZ=             -0.3741  XYZ=             -0.4128
 Hexadecapole moment (field-independent basis, Debye-Ang**3):
 XXXX=            -16.7922 YYYY=            -16.5819 ZZZZ=            -16.6288 XXXY=             -0.3350
 XXXZ=             -0.1767 YYYX=              0.1925 YYYZ=              0.3503 ZZZX=              0.2504
 ZZZY=             -0.2801 XXYY=             -5.3931 XXZZ=             -5.3446 YYZZ=             -5.5554
 XXYZ=             -0.0712 YYXZ=             -0.0743 ZZXY=              0.1429
 N-N= 1.340841296580D+01 E-N=-1.197992788189D+02  KE= 4.008577928882D+01
  Exact polarizability:  13.302   0.035  13.338  -0.005  -0.002  13.299
 Approx polarizability:  13.087   0.000  13.086   0.001   0.001  13.083
 Calling FoFJK, ICntrl=    100127 FMM=F ISym2X=0 I1Cent= 0 IOpClX= 0 NMat=1 NMatS=1 NMatT=0.
 Full mass-weighted force constant matrix:
 Low frequencies --- -137.9131  -47.5349   -0.0009    0.0010    0.0013   46.3940
 Low frequencies --- 1363.1485 1364.4895 1368.1346
 Diagonal vibrational polarizability:
        0.3371019       0.3341300       0.3408759
 Harmonic frequencies (cm**-1), IR intensities (KM/Mole), Raman scattering
 activities (A**4/AMU), depolarization ratios for plane and unpolarized
 incident light, reduced masses (AMU), force constants (mDyne/A),
 and normal coordinates:
                      1                      2                      3
                      A                      A                      A
 Frequencies --   1363.1474              1364.4873              1368.1298
 Red. masses --      1.1790                 1.1791                 1.1787
 Frc consts  --      1.2908                 1.2934                 1.2999
 IR Inten    --     19.8565                19.8662                19.9238
  Atom  AN      X      Y      Z        X      Y      Z        X      Y      Z
     1   6    -0.04   0.10   0.06     0.11   0.01   0.05    -0.04  -0.07   0.10
     2   1     0.33   0.02  -0.07    -0.46   0.25  -0.14     0.14   0.15  -0.54
     3   1     0.14  -0.53  -0.25    -0.44   0.05  -0.38    -0.19   0.01  -0.02
     4   1    -0.27  -0.21  -0.18    -0.19  -0.28  -0.34     0.13   0.37  -0.45
     5   1     0.22  -0.52  -0.20    -0.25  -0.12   0.22     0.40   0.28  -0.13
                      4                      5                      6
                      A                      A                      A
 Frequencies --   1587.3165              1588.4208              3066.8861
 Red. masses --      1.0078                 1.0078                 1.0078
 Frc consts  --      1.4961                 1.4982                 5.5852
 IR Inten    --      0.0008                 0.0009                 0.0042
  Atom  AN      X      Y      Z        X      Y      Z        X      Y      Z
     1   6     0.00   0.00   0.00     0.00   0.00   0.00     0.00   0.00   0.00
     2   1    -0.36  -0.03   0.34     0.31  -0.23   0.32     0.14   0.45   0.19
     3   1     0.16   0.31   0.36    -0.38   0.31  -0.10    -0.29  -0.24   0.33
     4   1    -0.20  -0.14  -0.44     0.21   0.39  -0.22     0.40  -0.26  -0.09
     5   1     0.41  -0.13  -0.27    -0.15  -0.48   0.01    -0.26   0.07  -0.43
                      7                      8                      9
                      A                      A                      A
 Frequencies --   3184.1642              3185.9064              3186.9148
 Red. masses --      1.1017                 1.1018                 1.1016
 Frc consts  --      6.5810                 6.5889                 6.5921
 IR Inten    --     18.8510                18.9853                19.0708
  Atom  AN      X      Y      Z        X      Y      Z        X      Y      Z
     1   6     0.03   0.01   0.08     0.02   0.09  -0.02     0.08  -0.03  -0.03
     2   1    -0.13  -0.44  -0.17    -0.19  -0.61  -0.27     0.05   0.10   0.04
     3   1     0.17   0.14  -0.17    -0.38  -0.30   0.43    -0.27  -0.25   0.33
     4   1    -0.03   0.03   0.02     0.21  -0.12  -0.05    -0.68   0.46   0.15
     5   1    -0.42   0.12  -0.69     0.10  -0.01   0.16    -0.09   0.02  -0.18

 -------------------
 - Thermochemistry -
 -------------------
 Temperature   298.150 Kelvin.  Pressure   1.00000 Atm.
 Atom     1 has atomic number  6 and mass  12.00000
 Atom     2 has atomic number  1 and mass   1.00783
 Atom     3 has atomic number  1 and mass   1.00783
 Atom     4 has atomic number  1 and mass   1.00783
 Atom     5 has atomic number  1 and mass   1.00783
 Molecular mass:    16.03130 amu.
 Principal axes and moments of inertia in atomic units:
                           1         2         3
     Eigenvalues --    11.44696  11.44848  11.45020
           X            1.00000   0.00000   0.00000
           Y            0.00000   1.00000   0.00000
           Z            0.00000   0.00000   1.00000
 This molecule is an asymmetric top.
 Rotational symmetry number  1.
 Rotational temperatures (Kelvin)      7.56654     7.56553     7.56439
 Rotational constants (GHZ):         157.66120   157.64024   157.61655
 Zero-point vibrational energy     119000.8 (Joules/Mol)
                                   28.44186 (Kcal/Mol)
 Vibrational temperatures:   1961.26  1963.19  1968.43  2283.79  2285.38
          (Kelvin)           4412.56  4581.30  4583.80  4585.25
 
 Zero-point correction=                           0.045325 (Hartree/Particle)
 Thermal correction to Energy=                    0.048190
 Thermal correction to Enthalpy=                  0.049134
 Thermal correction to Gibbs Free Energy=         0.025658
 Sum of electronic and zero-point Energies=            -40.438212
 Sum of electronic and thermal Energies=               -40.435347
 Sum of electronic and thermal Enthalpies=             -40.434403
 Sum of electronic and thermal Free Energies=          -40.457879
 
                     E (Thermal)             CV                S
                      KCal/Mol        Cal/Mol-Kelvin    Cal/Mol-Kelvin
 Total                   30.240              6.429             49.410
 Electronic               0.000              0.000              0.000
 Translational            0.889              2.981             34.261
 Rotational               0.889              2.981             15.070
 Vibrational             28.462              0.467              0.079
                       Q            Log10(Q)             Ln(Q)
 Total Bot       0.157789D-11        -11.801922        -27.174930
 Total V=0       0.111195D+10          9.046084         20.829378
 Vib (Bot)       0.142626D-20        -20.845803        -47.999234
 Vib (V=0)       0.100509D+01          0.002203          0.005074
 Electronic      0.100000D+01          0.000000          0.000000
 Translational   0.252295D+07          6.401908         14.740939
 Rotational      0.438502D+03          2.641972          6.083365
 ***** Axes restored to original set *****
 -------------------------------------------------------------------
 Center     Atomic                   Forces (Hartrees/Bohr)
 Number     Number              X              Y              Z
 -------------------------------------------------------------------
      1        6           0.000081870    0.000024652    0.000040434
      2        1          -0.000182401   -0.000269116   -0.000130532
      3        1          -0.000163751    0.000184276    0.000077055
      4        1           0.000191922    0.000132287   -0.000245615
      5        1           0.000072361   -0.000072098    0.000258659
 -------------------------------------------------------------------
 Cartesian Forces:  Max     0.000269116 RMS     0.000161325
 FormGI is forming the generalized inverse of G from B-inverse, IUseBI=4.

 GradGradGradGradGradGradGradGradGradGradGradGradGradGradGradGradGradGrad
 Berny optimization.
 Internal  Forces:  Max     0.000348895 RMS     0.000165335
 Search for a local minimum.
 Step number   1 out of a maximum of    2
 All quantities printed in internal units (Hartrees-Bohrs-Radians)
 Second derivative matrix not updated -- analytic derivatives used.
 The second derivative matrix:
                          R1        R2        R3        R4        A1
           R1           0.35309
           R2           0.00166   0.35320
           R3           0.00189   0.00186   0.35386
           R4           0.00183   0.00182   0.00188   0.35293
           A1           0.00200   0.00187  -0.00123  -0.00266   0.02018
           A2           0.00301  -0.00075   0.00342  -0.00559  -0.00895
           A3           0.00588  -0.00473  -0.00523   0.00400  -0.01344
           A4          -0.00078   0.00299   0.00362  -0.00568  -0.00896
           A5          -0.00470   0.00607  -0.00535   0.00433  -0.01336
           A6          -0.00541  -0.00545   0.00477   0.00560   0.02453
           D1          -0.00382  -0.00366  -0.00281   0.01016  -0.01375
           D2           0.00318   0.00311  -0.00798   0.00184   0.00831
           D3          -0.00397   0.00716  -0.00390   0.00097   0.00417
           D4          -0.00715   0.00405   0.00408  -0.00088  -0.00414
                          A2        A3        A4        A5        A6
           A2           0.03806
           A3          -0.02317   0.07447
           A4          -0.00217   0.02546   0.03812
           A5           0.02547  -0.03611  -0.02315   0.07444
           A6          -0.02925  -0.02719  -0.02930  -0.02729   0.08851
           D1          -0.01103   0.01506  -0.01104   0.01494   0.00582
           D2          -0.00955   0.00702  -0.00956   0.00709  -0.00330
           D3          -0.01452  -0.00058   0.00500   0.00763  -0.00170
           D4          -0.00497  -0.00760   0.01456   0.00054   0.00160
                          D1        D2        D3        D4
           D1           0.03036
           D2           0.00153   0.01881
           D3           0.00072   0.00942   0.01918
           D4          -0.00081  -0.00939   0.00976   0.01914
 ITU=  0
     Eigenvalues ---    0.03861   0.04366   0.06621   0.13462   0.13517
     Eigenvalues ---    0.35219   0.35239   0.35272   0.35877
 Angle between quadratic step and forces=  26.43 degrees.
 Linear search not attempted -- first point.
 Iteration  1 RMS(Cart)=  0.00051986 RMS(Int)=  0.00000016
 Iteration  2 RMS(Cart)=  0.00000011 RMS(Int)=  0.00000007
 Variable       Old X    -DE/DX   Delta X   Delta X   Delta X     New X
                                 (Linear)    (Quad)   (Total)
    R1        2.06410  -0.00035   0.00000  -0.00099  -0.00099   2.06311
    R2        2.06380  -0.00026   0.00000  -0.00075  -0.00075   2.06305
    R3        2.06403  -0.00033   0.00000  -0.00089  -0.00089   2.06314
    R4        2.06385  -0.00027   0.00000  -0.00075  -0.00075   2.06310
    A1        1.91073  -0.00001   0.00000   0.00017   0.00017   1.91090
    A2        1.91048   0.00002   0.00000  -0.00007  -0.00007   1.91041
    A3        1.91046   0.00001   0.00000   0.00008   0.00008   1.91054
    A4        1.91085   0.00001   0.00000   0.00009   0.00009   1.91094
    A5        1.91045   0.00005   0.00000   0.00045   0.00045   1.91089
    A6        1.91083  -0.00008   0.00000  -0.00072  -0.00072   1.91011
    D1       -2.09455   0.00000   0.00000  -0.00022  -0.00022  -2.09477
    D2        2.09430   0.00002   0.00000   0.00053   0.00053   2.09483
    D3       -2.09422   0.00002   0.00000   0.00047   0.00047  -2.09375
    D4        2.09467   0.00000   0.00000  -0.00006  -0.00006   2.09461
         Item               Value     Threshold  Converged?
 Maximum Force            0.000349     0.000450     YES
 RMS     Force            0.000165     0.000300     YES
 Maximum Displacement     0.000995     0.001800     YES
 RMS     Displacement     0.000520     0.001200     YES
 Predicted change in Energy=-5.684377D-07
 Optimization completed.
    -- Stationary point found.
                           ----------------------------
                           !   Optimized Parameters   !
                           ! (Angstroms and Degrees)  !
 --------------------------                            --------------------------
 ! Name  Definition              Value          Derivative Info.                !
 --------------------------------------------------------------------------------
 ! R1    R(1,2)                  1.0923         -DE/DX =   -0.0003              !
 ! R2    R(1,3)                  1.0921         -DE/DX =   -0.0003              !
 ! R3    R(1,4)                  1.0922         -DE/DX =   -0.0003              !
 ! R4    R(1,5)                  1.0921         -DE/DX =   -0.0003              !
 ! A1    A(2,1,3)              109.4769         -DE/DX =    0.0                 !
 ! A2    A(2,1,4)              109.4624         -DE/DX =    0.0                 !
 ! A3    A(2,1,5)              109.4611         -DE/DX =    0.0                 !
 ! A4    A(3,1,4)              109.4835         -DE/DX =    0.0                 !
 ! A5    A(3,1,5)              109.4607         -DE/DX =    0.0                 !
 ! A6    A(4,1,5)              109.4827         -DE/DX =   -0.0001              !
 ! D1    D(2,1,4,3)           -120.0091         -DE/DX =    0.0                 !
 ! D2    D(2,1,5,3)            119.9943         -DE/DX =    0.0                 !
 ! D3    D(2,1,5,4)           -119.99           -DE/DX =    0.0                 !
 ! D4    D(3,1,5,4)            120.0156         -DE/DX =    0.0                 !
 --------------------------------------------------------------------------------
 GradGradGradGradGradGradGradGradGradGradGradGradGradGradGradGradGradGrad

 1\1\GINC-KATANA2\Freq\RM062X\6-31+G(d)\C1H4\Z5358697\14-Mar-2025\0\\#N
  Geom=AllCheck Guess=TCheck SCRF=Check GenChk RM062X/6-31+G(d) Freq\\m
 ethane\\0,1\C,0.,-0.0001,0.\H,0.5541,0.7996,0.4965\H,0.6833,-0.8134,-0
 .2537\H,-0.7782,-0.3735,0.6693\H,-0.4591,0.3873,-0.9121\\Version=ES64L
 -G09RevD.01\State=1-A\HF=-40.4835372\RMSD=8.018e-10\RMSF=1.613e-04\Zer
 oPoint=0.045325\Thermal=0.0481901\Dipole=0.0000506,0.0000492,-0.000010
 6\DipoleDeriv=-0.0493968,0.0002483,-0.0004381,0.0007907,-0.048425,0.00
 15118,-0.0002398,0.0016744,-0.0507943,0.0281917,-0.0766189,-0.0475998,
 -0.0782948,-0.0318854,-0.0702218,-0.0484342,-0.0705198,0.0383789,0.001
 119,0.0958657,0.0299098,0.098856,-0.0351778,-0.0369459,0.030634,-0.037
 2156,0.0712999,-0.0247188,-0.0508766,0.0920075,-0.0522028,0.0595586,0.
 04389,0.0929353,0.0438871,0.0040637,0.0448048,0.0313815,-0.0738794,0.0
 308509,0.0559296,0.0617658,-0.0748952,0.0621739,-0.0629482\Polar=13.29
 61467,-0.0024472,13.342013,0.0072295,0.0314313,13.3003899\PG=C01 [X(C1
 H4)]\NImag=0\\0.56300558,-0.00096854,0.56336589,-0.00028171,0.00027040
 ,0.56205631,-0.11905103,-0.10372192,-0.06462055,0.12493651,-0.10356087
 ,-0.19783680,-0.09318776,0.11375985,0.21103317,-0.06447583,-0.09312561
 ,-0.10533697,0.07084262,0.10216169,0.10960101,-0.15678669,0.13075259,0
 .04062489,0.01291745,-0.01396721,-0.00378155,0.16631077,0.13047594,-0.
 20263050,-0.04839010,0.01595021,-0.01633694,-0.00379561,-0.14315807,0.
 21646682,0.04054166,-0.04842917,-0.06219535,0.01063884,-0.00977759,-0.
 00435660,-0.04454704,0.05291927,0.06273579,-0.19022634,-0.06802646,0.1
 2252277,-0.01133700,-0.00367074,0.01015561,-0.01377352,-0.00854980,0.0
 1123659,0.20275787,-0.06801198,-0.08025516,0.05849924,-0.01600552,-0.0
 0779122,0.01671439,0.01796730,0.01068292,-0.01653967,0.07467016,0.0823
 3484,0.12253787,0.05844737,-0.15241754,-0.01259745,-0.00488833,0.01131
 248,0.00339260,0.00256429,-0.00497342,-0.13442954,-0.06423265,0.161486
 24,-0.09694152,0.04196434,-0.09824541,-0.00746593,0.00743897,-0.012740
 85,-0.00866800,0.00528173,-0.01787005,0.01257899,-0.00861995,0.0210965
 2,0.10049646,0.04206546,-0.08264343,0.08280823,-0.00998262,0.01093180,
 -0.02195486,0.00840540,-0.00818230,0.02182716,0.00557684,-0.00497138,0
 .00810933,-0.04606508,0.08486532,-0.09832199,0.08283702,-0.24210645,-0
 .00426346,0.00569200,-0.01121991,0.00431109,-0.00329784,0.00878957,-0.
 00948543,0.00555870,-0.01540776,0.10775979,-0.09078987,0.25994455\\-0.
 00008187,-0.00002465,-0.00004043,0.00018240,0.00026912,0.00013053,0.00
 016375,-0.00018428,-0.00007705,-0.00019192,-0.00013229,0.00024562,-0.0
 0007236,0.00007210,-0.00025866\\\@


 CHRISTMAS IS ON TOP OF A STEEP HILL.
 THE CLOSER YOU GET, THE STEEPER THE HILL IS.
          -- LINUS, OF PEANUTS
 Job cpu time:       0 days  0 hours  0 minutes  3.7 seconds.
 File lengths (MBytes):  RWF=    132 Int=      0 D2E=      0 Chk=      2 Scr=      2
 Normal termination of Gaussian 09 at Fri Mar 14 14:01:42 2025.
