 Entering Gaussian System, Link 0=g09
 Initial command:
 /apps/z_install_tree/linux-rocky8-ivybridge/gcc-12.2.0/gaussian-09-D.01-wczn3gur5lpur3omlkzwa2l5ecyxp5ef/g09/l1.exe "/srv/scratch/z5358697/gauss/Gau-1829109.inp" -scrdir="/srv/scratch/z5358697/gauss/"
 Entering Link 1 = /apps/z_install_tree/linux-rocky8-ivybridge/gcc-12.2.0/gaussian-09-D.01-wczn3gur5lpur3omlkzwa2l5ecyxp5ef/g09/l1.exe PID=   1829110.
  
 Copyright (c) 1988,1990,1992,1993,1995,1998,2003,2009,2013,
            Gaussian, Inc.  All Rights Reserved.
  
 This is part of the Gaussian(R) 09 program.  It is based on
 the Gaussian(R) 03 system (copyright 2003, Gaussian, Inc.),
 the Gaussian(R) 98 system (copyright 1998, Gaussian, Inc.),
 the Gaussian(R) 94 system (copyright 1995, Gaussian, Inc.),
 the Gaussian 92(TM) system (copyright 1992, Gaussian, Inc.),
 the Gaussian 90(TM) system (copyright 1990, Gaussian, Inc.),
 the Gaussian 88(TM) system (copyright 1988, Gaussian, Inc.),
 the Gaussian 86(TM) system (copyright 1986, Carnegie Mellon
 University), and the Gaussian 82(TM) system (copyright 1983,
 Carnegie Mellon University). Gaussian is a federally registered
 trademark of Gaussian, Inc.
  
 This software contains proprietary and confidential information,
 including trade secrets, belonging to Gaussian, Inc.
  
 This software is provided under written license and may be
 used, copied, transmitted, or stored only in accord with that
 written license.
  
 The following legend is applicable only to US Government
 contracts under FAR:
  
                    RESTRICTED RIGHTS LEGEND
  
 Use, reproduction and disclosure by the US Government is
 subject to restrictions as set forth in subparagraphs (a)
 and (c) of the Commercial Computer Software - Restricted
 Rights clause in FAR 52.227-19.
  
 Gaussian, Inc.
 340 Quinnipiac St., Bldg. 40, Wallingford CT 06492
  
  
 ---------------------------------------------------------------
 Warning -- This program may not be used in any manner that
 competes with the business of Gaussian, Inc. or will provide
 assistance to any competitor of Gaussian, Inc.  The licensee
 of this program is prohibited from giving any competitor of
 Gaussian, Inc. access to this program.  By using this program,
 the user acknowledges that Gaussian, Inc. is engaged in the
 business of creating and licensing software in the field of
 computational chemistry and represents and warrants to the
 licensee that it is not a competitor of Gaussian, Inc. and that
 it will not use this program in any manner prohibited above.
 ---------------------------------------------------------------
  

 Cite this work as:
 Gaussian 09, Revision D.01,
 M. J. Frisch, G. W. Trucks, H. B. Schlegel, G. E. Scuseria, 
 M. A. Robb, J. R. Cheeseman, G. Scalmani, V. Barone, B. Mennucci, 
 G. A. Petersson, H. Nakatsuji, M. Caricato, X. Li, H. P. Hratchian, 
 A. F. Izmaylov, J. Bloino, G. Zheng, J. L. Sonnenberg, M. Hada, 
 M. Ehara, K. Toyota, R. Fukuda, J. Hasegawa, M. Ishida, T. Nakajima, 
 Y. Honda, O. Kitao, H. Nakai, T. Vreven, J. A. Montgomery, Jr., 
 J. E. Peralta, F. Ogliaro, M. Bearpark, J. J. Heyd, E. Brothers, 
 K. N. Kudin, V. N. Staroverov, T. Keith, R. Kobayashi, J. Normand, 
 K. Raghavachari, A. Rendell, J. C. Burant, S. S. Iyengar, J. Tomasi, 
 M. Cossi, N. Rega, J. M. Millam, M. Klene, J. E. Knox, J. B. Cross, 
 V. Bakken, C. Adamo, J. Jaramillo, R. Gomperts, R. E. Stratmann, 
 O. Yazyev, A. J. Austin, R. Cammi, C. Pomelli, J. W. Ochterski, 
 R. L. Martin, K. Morokuma, V. G. Zakrzewski, G. A. Voth, 
 P. Salvador, J. J. Dannenberg, S. Dapprich, A. D. Daniels, 
 O. Farkas, J. B. Foresman, J. V. Ortiz, J. Cioslowski, 
 and D. J. Fox, Gaussian, Inc., Wallingford CT, 2013.
 
 ******************************************
 Gaussian 09:  ES64L-G09RevD.01 24-Apr-2013
                14-Mar-2025 
 ******************************************
 ---------------------------------
 #m062X/6-31+G(d) OPT Freq=noraman
 ---------------------------------
 1/14=-1,18=20,19=15,26=3,38=1/1,3;
 2/9=110,12=2,17=6,18=5,40=1/2;
 3/5=1,6=6,7=11,11=2,16=1,25=1,30=1,71=1,74=-55/1,2,3;
 4//1;
 5/5=2,38=5/2;
 6/7=2,8=2,9=2,10=2,28=1/1;
 7//1,2,3,16;
 1/14=-1,18=20,19=15,26=3/3(2);
 2/9=110/2;
 99//99;
 2/9=110/2;
 3/5=1,6=6,7=11,11=2,16=1,25=1,30=1,71=1,74=-55/1,2,3;
 4/5=5,16=3,69=1/1;
 5/5=2,38=5/2;
 7//1,2,3,16;
 1/14=-1,18=20,19=15,26=3/3(-5);
 2/9=110/2;
 6/7=2,8=2,9=2,10=2,19=2,28=1/1;
 99/9=1/99;
 --------------
 dibromomethane
 --------------
 Symbolic Z-matrix:
 Charge =  0 Multiplicity = 1
 C                     0.1694   -0.0215    0.0448 
 Br                   -0.4991   -0.3017   -1.7476 
 Br                   -1.2       0.5174    1.2987 
 H                     0.9257    0.7645    0.0074 
 H                     0.6041   -0.9587    0.3967 
 

 GradGradGradGradGradGradGradGradGradGradGradGradGradGradGradGradGradGrad
 Berny optimization.
 Initialization pass.
                           ----------------------------
                           !    Initial Parameters    !
                           ! (Angstroms and Degrees)  !
 --------------------------                            --------------------------
 ! Name  Definition              Value          Derivative Info.                !
 --------------------------------------------------------------------------------
 ! R1    R(1,2)                  1.9334         estimate D2E/DX2                !
 ! R2    R(1,3)                  1.9334         estimate D2E/DX2                !
 ! R3    R(1,4)                  1.0914         estimate D2E/DX2                !
 ! R4    R(1,5)                  1.0914         estimate D2E/DX2                !
 ! A1    A(2,1,3)              113.375          estimate D2E/DX2                !
 ! A2    A(2,1,4)              108.1918         estimate D2E/DX2                !
 ! A3    A(2,1,5)              108.1907         estimate D2E/DX2                !
 ! A4    A(3,1,4)              108.1982         estimate D2E/DX2                !
 ! A5    A(3,1,5)              108.2011         estimate D2E/DX2                !
 ! A6    A(4,1,5)              110.6995         estimate D2E/DX2                !
 ! D1    D(2,1,4,3)            123.2055         estimate D2E/DX2                !
 ! D2    D(2,1,5,3)           -123.2066         estimate D2E/DX2                !
 ! D3    D(2,1,5,4)            118.3896         estimate D2E/DX2                !
 ! D4    D(3,1,5,4)           -118.4037         estimate D2E/DX2                !
 --------------------------------------------------------------------------------
 Trust Radius=3.00D-01 FncErr=1.00D-07 GrdErr=1.00D-06
 Number of steps in this run=     24 maximum allowed number of steps=    100.
 GradGradGradGradGradGradGradGradGradGradGradGradGradGradGradGradGradGrad

                          Input orientation:                          
 ---------------------------------------------------------------------
 Center     Atomic      Atomic             Coordinates (Angstroms)
 Number     Number       Type             X           Y           Z
 ---------------------------------------------------------------------
      1          6           0        0.169400   -0.021500    0.044800
      2         35           0       -0.499100   -0.301700   -1.747600
      3         35           0       -1.200000    0.517400    1.298700
      4          1           0        0.925700    0.764500    0.007400
      5          1           0        0.604100   -0.958700    0.396700
 ---------------------------------------------------------------------
                    Distance matrix (angstroms):
                    1          2          3          4          5
     1  C    0.000000
     2  Br   1.933417   0.000000
     3  Br   1.933374   3.231428   0.000000
     4  H    1.091414   2.499372   2.499423   0.000000
     5  H    1.091394   2.499344   2.499450   1.795661   0.000000
 Stoichiometry    CH2Br2
 Framework group  C1[X(CH2Br2)]
 Deg. of freedom     9
 Full point group                 C1      NOp   1
 Largest Abelian subgroup         C1      NOp   1
 Largest concise Abelian subgroup C1      NOp   1
                         Standard orientation:                         
 ---------------------------------------------------------------------
 Center     Atomic      Atomic             Coordinates (Angstroms)
 Number     Number       Type             X           Y           Z
 ---------------------------------------------------------------------
      1          6           0        0.000025    0.937015   -0.000004
      2         35           0       -1.615715   -0.124817    0.000000
      3         35           0        1.615714   -0.124817    0.000000
      4          1           0       -0.000040    1.557543    0.897842
      5          1           0       -0.000083    1.557555   -0.897819
 ---------------------------------------------------------------------
 Rotational constants (GHZ):     26.1243560      1.2217181      1.1759617
 Standard basis: 6-31+G(d) (6D, 7F)
 There are    91 symmetry adapted cartesian basis functions of A   symmetry.
 There are    91 symmetry adapted basis functions of A   symmetry.
    91 basis functions,   214 primitive gaussians,    91 cartesian basis functions
    39 alpha electrons       39 beta electrons
       nuclear repulsion energy       351.3149914856 Hartrees.
 NAtoms=    5 NActive=    5 NUniq=    5 SFac= 1.00D+00 NAtFMM=   60 NAOKFM=F Big=F
 Integral buffers will be    131072 words long.
 Raffenetti 2 integral format.
 Two-electron integral symmetry is turned on.
 One-electron integrals computed using PRISM.
 NBasis=    91 RedAO= T EigKep=  6.65D-04  NBF=    91
 NBsUse=    91 1.00D-06 EigRej= -1.00D+00 NBFU=    91
 ExpMin= 3.50D-02 ExpMax= 5.74D+05 ExpMxC= 5.74D+03 IAcc=3 IRadAn=         5 AccDes= 0.00D+00
 Harris functional with IExCor= 1009 and IRadAn=       5 diagonalized for initial guess.
 HarFok:  IExCor= 1009 AccDes= 0.00D+00 IRadAn=         5 IDoV= 1 UseB2=F ITyADJ=14
 ICtDFT=  3500011 ScaDFX=  1.000000  1.000000  1.000000  1.000000
 FoFCou: FMM=F IPFlag=           0 FMFlag=      100000 FMFlg1=           0
         NFxFlg=           0 DoJE=T BraDBF=F KetDBF=T FulRan=T
         wScrn=  0.000000 ICntrl=     500 IOpCl=  0 I1Cent=   200000004 NGrid=           0
         NMat0=    1 NMatS0=      1 NMatT0=    0 NMatD0=    1 NMtDS0=    0 NMtDT0=    0
 Petite list used in FoFCou.
 Keep R1 ints in memory in canonical form, NReq=9826245.
 Requested convergence on RMS density matrix=1.00D-08 within 128 cycles.
 Requested convergence on MAX density matrix=1.00D-06.
 Requested convergence on             energy=1.00D-06.
 No special actions if energy rises.
 SCF Done:  E(RM062X) =  -5182.86077131     A.U. after   11 cycles
            NFock= 11  Conv=0.14D-08     -V/T= 2.0068

 **********************************************************************

            Population analysis using the SCF density.

 **********************************************************************

 Orbital symmetries:
       Occupied  (A) (A) (A) (A) (A) (A) (A) (A) (A) (A) (A) (A)
                 (A) (A) (A) (A) (A) (A) (A) (A) (A) (A) (A) (A)
                 (A) (A) (A) (A) (A) (A) (A) (A) (A) (A) (A) (A)
                 (A) (A) (A)
       Virtual   (A) (A) (A) (A) (A) (A) (A) (A) (A) (A) (A) (A)
                 (A) (A) (A) (A) (A) (A) (A) (A) (A) (A) (A) (A)
                 (A) (A) (A) (A) (A) (A) (A) (A) (A) (A) (A) (A)
                 (A) (A) (A) (A) (A) (A) (A) (A) (A) (A) (A) (A)
                 (A) (A) (A) (A)
 The electronic state is 1-A.
 Alpha  occ. eigenvalues -- -485.48851-485.48849 -62.77099 -62.77072 -57.30397
 Alpha  occ. eigenvalues --  -57.30387 -57.30122 -57.30104 -57.30103 -57.30097
 Alpha  occ. eigenvalues --  -10.67191  -8.94485  -8.94475  -6.89991  -6.89990
 Alpha  occ. eigenvalues --   -6.88901  -6.88900  -6.88866  -6.88865  -2.92841
 Alpha  occ. eigenvalues --   -2.92839  -2.92470  -2.92469  -2.92438  -2.92437
 Alpha  occ. eigenvalues --   -2.91477  -2.91476  -2.91476  -2.91475  -0.94932
 Alpha  occ. eigenvalues --   -0.86019  -0.74307  -0.56178  -0.50427  -0.47798
 Alpha  occ. eigenvalues --   -0.36724  -0.36257  -0.34955  -0.34462
 Alpha virt. eigenvalues --   -0.02108   0.01600   0.01947   0.04778   0.05189
 Alpha virt. eigenvalues --    0.05432   0.07686   0.07691   0.08290   0.08462
 Alpha virt. eigenvalues --    0.08896   0.11371   0.14201   0.15246   0.20158
 Alpha virt. eigenvalues --    0.30421   0.39706   0.46267   0.47032   0.48456
 Alpha virt. eigenvalues --    0.49974   0.50407   0.51576   0.52268   0.52757
 Alpha virt. eigenvalues --    0.52807   0.60377   0.61085   0.63108   0.63244
 Alpha virt. eigenvalues --    0.66602   0.69920   0.73725   0.77882   0.86757
 Alpha virt. eigenvalues --    0.90755   0.97195   1.02760   1.08328   1.39000
 Alpha virt. eigenvalues --    1.73907   1.74263   1.76815   1.78456   2.09861
 Alpha virt. eigenvalues --    2.18294   2.26457   4.15241   8.89169   8.91568
 Alpha virt. eigenvalues --   77.56683  77.65431
          Condensed to atoms (all electrons):
               1          2          3          4          5
     1  C    5.202258   0.258387   0.258404   0.376241   0.376237
     2  Br   0.258387  35.039549  -0.161905  -0.047351  -0.047350
     3  Br   0.258404  -0.161905  35.039470  -0.047344  -0.047340
     4  H    0.376241  -0.047351  -0.047344   0.477203  -0.035820
     5  H    0.376237  -0.047350  -0.047340  -0.035820   0.477200
 Mulliken charges:
               1
     1  C   -0.471527
     2  Br  -0.041330
     3  Br  -0.041286
     4  H    0.277070
     5  H    0.277073
 Sum of Mulliken charges =   0.00000
 Mulliken charges with hydrogens summed into heavy atoms:
               1
     1  C    0.082616
     2  Br  -0.041330
     3  Br  -0.041286
 Electronic spatial extent (au):  <R**2>=            795.0151
 Charge=              0.0000 electrons
 Dipole moment (field-independent basis, Debye):
    X=              0.0002    Y=              1.6646    Z=              0.0000  Tot=              1.6646
 Quadrupole moment (field-independent basis, Debye-Ang):
   XX=            -45.2535   YY=            -40.9643   ZZ=            -43.7906
   XY=             -0.0003   XZ=              0.0001   YZ=              0.0000
 Traceless Quadrupole moment (field-independent basis, Debye-Ang):
   XX=             -1.9174   YY=              2.3718   ZZ=             -0.4545
   XY=             -0.0003   XZ=              0.0001   YZ=              0.0000
 Octapole moment (field-independent basis, Debye-Ang**2):
  XXX=              0.0016  YYY=             -3.1674  ZZZ=              0.0001  XYY=              0.0000
  XXY=             -9.8723  XXZ=              0.0001  XZZ=              0.0002  YZZ=              0.1997
  YYZ=              0.0000  XYZ=              0.0001
 Hexadecapole moment (field-independent basis, Debye-Ang**3):
 XXXX=           -607.0963 YYYY=            -96.3755 ZZZZ=            -60.5007 XXXY=             -0.0007
 XXXZ=              0.0001 YYYX=             -0.0011 YYYZ=             -0.0002 ZZZX=              0.0001
 ZZZY=              0.0000 XXYY=           -119.9731 XXZZ=           -120.1120 YYZZ=            -23.7655
 XXYZ=             -0.0001 YYXZ=              0.0002 ZZXY=             -0.0004
 N-N= 3.513149914856D+02 E-N=-1.305659204421D+04  KE= 5.147931610298D+03
 Calling FoFJK, ICntrl=      2127 FMM=F ISym2X=0 I1Cent= 0 IOpClX= 0 NMat=1 NMatS=1 NMatT=0.
 ***** Axes restored to original set *****
 -------------------------------------------------------------------
 Center     Atomic                   Forces (Hartrees/Bohr)
 Number     Number              X              Y              Z
 -------------------------------------------------------------------
      1        6           0.004229869   -0.000528749    0.001094172
      2       35           0.000838881    0.000830356    0.004365853
      3       35           0.002639480   -0.001272573   -0.003443412
      4        1          -0.004231255   -0.001521802   -0.000557652
      5        1          -0.003476975    0.002492769   -0.001458961
 -------------------------------------------------------------------
 Cartesian Forces:  Max     0.004365853 RMS     0.002597794

 GradGradGradGradGradGradGradGradGradGradGradGradGradGradGradGradGradGrad
 Berny optimization.
 FormGI is forming the generalized inverse of G from B-inverse, IUseBI=4.
 Internal  Forces:  Max     0.004457811 RMS     0.002475347
 Search for a local minimum.
 Step number   1 out of a maximum of   24
 All quantities printed in internal units (Hartrees-Bohrs-Radians)
 Mixed Optimization -- RFO/linear search
 Second derivative matrix not updated -- first step.
 The second derivative matrix:
                          R1        R2        R3        R4        A1
           R1           0.16711
           R2           0.00000   0.16713
           R3           0.00000   0.00000   0.34650
           R4           0.00000   0.00000   0.00000   0.34652
           A1           0.00000   0.00000   0.00000   0.00000   0.25000
           A2           0.00000   0.00000   0.00000   0.00000   0.00000
           A3           0.00000   0.00000   0.00000   0.00000   0.00000
           A4           0.00000   0.00000   0.00000   0.00000   0.00000
           A5           0.00000   0.00000   0.00000   0.00000   0.00000
           A6           0.00000   0.00000   0.00000   0.00000   0.00000
           D1           0.00000   0.00000   0.00000   0.00000   0.00000
           D2           0.00000   0.00000   0.00000   0.00000   0.00000
           D3           0.00000   0.00000   0.00000   0.00000   0.00000
           D4           0.00000   0.00000   0.00000   0.00000   0.00000
                          A2        A3        A4        A5        A6
           A2           0.16000
           A3           0.00000   0.16000
           A4           0.00000   0.00000   0.16000
           A5           0.00000   0.00000   0.00000   0.16000
           A6           0.00000   0.00000   0.00000   0.00000   0.16000
           D1           0.00000   0.00000   0.00000   0.00000   0.00000
           D2           0.00000   0.00000   0.00000   0.00000   0.00000
           D3           0.00000   0.00000   0.00000   0.00000   0.00000
           D4           0.00000   0.00000   0.00000   0.00000   0.00000
                          D1        D2        D3        D4
           D1           0.00230
           D2           0.00000   0.00230
           D3           0.00000   0.00000   0.00230
           D4           0.00000   0.00000   0.00000   0.00230
 ITU=  0
     Eigenvalues ---    0.05772   0.06959   0.09020   0.16000   0.16711
     Eigenvalues ---    0.16713   0.16753   0.34650   0.34652
 RFO step:  Lambda=-4.69886348D-04 EMin= 5.77199222D-02
 Linear search not attempted -- first point.
 Iteration  1 RMS(Cart)=  0.01503082 RMS(Int)=  0.00010194
 Iteration  2 RMS(Cart)=  0.00009389 RMS(Int)=  0.00003730
 Iteration  3 RMS(Cart)=  0.00000000 RMS(Int)=  0.00003730
 Variable       Old X    -DE/DX   Delta X   Delta X   Delta X     New X
                                 (Linear)    (Quad)   (Total)
    R1        3.65363  -0.00446   0.00000  -0.02660  -0.02660   3.62703
    R2        3.65355  -0.00446   0.00000  -0.02660  -0.02660   3.62695
    R3        2.06247  -0.00401   0.00000  -0.01155  -0.01155   2.05092
    R4        2.06244  -0.00400   0.00000  -0.01152  -0.01152   2.05092
    A1        1.97877  -0.00048   0.00000  -0.01236  -0.01240   1.96637
    A2        1.88830  -0.00067   0.00000  -0.00270  -0.00276   1.88554
    A3        1.88828  -0.00046   0.00000  -0.00259  -0.00265   1.88564
    A4        1.88841  -0.00067   0.00000  -0.00278  -0.00284   1.88558
    A5        1.88847  -0.00048   0.00000  -0.00273  -0.00279   1.88567
    A6        1.93207   0.00291   0.00000   0.02435   0.02429   1.95636
    D1        2.15034  -0.00140   0.00000  -0.01835  -0.01836   2.13198
    D2       -2.15036   0.00116   0.00000   0.01826   0.01827  -2.13209
    D3        2.06629   0.00058   0.00000   0.00922   0.00922   2.07551
    D4       -2.06654  -0.00057   0.00000  -0.00904  -0.00904  -2.07558
         Item               Value     Threshold  Converged?
 Maximum Force            0.004458     0.000450     NO 
 RMS     Force            0.002475     0.000300     NO 
 Maximum Displacement     0.034723     0.001800     NO 
 RMS     Displacement     0.015036     0.001200     NO 
 Predicted change in Energy=-2.357258D-04
 GradGradGradGradGradGradGradGradGradGradGradGradGradGradGradGradGradGrad

                          Input orientation:                          
 ---------------------------------------------------------------------
 Center     Atomic      Atomic             Coordinates (Angstroms)
 Number     Number       Type             X           Y           Z
 ---------------------------------------------------------------------
      1          6           0        0.175756   -0.022338    0.046456
      2         35           0       -0.498838   -0.297563   -1.729225
      3         35           0       -1.191750    0.512224    1.282531
      4          1           0        0.918664    0.767749    0.004923
      5          1           0        0.596267   -0.960072    0.395315
 ---------------------------------------------------------------------
                    Distance matrix (angstroms):
                    1          2          3          4          5
     1  C    0.000000
     2  Br   1.919341   0.000000
     3  Br   1.919300   3.194771   0.000000
     4  H    1.085300   2.480217   2.480206   0.000000
     5  H    1.085300   2.480291   2.480285   1.800475   0.000000
 Stoichiometry    CH2Br2
 Framework group  C1[X(CH2Br2)]
 Deg. of freedom     9
 Full point group                 C1      NOp   1
 Largest Abelian subgroup         C1      NOp   1
 Largest concise Abelian subgroup C1      NOp   1
                         Standard orientation:                         
 ---------------------------------------------------------------------
 Center     Atomic      Atomic             Coordinates (Angstroms)
 Number     Number       Type             X           Y           Z
 ---------------------------------------------------------------------
      1          6           0        0.000023    0.939352   -0.000004
      2         35           0       -1.597387   -0.124672   -0.000001
      3         35           0        1.597383   -0.124675   -0.000001
      4          1           0        0.000007    1.545440    0.900292
      5          1           0        0.000005    1.545614   -0.900183
 ---------------------------------------------------------------------
 Rotational constants (GHZ):     26.1484824      1.2497754      1.2020354
 Standard basis: 6-31+G(d) (6D, 7F)
 There are    91 symmetry adapted cartesian basis functions of A   symmetry.
 There are    91 symmetry adapted basis functions of A   symmetry.
    91 basis functions,   214 primitive gaussians,    91 cartesian basis functions
    39 alpha electrons       39 beta electrons
       nuclear repulsion energy       354.7205961946 Hartrees.
 NAtoms=    5 NActive=    5 NUniq=    5 SFac= 1.00D+00 NAtFMM=   60 NAOKFM=F Big=F
 Integral buffers will be    131072 words long.
 Raffenetti 2 integral format.
 Two-electron integral symmetry is turned on.
 One-electron integrals computed using PRISM.
 NBasis=    91 RedAO= T EigKep=  6.63D-04  NBF=    91
 NBsUse=    91 1.00D-06 EigRej= -1.00D+00 NBFU=    91
 Initial guess from the checkpoint file:  "/srv/scratch/z5358697/gauss/Gau-1829110.chk"
 B after Tr=     0.000000    0.000000    0.000000
         Rot=    1.000000   -0.000011    0.000000    0.000001 Ang=   0.00 deg.
 ExpMin= 3.50D-02 ExpMax= 5.74D+05 ExpMxC= 5.74D+03 IAcc=3 IRadAn=         5 AccDes= 0.00D+00
 Harris functional with IExCor= 1009 and IRadAn=       5 diagonalized for initial guess.
 HarFok:  IExCor= 1009 AccDes= 0.00D+00 IRadAn=         5 IDoV= 1 UseB2=F ITyADJ=14
 ICtDFT=  3500011 ScaDFX=  1.000000  1.000000  1.000000  1.000000
 FoFCou: FMM=F IPFlag=           0 FMFlag=      100000 FMFlg1=           0
         NFxFlg=           0 DoJE=T BraDBF=F KetDBF=T FulRan=T
         wScrn=  0.000000 ICntrl=     500 IOpCl=  0 I1Cent=   200000004 NGrid=           0
         NMat0=    1 NMatS0=      1 NMatT0=    0 NMatD0=    1 NMtDS0=    0 NMtDT0=    0
 Petite list used in FoFCou.
 Keep R1 ints in memory in canonical form, NReq=9826245.
 Requested convergence on RMS density matrix=1.00D-08 within 128 cycles.
 Requested convergence on MAX density matrix=1.00D-06.
 Requested convergence on             energy=1.00D-06.
 No special actions if energy rises.
 SCF Done:  E(RM062X) =  -5182.86093740     A.U. after    9 cycles
            NFock=  9  Conv=0.37D-08     -V/T= 2.0068
 Calling FoFJK, ICntrl=      2127 FMM=F ISym2X=0 I1Cent= 0 IOpClX= 0 NMat=1 NMatS=1 NMatT=0.
 ***** Axes restored to original set *****
 -------------------------------------------------------------------
 Center     Atomic                   Forces (Hartrees/Bohr)
 Number     Number              X              Y              Z
 -------------------------------------------------------------------
      1        6           0.001533752   -0.000185273    0.000391450
      2       35          -0.000486876   -0.000403787   -0.002170665
      3       35          -0.001380014    0.000634635    0.001688354
      4        1           0.000155891   -0.000100098    0.000063613
      5        1           0.000177247    0.000054523    0.000027248
 -------------------------------------------------------------------
 Cartesian Forces:  Max     0.002170665 RMS     0.000926753

 GradGradGradGradGradGradGradGradGradGradGradGradGradGradGradGradGradGrad
 Berny optimization.
 Using GEDIIS/GDIIS optimizer.
 FormGI is forming the generalized inverse of G from B-inverse, IUseBI=4.
 Internal  Forces:  Max     0.002247361 RMS     0.000867179
 Search for a local minimum.
 Step number   2 out of a maximum of   24
 All quantities printed in internal units (Hartrees-Bohrs-Radians)
 Mixed Optimization -- En-DIIS/RFO-DIIS
 Update second derivatives using D2CorX and points    1    2
 DE= -1.66D-04 DEPred=-2.36D-04 R= 7.05D-01
 TightC=F SS=  1.41D+00  RLast= 5.74D-02 DXNew= 5.0454D-01 1.7215D-01
 Trust test= 7.05D-01 RLast= 5.74D-02 DXMaxT set to 3.00D-01
 The second derivative matrix:
                          R1        R2        R3        R4        A1
           R1           0.19791
           R2           0.03091   0.19815
           R3           0.00605   0.00612   0.33886
           R4           0.00602   0.00609  -0.00762   0.33892
           A1          -0.02046  -0.02045  -0.02109  -0.02103   0.23058
           A2           0.00304   0.00305   0.00059   0.00059  -0.00203
           A3           0.00021   0.00022  -0.00107  -0.00106  -0.00228
           A4           0.00293   0.00294   0.00049   0.00048  -0.00212
           A5           0.00017   0.00017  -0.00116  -0.00116  -0.00242
           A6           0.00329   0.00324   0.01295   0.01291   0.02160
           D1           0.01925   0.01928   0.01150   0.01146   0.00213
           D2          -0.01574  -0.01577  -0.00938  -0.00935  -0.00170
           D3          -0.00792  -0.00793  -0.00472  -0.00470  -0.00086
           D4           0.00782   0.00783   0.00466   0.00465   0.00085
                          A2        A3        A4        A5        A6
           A2           0.16030
           A3           0.00002   0.15986
           A4           0.00029   0.00001   0.16028
           A5           0.00002  -0.00015   0.00000   0.15984
           A6           0.00034   0.00157   0.00044   0.00168   0.14321
           D1           0.00191   0.00110   0.00191   0.00115  -0.00870
           D2          -0.00156  -0.00090  -0.00156  -0.00093   0.00708
           D3          -0.00078  -0.00045  -0.00078  -0.00047   0.00356
           D4           0.00077   0.00045   0.00077   0.00046  -0.00352
                          D1        D2        D3        D4
           D1           0.00759
           D2          -0.00434   0.00586
           D3          -0.00218   0.00179   0.00320
           D4           0.00216  -0.00177  -0.00089   0.00318
 ITU=  1  0
 Use linear search instead of GDIIS.
     Eigenvalues ---    0.05604   0.07096   0.09239   0.16000   0.16281
     Eigenvalues ---    0.16712   0.22964   0.33300   0.34651
 RFO step:  Lambda=-1.30451124D-05 EMin= 5.60373633D-02
 Quartic linear search produced a step of -0.22919.
 Iteration  1 RMS(Cart)=  0.00407004 RMS(Int)=  0.00000899
 Iteration  2 RMS(Cart)=  0.00000417 RMS(Int)=  0.00000808
 Iteration  3 RMS(Cart)=  0.00000000 RMS(Int)=  0.00000808
 Variable       Old X    -DE/DX   Delta X   Delta X   Delta X     New X
                                 (Linear)    (Quad)   (Total)
    R1        3.62703   0.00224   0.00610   0.00330   0.00940   3.63643
    R2        3.62695   0.00225   0.00610   0.00335   0.00945   3.63640
    R3        2.05092   0.00003   0.00265  -0.00294  -0.00029   2.05063
    R4        2.05092   0.00003   0.00264  -0.00293  -0.00029   2.05063
    A1        1.96637   0.00034   0.00284  -0.00006   0.00279   1.96916
    A2        1.88554  -0.00001   0.00063  -0.00097  -0.00032   1.88522
    A3        1.88564  -0.00007   0.00061  -0.00107  -0.00045   1.88519
    A4        1.88558  -0.00001   0.00065  -0.00100  -0.00034   1.88524
    A5        1.88567  -0.00007   0.00064  -0.00112  -0.00047   1.88521
    A6        1.95636  -0.00018  -0.00557   0.00436  -0.00119   1.95517
    D1        2.13198   0.00040   0.00421  -0.00124   0.00297   2.13495
    D2       -2.13209  -0.00032  -0.00419   0.00136  -0.00282  -2.13492
    D3        2.07551  -0.00016  -0.00211   0.00072  -0.00140   2.07412
    D4       -2.07558   0.00016   0.00207  -0.00065   0.00143  -2.07415
         Item               Value     Threshold  Converged?
 Maximum Force            0.002247     0.000450     NO 
 RMS     Force            0.000867     0.000300     NO 
 Maximum Displacement     0.010257     0.001800     NO 
 RMS     Displacement     0.004071     0.001200     NO 
 Predicted change in Energy=-2.336120D-05
 GradGradGradGradGradGradGradGradGradGradGradGradGradGradGradGradGradGrad

                          Input orientation:                          
 ---------------------------------------------------------------------
 Center     Atomic      Atomic             Coordinates (Angstroms)
 Number     Number       Type             X           Y           Z
 ---------------------------------------------------------------------
      1          6           0        0.175796   -0.022301    0.046445
      2         35           0       -0.498099   -0.298963   -1.734653
      3         35           0       -1.193460    0.513680    1.287729
      4          1           0        0.919090    0.767226    0.005161
      5          1           0        0.596773   -0.959643    0.395317
 ---------------------------------------------------------------------
                    Distance matrix (angstroms):
                    1          2          3          4          5
     1  C    0.000000
     2  Br   1.924315   0.000000
     3  Br   1.924298   3.206043   0.000000
     4  H    1.085147   2.484378   2.484378   0.000000
     5  H    1.085147   2.484354   2.484354   1.799497   0.000000
 Stoichiometry    CH2Br2
 Framework group  C1[X(CH2Br2)]
 Deg. of freedom     9
 Full point group                 C1      NOp   1
 Largest Abelian subgroup         C1      NOp   1
 Largest concise Abelian subgroup C1      NOp   1
                         Standard orientation:                         
 ---------------------------------------------------------------------
 Center     Atomic      Atomic             Coordinates (Angstroms)
 Number     Number       Type             X           Y           Z
 ---------------------------------------------------------------------
      1          6           0        0.000009    0.939815    0.000001
      2         35           0       -1.603022   -0.124739    0.000000
      3         35           0        1.603021   -0.124740    0.000000
      4          1           0        0.000000    1.546470    0.899731
      5          1           0        0.000000    1.546416   -0.899766
 ---------------------------------------------------------------------
 Rotational constants (GHZ):     26.1257805      1.2410432      1.1938980
 Standard basis: 6-31+G(d) (6D, 7F)
 There are    91 symmetry adapted cartesian basis functions of A   symmetry.
 There are    91 symmetry adapted basis functions of A   symmetry.
    91 basis functions,   214 primitive gaussians,    91 cartesian basis functions
    39 alpha electrons       39 beta electrons
       nuclear repulsion energy       353.6586326750 Hartrees.
 NAtoms=    5 NActive=    5 NUniq=    5 SFac= 1.00D+00 NAtFMM=   60 NAOKFM=F Big=F
 Integral buffers will be    131072 words long.
 Raffenetti 2 integral format.
 Two-electron integral symmetry is turned on.
 One-electron integrals computed using PRISM.
 NBasis=    91 RedAO= T EigKep=  6.64D-04  NBF=    91
 NBsUse=    91 1.00D-06 EigRej= -1.00D+00 NBFU=    91
 Initial guess from the checkpoint file:  "/srv/scratch/z5358697/gauss/Gau-1829110.chk"
 B after Tr=     0.000000    0.000000    0.000000
         Rot=    1.000000    0.000016    0.000000   -0.000001 Ang=   0.00 deg.
 Keep R1 ints in memory in canonical form, NReq=9826245.
 Requested convergence on RMS density matrix=1.00D-08 within 128 cycles.
 Requested convergence on MAX density matrix=1.00D-06.
 Requested convergence on             energy=1.00D-06.
 No special actions if energy rises.
 SCF Done:  E(RM062X) =  -5182.86096060     A.U. after    8 cycles
            NFock=  8  Conv=0.63D-08     -V/T= 2.0068
 Calling FoFJK, ICntrl=      2127 FMM=F ISym2X=0 I1Cent= 0 IOpClX= 0 NMat=1 NMatS=1 NMatT=0.
 ***** Axes restored to original set *****
 -------------------------------------------------------------------
 Center     Atomic                   Forces (Hartrees/Bohr)
 Number     Number              X              Y              Z
 -------------------------------------------------------------------
      1        6           0.000110585   -0.000018910    0.000025741
      2       35          -0.000012523   -0.000006181   -0.000043763
      3       35          -0.000032174    0.000015160    0.000034442
      4        1          -0.000008066    0.000144346   -0.000039959
      5        1          -0.000057822   -0.000134416    0.000023539
 -------------------------------------------------------------------
 Cartesian Forces:  Max     0.000144346 RMS     0.000064433

 GradGradGradGradGradGradGradGradGradGradGradGradGradGradGradGradGradGrad
 Berny optimization.
 Using GEDIIS/GDIIS optimizer.
 FormGI is forming the generalized inverse of G from B-inverse, IUseBI=4.
 Internal  Forces:  Max     0.000163856 RMS     0.000066634
 Search for a local minimum.
 Step number   3 out of a maximum of   24
 All quantities printed in internal units (Hartrees-Bohrs-Radians)
 Mixed Optimization -- En-DIIS/RFO-DIIS
 Swapping is turned off.
 Update second derivatives using D2CorX and points    1    2    3
 DE= -2.32D-05 DEPred=-2.34D-05 R= 9.93D-01
 TightC=F SS=  1.41D+00  RLast= 1.44D-02 DXNew= 5.0454D-01 4.3306D-02
 Trust test= 9.93D-01 RLast= 1.44D-02 DXMaxT set to 3.00D-01
 The second derivative matrix:
                          R1        R2        R3        R4        A1
           R1           0.19589
           R2           0.02871   0.19577
           R3           0.00193   0.00202   0.34127
           R4           0.00189   0.00197  -0.00521   0.34133
           A1          -0.01802  -0.01801  -0.02224  -0.02218   0.23125
           A2           0.00455   0.00458   0.00041   0.00041  -0.00190
           A3           0.00208   0.00210  -0.00118  -0.00118  -0.00219
           A4           0.00468   0.00470   0.00026   0.00026  -0.00195
           A5           0.00220   0.00223  -0.00130  -0.00129  -0.00231
           A6          -0.00777  -0.00788   0.01499   0.01495   0.02028
           D1           0.01988   0.01989   0.01068   0.01064   0.00265
           D2          -0.01582  -0.01582  -0.00882  -0.00878  -0.00206
           D3          -0.00790  -0.00790  -0.00445  -0.00443  -0.00103
           D4           0.00792   0.00792   0.00437   0.00435   0.00103
                          A2        A3        A4        A5        A6
           A2           0.16025
           A3          -0.00009   0.15967
           A4           0.00023  -0.00012   0.16021
           A5          -0.00010  -0.00035  -0.00013   0.15963
           A6           0.00060   0.00220   0.00073   0.00235   0.14246
           D1           0.00214   0.00136   0.00218   0.00143  -0.01047
           D2          -0.00176  -0.00113  -0.00179  -0.00119   0.00853
           D3          -0.00088  -0.00057  -0.00090  -0.00060   0.00429
           D4           0.00087   0.00056   0.00089   0.00059  -0.00424
                          D1        D2        D3        D4
           D1           0.00785
           D2          -0.00448   0.00592
           D3          -0.00225   0.00182   0.00321
           D4           0.00224  -0.00181  -0.00091   0.00320
 ITU=  1  1  0
     Eigenvalues ---    0.05618   0.07135   0.09234   0.15617   0.16000
     Eigenvalues ---    0.16712   0.23259   0.33674   0.34651
 En-DIIS/RFO-DIIS IScMMF=        0 using points:     3    2
 RFO step:  Lambda=-1.45205605D-07.
 DidBck=F Rises=F RFO-DIIS coefs:    1.01336   -0.01336
 Iteration  1 RMS(Cart)=  0.00041282 RMS(Int)=  0.00000018
 Iteration  2 RMS(Cart)=  0.00000013 RMS(Int)=  0.00000005
 Variable       Old X    -DE/DX   Delta X   Delta X   Delta X     New X
                                 (Linear)    (Quad)   (Total)
    R1        3.63643   0.00005   0.00013   0.00021   0.00033   3.63676
    R2        3.63640   0.00005   0.00013   0.00023   0.00035   3.63675
    R3        2.05063   0.00010   0.00000   0.00027   0.00027   2.05090
    R4        2.05063   0.00010   0.00000   0.00027   0.00027   2.05090
    A1        1.96916   0.00002   0.00004  -0.00013  -0.00010   1.96906
    A2        1.88522  -0.00005   0.00000  -0.00028  -0.00028   1.88494
    A3        1.88519  -0.00004  -0.00001  -0.00024  -0.00025   1.88494
    A4        1.88524  -0.00005   0.00000  -0.00029  -0.00029   1.88494
    A5        1.88521  -0.00004  -0.00001  -0.00025  -0.00026   1.88495
    A6        1.95517   0.00016  -0.00002   0.00124   0.00122   1.95639
    D1        2.13495  -0.00003   0.00004  -0.00050  -0.00046   2.13450
    D2       -2.13492   0.00002  -0.00004   0.00045   0.00042  -2.13450
    D3        2.07412   0.00001  -0.00002   0.00024   0.00022   2.07433
    D4       -2.07415  -0.00001   0.00002  -0.00022  -0.00020  -2.07435
         Item               Value     Threshold  Converged?
 Maximum Force            0.000164     0.000450     YES
 RMS     Force            0.000067     0.000300     YES
 Maximum Displacement     0.000931     0.001800     YES
 RMS     Displacement     0.000413     0.001200     YES
 Predicted change in Energy=-1.801663D-07
 Optimization completed.
    -- Stationary point found.
                           ----------------------------
                           !   Optimized Parameters   !
                           ! (Angstroms and Degrees)  !
 --------------------------                            --------------------------
 ! Name  Definition              Value          Derivative Info.                !
 --------------------------------------------------------------------------------
 ! R1    R(1,2)                  1.9243         -DE/DX =    0.0                 !
 ! R2    R(1,3)                  1.9243         -DE/DX =    0.0                 !
 ! R3    R(1,4)                  1.0851         -DE/DX =    0.0001              !
 ! R4    R(1,5)                  1.0851         -DE/DX =    0.0001              !
 ! A1    A(2,1,3)              112.8243         -DE/DX =    0.0                 !
 ! A2    A(2,1,4)              108.0151         -DE/DX =    0.0                 !
 ! A3    A(2,1,5)              108.0134         -DE/DX =    0.0                 !
 ! A4    A(3,1,4)              108.0162         -DE/DX =    0.0                 !
 ! A5    A(3,1,5)              108.0145         -DE/DX =    0.0                 !
 ! A6    A(4,1,5)              112.0228         -DE/DX =    0.0002              !
 ! D1    D(2,1,4,3)            122.3239         -DE/DX =    0.0                 !
 ! D2    D(2,1,5,3)           -122.3218         -DE/DX =    0.0                 !
 ! D3    D(2,1,5,4)            118.8381         -DE/DX =    0.0                 !
 ! D4    D(3,1,5,4)           -118.8401         -DE/DX =    0.0                 !
 --------------------------------------------------------------------------------
 GradGradGradGradGradGradGradGradGradGradGradGradGradGradGradGradGradGrad

                          Input orientation:                          
 ---------------------------------------------------------------------
 Center     Atomic      Atomic             Coordinates (Angstroms)
 Number     Number       Type             X           Y           Z
 ---------------------------------------------------------------------
      1          6           0        0.175796   -0.022301    0.046445
      2         35           0       -0.498099   -0.298963   -1.734653
      3         35           0       -1.193460    0.513680    1.287729
      4          1           0        0.919090    0.767226    0.005161
      5          1           0        0.596773   -0.959643    0.395317
 ---------------------------------------------------------------------
                    Distance matrix (angstroms):
                    1          2          3          4          5
     1  C    0.000000
     2  Br   1.924315   0.000000
     3  Br   1.924298   3.206043   0.000000
     4  H    1.085147   2.484378   2.484378   0.000000
     5  H    1.085147   2.484354   2.484354   1.799497   0.000000
 Stoichiometry    CH2Br2
 Framework group  C1[X(CH2Br2)]
 Deg. of freedom     9
 Full point group                 C1      NOp   1
 Largest Abelian subgroup         C1      NOp   1
 Largest concise Abelian subgroup C1      NOp   1
                         Standard orientation:                         
 ---------------------------------------------------------------------
 Center     Atomic      Atomic             Coordinates (Angstroms)
 Number     Number       Type             X           Y           Z
 ---------------------------------------------------------------------
      1          6           0        0.000009    0.939815    0.000001
      2         35           0       -1.603022   -0.124739    0.000000
      3         35           0        1.603021   -0.124740    0.000000
      4          1           0        0.000000    1.546470    0.899731
      5          1           0        0.000000    1.546416   -0.899766
 ---------------------------------------------------------------------
 Rotational constants (GHZ):     26.1257805      1.2410432      1.1938980

 **********************************************************************

            Population analysis using the SCF density.

 **********************************************************************

 Orbital symmetries:
       Occupied  (A) (A) (A) (A) (A) (A) (A) (A) (A) (A) (A) (A)
                 (A) (A) (A) (A) (A) (A) (A) (A) (A) (A) (A) (A)
                 (A) (A) (A) (A) (A) (A) (A) (A) (A) (A) (A) (A)
                 (A) (A) (A)
       Virtual   (A) (A) (A) (A) (A) (A) (A) (A) (A) (A) (A) (A)
                 (A) (A) (A) (A) (A) (A) (A) (A) (A) (A) (A) (A)
                 (A) (A) (A) (A) (A) (A) (A) (A) (A) (A) (A) (A)
                 (A) (A) (A) (A) (A) (A) (A) (A) (A) (A) (A) (A)
                 (A) (A) (A) (A)
 The electronic state is 1-A.
 Alpha  occ. eigenvalues -- -485.48797-485.48795 -62.77048 -62.77025 -57.30345
 Alpha  occ. eigenvalues --  -57.30336 -57.30070 -57.30053 -57.30052 -57.30046
 Alpha  occ. eigenvalues --  -10.66991  -8.94445  -8.94437  -6.89951  -6.89951
 Alpha  occ. eigenvalues --   -6.88862  -6.88861  -6.88828  -6.88827  -2.92802
 Alpha  occ. eigenvalues --   -2.92801  -2.92429  -2.92429  -2.92399  -2.92398
 Alpha  occ. eigenvalues --   -2.91439  -2.91439  -2.91438  -2.91438  -0.95267
 Alpha  occ. eigenvalues --   -0.86058  -0.74302  -0.56627  -0.50520  -0.47899
 Alpha  occ. eigenvalues --   -0.36748  -0.36241  -0.34961  -0.34358
 Alpha virt. eigenvalues --   -0.01888   0.01648   0.02045   0.04766   0.05224
 Alpha virt. eigenvalues --    0.05456   0.07685   0.07775   0.08253   0.08562
 Alpha virt. eigenvalues --    0.08855   0.11439   0.14184   0.15250   0.20544
 Alpha virt. eigenvalues --    0.30411   0.39507   0.46222   0.47031   0.48576
 Alpha virt. eigenvalues --    0.49914   0.50473   0.51516   0.52391   0.52783
 Alpha virt. eigenvalues --    0.52928   0.60573   0.61261   0.63099   0.63327
 Alpha virt. eigenvalues --    0.66693   0.69453   0.73902   0.77942   0.86931
 Alpha virt. eigenvalues --    0.91246   0.97677   1.03655   1.08561   1.39282
 Alpha virt. eigenvalues --    1.74146   1.74304   1.77293   1.78902   2.10257
 Alpha virt. eigenvalues --    2.19069   2.27037   4.15616   8.89422   8.91614
 Alpha virt. eigenvalues --   77.62500  77.65310
          Condensed to atoms (all electrons):
               1          2          3          4          5
     1  C    5.200651   0.259826   0.259827   0.377013   0.377017
     2  Br   0.259826  35.046694  -0.169066  -0.048341  -0.048345
     3  Br   0.259827  -0.169066  35.046681  -0.048341  -0.048344
     4  H    0.377013  -0.048341  -0.048341   0.476549  -0.034810
     5  H    0.377017  -0.048345  -0.048344  -0.034810   0.476551
 Mulliken charges:
               1
     1  C   -0.474335
     2  Br  -0.040768
     3  Br  -0.040757
     4  H    0.277929
     5  H    0.277930
 Sum of Mulliken charges =   0.00000
 Mulliken charges with hydrogens summed into heavy atoms:
               1
     1  C    0.081525
     2  Br  -0.040768
     3  Br  -0.040757
 Electronic spatial extent (au):  <R**2>=            784.6855
 Charge=              0.0000 electrons
 Dipole moment (field-independent basis, Debye):
    X=              0.0001    Y=              1.6592    Z=              0.0000  Tot=              1.6592
 Quadrupole moment (field-independent basis, Debye-Ang):
   XX=            -45.3025   YY=            -40.9741   ZZ=            -43.7275
   XY=              0.0000   XZ=              0.0000   YZ=              0.0000
 Traceless Quadrupole moment (field-independent basis, Debye-Ang):
   XX=             -1.9678   YY=              2.3606   ZZ=             -0.3928
   XY=              0.0000   XZ=              0.0000   YZ=              0.0000
 Octapole moment (field-independent basis, Debye-Ang**2):
  XXX=              0.0002  YYY=             -3.2760  ZZZ=             -0.0001  XYY=              0.0001
  XXY=             -9.8138  XXZ=             -0.0001  XZZ=              0.0000  YZZ=              0.2496
  YYZ=              0.0001  XYZ=              0.0000
 Hexadecapole moment (field-independent basis, Debye-Ang**3):
 XXXX=           -599.4041 YYYY=            -96.3666 ZZZZ=            -60.3548 XXXY=             -0.0001
 XXXZ=              0.0000 YYYX=             -0.0001 YYYZ=              0.0004 ZZZX=              0.0000
 ZZZY=             -0.0001 XXYY=           -118.3445 XXZZ=           -118.5619 YYZZ=            -23.7044
 XXYZ=              0.0001 YYXZ=              0.0000 ZZXY=              0.0000
 N-N= 3.536586326750D+02 E-N=-1.306133071804D+04  KE= 5.147977572582D+03
 1\1\GINC-KATANA3\FOpt\RM062X\6-31+G(d)\C1H2Br2\Z5358697\14-Mar-2025\0\
 \#m062X/6-31+G(d) OPT Freq=noraman\\dibromomethane\\0,1\C,0.1757957099
 ,-0.0223008147,0.0464453526\Br,-0.4980986701,-0.2989627378,-1.73465292
 26\Br,-1.1934602975,0.5136803952,1.2877291355\H,0.9190902928,0.7672263
 178,0.0051610128\H,0.5967729649,-0.9596431605,0.3953174217\\Version=ES
 64L-G09RevD.01\State=1-A\HF=-5182.8609606\RMSD=6.275e-09\RMSF=6.443e-0
 5\Dipole=0.6264196,-0.0795108,0.1655255\Quadrupole=1.538025,-0.3368992
 ,-1.2011258,-0.1748735,0.7374557,-0.3430165\PG=C01 [X(C1H2Br2)]\\@


 Life may have no meaning.  Or even worse, it may have a
 meaning of which I disapprove.
                                 -- Ashleigh Brilliant
 Job cpu time:       0 days  0 hours  0 minutes 22.2 seconds.
 File lengths (MBytes):  RWF=    132 Int=      0 D2E=      0 Chk=      2 Scr=      2
 Normal termination of Gaussian 09 at Fri Mar 14 14:02:09 2025.
 Link1:  Proceeding to internal job step number  2.
 ---------------------------------------------------------------------
 #N Geom=AllCheck Guess=TCheck SCRF=Check GenChk RM062X/6-31+G(d) Freq
 ---------------------------------------------------------------------
 1/10=4,29=7,30=1,38=1,40=1/1,3;
 2/12=2,40=1/2;
 3/5=1,6=6,7=11,11=2,14=-4,16=1,25=1,30=1,70=2,71=2,74=-55,116=1,140=1/1,2,3;
 4/5=101/1;
 5/5=2,98=1/2;
 8/6=4,10=90,11=11/1;
 11/6=1,8=1,9=11,15=111,16=1/1,2,10;
 10/6=1/2;
 6/7=2,8=2,9=2,10=2,18=1,28=1/1;
 7/8=1,10=1,25=1/1,2,3,16;
 1/10=4,30=1/3;
 99//99;
 Structure from the checkpoint file:  "/srv/scratch/z5358697/gauss/Gau-1829110.chk"
 --------------
 dibromomethane
 --------------
 Charge =  0 Multiplicity = 1
 Redundant internal coordinates found in file.
 C,0,0.1757957099,-0.0223008147,0.0464453526
 Br,0,-0.4980986701,-0.2989627378,-1.7346529226
 Br,0,-1.1934602975,0.5136803952,1.2877291355
 H,0,0.9190902928,0.7672263178,0.0051610128
 H,0,0.5967729649,-0.9596431605,0.3953174217
 Recover connectivity data from disk.

 GradGradGradGradGradGradGradGradGradGradGradGradGradGradGradGradGradGrad
 Berny optimization.
 Initialization pass.
                           ----------------------------
                           !    Initial Parameters    !
                           ! (Angstroms and Degrees)  !
 --------------------------                            --------------------------
 ! Name  Definition              Value          Derivative Info.                !
 --------------------------------------------------------------------------------
 ! R1    R(1,2)                  1.9243         calculate D2E/DX2 analytically  !
 ! R2    R(1,3)                  1.9243         calculate D2E/DX2 analytically  !
 ! R3    R(1,4)                  1.0851         calculate D2E/DX2 analytically  !
 ! R4    R(1,5)                  1.0851         calculate D2E/DX2 analytically  !
 ! A1    A(2,1,3)              112.8243         calculate D2E/DX2 analytically  !
 ! A2    A(2,1,4)              108.0151         calculate D2E/DX2 analytically  !
 ! A3    A(2,1,5)              108.0134         calculate D2E/DX2 analytically  !
 ! A4    A(3,1,4)              108.0162         calculate D2E/DX2 analytically  !
 ! A5    A(3,1,5)              108.0145         calculate D2E/DX2 analytically  !
 ! A6    A(4,1,5)              112.0228         calculate D2E/DX2 analytically  !
 ! D1    D(2,1,4,3)            122.3239         calculate D2E/DX2 analytically  !
 ! D2    D(2,1,5,3)           -122.3218         calculate D2E/DX2 analytically  !
 ! D3    D(2,1,5,4)            118.8381         calculate D2E/DX2 analytically  !
 ! D4    D(3,1,5,4)           -118.8401         calculate D2E/DX2 analytically  !
 --------------------------------------------------------------------------------
 Trust Radius=3.00D-01 FncErr=1.00D-07 GrdErr=1.00D-07
 Number of steps in this run=      2 maximum allowed number of steps=      2.
 GradGradGradGradGradGradGradGradGradGradGradGradGradGradGradGradGradGrad

                          Input orientation:                          
 ---------------------------------------------------------------------
 Center     Atomic      Atomic             Coordinates (Angstroms)
 Number     Number       Type             X           Y           Z
 ---------------------------------------------------------------------
      1          6           0        0.175796   -0.022301    0.046445
      2         35           0       -0.498099   -0.298963   -1.734653
      3         35           0       -1.193460    0.513680    1.287729
      4          1           0        0.919090    0.767226    0.005161
      5          1           0        0.596773   -0.959643    0.395317
 ---------------------------------------------------------------------
                    Distance matrix (angstroms):
                    1          2          3          4          5
     1  C    0.000000
     2  Br   1.924315   0.000000
     3  Br   1.924298   3.206043   0.000000
     4  H    1.085147   2.484378   2.484378   0.000000
     5  H    1.085147   2.484354   2.484354   1.799497   0.000000
 Stoichiometry    CH2Br2
 Framework group  C1[X(CH2Br2)]
 Deg. of freedom     9
 Full point group                 C1      NOp   1
 Largest Abelian subgroup         C1      NOp   1
 Largest concise Abelian subgroup C1      NOp   1
                         Standard orientation:                         
 ---------------------------------------------------------------------
 Center     Atomic      Atomic             Coordinates (Angstroms)
 Number     Number       Type             X           Y           Z
 ---------------------------------------------------------------------
      1          6           0        0.000009    0.939815    0.000001
      2         35           0       -1.603022   -0.124739    0.000000
      3         35           0        1.603021   -0.124740    0.000000
      4          1           0        0.000000    1.546470    0.899731
      5          1           0        0.000000    1.546416   -0.899766
 ---------------------------------------------------------------------
 Rotational constants (GHZ):     26.1257805      1.2410432      1.1938980
 Standard basis: 6-31+G(d) (6D, 7F)
 There are    91 symmetry adapted cartesian basis functions of A   symmetry.
 There are    91 symmetry adapted basis functions of A   symmetry.
    91 basis functions,   214 primitive gaussians,    91 cartesian basis functions
    39 alpha electrons       39 beta electrons
       nuclear repulsion energy       353.6586326750 Hartrees.
 NAtoms=    5 NActive=    5 NUniq=    5 SFac= 1.00D+00 NAtFMM=   60 NAOKFM=F Big=F
 Integral buffers will be    131072 words long.
 Raffenetti 2 integral format.
 Two-electron integral symmetry is turned on.
 One-electron integrals computed using PRISM.
 NBasis=    91 RedAO= T EigKep=  6.64D-04  NBF=    91
 NBsUse=    91 1.00D-06 EigRej= -1.00D+00 NBFU=    91
 Initial guess from the checkpoint file:  "/srv/scratch/z5358697/gauss/Gau-1829110.chk"
 B after Tr=     0.000000    0.000000    0.000000
         Rot=    1.000000    0.000000    0.000000    0.000000 Ang=   0.00 deg.
 Keep R1 ints in memory in canonical form, NReq=9826245.
 Requested convergence on RMS density matrix=1.00D-08 within 128 cycles.
 Requested convergence on MAX density matrix=1.00D-06.
 Requested convergence on             energy=1.00D-06.
 No special actions if energy rises.
 SCF Done:  E(RM062X) =  -5182.86096060     A.U. after    1 cycles
            NFock=  1  Conv=0.14D-08     -V/T= 2.0068
 DoSCS=F DFT=T ScalE2(SS,OS)=  1.000000  1.000000
 Range of M.O.s used for correlation:     1    91
 NBasis=    91 NAE=    39 NBE=    39 NFC=     0 NFV=     0
 NROrb=     91 NOA=    39 NOB=    39 NVA=    52 NVB=    52

 **** Warning!!: The largest alpha MO coefficient is  0.14204549D+02

 Symmetrizing basis deriv contribution to polar:
 IMax=3 JMax=2 DiffMx= 0.00D+00
 G2DrvN: will do     6 centers at a time, making    1 passes.
 Calling FoFCou, ICntrl=  3107 FMM=F I1Cent=   0 AccDes= 0.00D+00.
 End of G2Drv F.D. properties file   721 does not exist.
 End of G2Drv F.D. properties file   722 does not exist.
 End of G2Drv F.D. properties file   788 does not exist.
          IDoAtm=11111
          Differentiating once with respect to electric field.
                with respect to dipole field.
          Differentiating once with respect to nuclear coordinates.
 Keep R1 ints in memory in canonical form, NReq=9804223.
          There are    18 degrees of freedom in the 1st order CPHF.  IDoFFX=6 NUNeed=     3.
     15 vectors produced by pass  0 Test12= 1.13D-14 5.56D-09 XBig12= 3.80D+01 2.90D+00.
 AX will form    15 AO Fock derivatives at one time.
     15 vectors produced by pass  1 Test12= 1.13D-14 5.56D-09 XBig12= 3.93D+00 5.88D-01.
     15 vectors produced by pass  2 Test12= 1.13D-14 5.56D-09 XBig12= 8.49D-02 9.53D-02.
     15 vectors produced by pass  3 Test12= 1.13D-14 5.56D-09 XBig12= 1.19D-03 1.08D-02.
     15 vectors produced by pass  4 Test12= 1.13D-14 5.56D-09 XBig12= 1.07D-05 1.13D-03.
     15 vectors produced by pass  5 Test12= 1.13D-14 5.56D-09 XBig12= 7.18D-08 1.03D-04.
     12 vectors produced by pass  6 Test12= 1.13D-14 5.56D-09 XBig12= 2.08D-10 3.42D-06.
      3 vectors produced by pass  7 Test12= 1.13D-14 5.56D-09 XBig12= 5.31D-13 2.48D-07.
      1 vectors produced by pass  8 Test12= 1.13D-14 5.56D-09 XBig12= 1.59D-15 7.92D-09.
 InvSVY:  IOpt=1 It=  1 EMax= 1.55D-15
 Solved reduced A of dimension   106 with    15 vectors.
 Isotropic polarizability for W=    0.000000       48.02 Bohr**3.
 End of Minotr F.D. properties file   721 does not exist.
 End of Minotr F.D. properties file   722 does not exist.
 End of Minotr F.D. properties file   788 does not exist.

 **********************************************************************

            Population analysis using the SCF density.

 **********************************************************************

 Orbital symmetries:
       Occupied  (A) (A) (A) (A) (A) (A) (A) (A) (A) (A) (A) (A)
                 (A) (A) (A) (A) (A) (A) (A) (A) (A) (A) (A) (A)
                 (A) (A) (A) (A) (A) (A) (A) (A) (A) (A) (A) (A)
                 (A) (A) (A)
       Virtual   (A) (A) (A) (A) (A) (A) (A) (A) (A) (A) (A) (A)
                 (A) (A) (A) (A) (A) (A) (A) (A) (A) (A) (A) (A)
                 (A) (A) (A) (A) (A) (A) (A) (A) (A) (A) (A) (A)
                 (A) (A) (A) (A) (A) (A) (A) (A) (A) (A) (A) (A)
                 (A) (A) (A) (A)
 The electronic state is 1-A.
 Alpha  occ. eigenvalues -- -485.48797-485.48795 -62.77048 -62.77025 -57.30345
 Alpha  occ. eigenvalues --  -57.30336 -57.30070 -57.30053 -57.30052 -57.30046
 Alpha  occ. eigenvalues --  -10.66991  -8.94445  -8.94437  -6.89951  -6.89951
 Alpha  occ. eigenvalues --   -6.88862  -6.88861  -6.88828  -6.88827  -2.92802
 Alpha  occ. eigenvalues --   -2.92801  -2.92429  -2.92429  -2.92399  -2.92398
 Alpha  occ. eigenvalues --   -2.91439  -2.91439  -2.91438  -2.91438  -0.95267
 Alpha  occ. eigenvalues --   -0.86058  -0.74302  -0.56627  -0.50520  -0.47899
 Alpha  occ. eigenvalues --   -0.36748  -0.36241  -0.34961  -0.34358
 Alpha virt. eigenvalues --   -0.01888   0.01648   0.02045   0.04766   0.05224
 Alpha virt. eigenvalues --    0.05456   0.07685   0.07775   0.08253   0.08562
 Alpha virt. eigenvalues --    0.08855   0.11439   0.14184   0.15250   0.20544
 Alpha virt. eigenvalues --    0.30411   0.39507   0.46222   0.47031   0.48576
 Alpha virt. eigenvalues --    0.49914   0.50473   0.51516   0.52391   0.52783
 Alpha virt. eigenvalues --    0.52928   0.60573   0.61261   0.63099   0.63327
 Alpha virt. eigenvalues --    0.66693   0.69453   0.73902   0.77942   0.86931
 Alpha virt. eigenvalues --    0.91246   0.97677   1.03655   1.08561   1.39282
 Alpha virt. eigenvalues --    1.74146   1.74304   1.77293   1.78902   2.10257
 Alpha virt. eigenvalues --    2.19069   2.27037   4.15616   8.89422   8.91614
 Alpha virt. eigenvalues --   77.62500  77.65310
          Condensed to atoms (all electrons):
               1          2          3          4          5
     1  C    5.200651   0.259826   0.259827   0.377013   0.377017
     2  Br   0.259826  35.046694  -0.169066  -0.048341  -0.048345
     3  Br   0.259827  -0.169066  35.046681  -0.048341  -0.048344
     4  H    0.377013  -0.048341  -0.048341   0.476549  -0.034810
     5  H    0.377017  -0.048345  -0.048344  -0.034810   0.476551
 Mulliken charges:
               1
     1  C   -0.474335
     2  Br  -0.040768
     3  Br  -0.040757
     4  H    0.277929
     5  H    0.277930
 Sum of Mulliken charges =   0.00000
 Mulliken charges with hydrogens summed into heavy atoms:
               1
     1  C    0.081525
     2  Br  -0.040768
     3  Br  -0.040757
 APT charges:
               1
     1  C    0.529355
     2  Br  -0.247499
     3  Br  -0.247486
     4  H   -0.017185
     5  H   -0.017185
 Sum of APT charges =   0.00000
 APT charges with hydrogens summed into heavy atoms:
               1
     1  C    0.494985
     2  Br  -0.247499
     3  Br  -0.247486
 Electronic spatial extent (au):  <R**2>=            784.6855
 Charge=              0.0000 electrons
 Dipole moment (field-independent basis, Debye):
    X=              0.0001    Y=              1.6592    Z=              0.0000  Tot=              1.6592
 Quadrupole moment (field-independent basis, Debye-Ang):
   XX=            -45.3025   YY=            -40.9741   ZZ=            -43.7275
   XY=              0.0000   XZ=              0.0000   YZ=              0.0000
 Traceless Quadrupole moment (field-independent basis, Debye-Ang):
   XX=             -1.9678   YY=              2.3606   ZZ=             -0.3928
   XY=              0.0000   XZ=              0.0000   YZ=              0.0000
 Octapole moment (field-independent basis, Debye-Ang**2):
  XXX=              0.0002  YYY=             -3.2760  ZZZ=             -0.0001  XYY=              0.0001
  XXY=             -9.8138  XXZ=             -0.0001  XZZ=              0.0000  YZZ=              0.2496
  YYZ=              0.0001  XYZ=              0.0000
 Hexadecapole moment (field-independent basis, Debye-Ang**3):
 XXXX=           -599.4041 YYYY=            -96.3666 ZZZZ=            -60.3548 XXXY=             -0.0001
 XXXZ=              0.0000 YYYX=             -0.0001 YYYZ=              0.0004 ZZZX=              0.0000
 ZZZY=             -0.0001 XXYY=           -118.3445 XXZZ=           -118.5619 YYZZ=            -23.7044
 XXYZ=              0.0001 YYXZ=              0.0000 ZZXY=              0.0000
 N-N= 3.536586326750D+02 E-N=-1.306133071713D+04  KE= 5.147977572144D+03
  Exact polarizability:  65.597   0.000  41.500   0.000   0.000  36.971
 Approx polarizability:  76.032   0.000  54.893   0.000   0.000  47.268
 Calling FoFJK, ICntrl=    100127 FMM=F ISym2X=0 I1Cent= 0 IOpClX= 0 NMat=1 NMatS=1 NMatT=0.
 Full mass-weighted force constant matrix:
 Low frequencies ---    0.0158    0.0193    0.0200   28.8419   30.0002   94.6174
 Low frequencies ---  185.0822  613.5551  676.0815
 Diagonal vibrational polarizability:
        7.1141212       0.4069939       0.1723704
 Harmonic frequencies (cm**-1), IR intensities (KM/Mole), Raman scattering
 activities (A**4/AMU), depolarization ratios for plane and unpolarized
 incident light, reduced masses (AMU), force constants (mDyne/A),
 and normal coordinates:
                      1                      2                      3
                      A                      A                      A
 Frequencies --    185.0822               613.5551               676.0811
 Red. masses --     38.3655                 6.1609                 6.5512
 Frc consts  --      0.7743                 1.3665                 1.7643
 IR Inten    --      0.0726                 4.8571                97.2515
  Atom  AN      X      Y      Z        X      Y      Z        X      Y      Z
     1   6     0.00   0.43   0.00     0.00   0.62   0.00     0.66   0.00   0.00
     2  35     0.47  -0.04   0.00    -0.05  -0.05   0.00    -0.06  -0.04   0.00
     3  35    -0.47  -0.04   0.00     0.05  -0.05   0.00    -0.06   0.04   0.00
     4   1     0.00   0.43   0.01     0.00   0.55   0.06     0.53   0.00   0.00
     5   1     0.00   0.43  -0.01     0.00   0.55  -0.06     0.53   0.00   0.00
                      4                      5                      6
                      A                      A                      A
 Frequencies --    862.7261              1176.2136              1279.2804
 Red. masses --      1.3072                 1.0118                 1.1198
 Frc consts  --      0.5732                 0.8248                 1.0798
 IR Inten    --      4.5260                 0.0000                84.4317
  Atom  AN      X      Y      Z        X      Y      Z        X      Y      Z
     1   6     0.00   0.00   0.16     0.00   0.00   0.00     0.10   0.00   0.00
     2  35     0.00   0.00  -0.01     0.00   0.00  -0.01     0.00   0.00   0.00
     3  35     0.00   0.00  -0.01     0.00   0.00   0.01     0.00   0.00   0.00
     4   1     0.00   0.65  -0.27     0.71   0.00   0.00    -0.70   0.00   0.00
     5   1     0.00  -0.65  -0.27    -0.71   0.00   0.00    -0.70   0.00   0.00
                      7                      8                      9
                      A                      A                      A
 Frequencies --   1478.7267              3192.9545              3277.6272
 Red. masses --      1.0789                 1.0540                 1.1162
 Frc consts  --      1.3899                 6.3310                 7.0652
 IR Inten    --      0.0651                 0.7356                 3.4839
  Atom  AN      X      Y      Z        X      Y      Z        X      Y      Z
     1   6     0.00   0.08   0.00     0.00  -0.06   0.00     0.00   0.00  -0.10
     2  35     0.00   0.00   0.00     0.00   0.00   0.00     0.00   0.00   0.00
     3  35     0.00   0.00   0.00     0.00   0.00   0.00     0.00   0.00   0.00
     4   1     0.00  -0.57   0.41     0.00   0.38   0.60     0.00   0.39   0.59
     5   1     0.00  -0.57  -0.41     0.00   0.38  -0.60     0.00  -0.39   0.59

 -------------------
 - Thermochemistry -
 -------------------
 Temperature   298.150 Kelvin.  Pressure   1.00000 Atm.
 Atom     1 has atomic number  6 and mass  12.00000
 Atom     2 has atomic number 35 and mass  78.91834
 Atom     3 has atomic number 35 and mass  78.91834
 Atom     4 has atomic number  1 and mass   1.00783
 Atom     5 has atomic number  1 and mass   1.00783
 Molecular mass:   171.85232 amu.
 Principal axes and moments of inertia in atomic units:
                           1         2         3
     Eigenvalues --    69.078941454.212991511.63766
           X            1.00000   0.00000   0.00000
           Y            0.00000   1.00000   0.00000
           Z            0.00000   0.00000   1.00000
 This molecule is an asymmetric top.
 Rotational symmetry number  1.
 Rotational temperatures (Kelvin)      1.25384     0.05956     0.05730
 Rotational constants (GHZ):          26.12578     1.24104     1.19390
 Zero-point vibrational energy      76215.6 (Joules/Mol)
                                   18.21596 (Kcal/Mol)
 Warning -- explicit consideration of   2 degrees of freedom as
           vibrations may cause significant error
 Vibrational temperatures:    266.29   882.77   972.73  1241.27  1692.31
          (Kelvin)           1840.60  2127.56  4593.94  4715.77
 
 Zero-point correction=                           0.029029 (Hartree/Particle)
 Thermal correction to Energy=                    0.032819
 Thermal correction to Enthalpy=                  0.033764
 Thermal correction to Gibbs Free Energy=        -0.000038
 Sum of electronic and zero-point Energies=          -5182.831932
 Sum of electronic and thermal Energies=             -5182.828141
 Sum of electronic and thermal Enthalpies=           -5182.827197
 Sum of electronic and thermal Free Energies=        -5182.860999
 
                     E (Thermal)             CV                S
                      KCal/Mol        Cal/Mol-Kelvin    Cal/Mol-Kelvin
 Total                   20.594             10.714             71.142
 Electronic               0.000              0.000              0.000
 Translational            0.889              2.981             41.332
 Rotational               0.889              2.981             26.521
 Vibrational             18.817              4.752              3.289
 Vibration     1          0.631              1.860              2.277
 Vibration     2          0.973              1.003              0.427
                       Q            Log10(Q)             Ln(Q)
 Total Bot       0.104148D+01          0.017652          0.040645
 Total V=0       0.234436D+14         13.370025         30.785620
 Vib (Bot)       0.843153D-13        -13.074094        -30.104213
 Vib (Bot)    1  0.108327D+01          0.034737          0.079985
 Vib (Bot)    2  0.239969D+00         -0.619844         -1.427244
 Vib (V=0)       0.189793D+01          0.278279          0.640762
 Vib (V=0)    1  0.169309D+01          0.228681          0.526558
 Vib (V=0)    2  0.105460D+01          0.023089          0.053165
 Electronic      0.100000D+01          0.000000          0.000000
 Translational   0.885499D+08          7.947188         18.299077
 Rotational      0.139495D+06          5.144557         11.845780
 ***** Axes restored to original set *****
 -------------------------------------------------------------------
 Center     Atomic                   Forces (Hartrees/Bohr)
 Number     Number              X              Y              Z
 -------------------------------------------------------------------
      1        6           0.000110586   -0.000018909    0.000025741
      2       35          -0.000012522   -0.000006182   -0.000043767
      3       35          -0.000032175    0.000015161    0.000034446
      4        1          -0.000008067    0.000144345   -0.000039959
      5        1          -0.000057822   -0.000134415    0.000023538
 -------------------------------------------------------------------
 Cartesian Forces:  Max     0.000144345 RMS     0.000064433
 FormGI is forming the generalized inverse of G from B-inverse, IUseBI=4.

 GradGradGradGradGradGradGradGradGradGradGradGradGradGradGradGradGradGrad
 Berny optimization.
 Internal  Forces:  Max     0.000163856 RMS     0.000066635
 Search for a local minimum.
 Step number   1 out of a maximum of    2
 All quantities printed in internal units (Hartrees-Bohrs-Radians)
 Second derivative matrix not updated -- analytic derivatives used.
 The second derivative matrix:
                          R1        R2        R3        R4        A1
           R1           0.19516
           R2           0.02552   0.19517
           R3           0.00259   0.00259   0.36888
           R4           0.00259   0.00259   0.00174   0.36887
           A1           0.00466   0.00466   0.00159   0.00130   0.03145
           A2           0.00818  -0.00132  -0.00179  -0.00362  -0.00968
           A3           0.01524  -0.01117  -0.00345  -0.00155  -0.01737
           A4          -0.00132   0.00818  -0.00179  -0.00362  -0.00968
           A5          -0.01117   0.01524  -0.00345  -0.00155  -0.01737
           A6          -0.01606  -0.01607   0.00926   0.00940   0.02416
           D1           0.00968   0.00968  -0.00021  -0.00271   0.02649
           D2          -0.00803  -0.00803   0.00216   0.00026  -0.01741
           D3           0.01030  -0.01832   0.00108   0.00013  -0.00871
           D4           0.01832  -0.01029  -0.00108  -0.00013   0.00871
                          A2        A3        A4        A5        A6
           A2           0.04533
           A3          -0.03007   0.08567
           A4           0.00058   0.02199   0.04533
           A5           0.02199  -0.03478  -0.03007   0.08568
           A6          -0.02939  -0.02675  -0.02939  -0.02675   0.09185
           D1           0.01544  -0.02572   0.01544  -0.02572  -0.00558
           D2           0.01645  -0.00911   0.01645  -0.00911   0.00245
           D3           0.01910   0.00199  -0.00265  -0.01109   0.00123
           D4           0.00265   0.01110  -0.01910  -0.00199  -0.00123
                          D1        D2        D3        D4
           D1           0.05019
           D2          -0.00157   0.03175
           D3          -0.00078   0.01588   0.02552
           D4           0.00078  -0.01588   0.00965   0.02552
 ITU=  0
     Eigenvalues ---    0.04345   0.06571   0.10512   0.13819   0.13842
     Eigenvalues ---    0.18815   0.22845   0.36719   0.37171
 Angle between quadratic step and forces=  31.58 degrees.
 Linear search not attempted -- first point.
 Iteration  1 RMS(Cart)=  0.00047232 RMS(Int)=  0.00000025
 Iteration  2 RMS(Cart)=  0.00000019 RMS(Int)=  0.00000007
 Variable       Old X    -DE/DX   Delta X   Delta X   Delta X     New X
                                 (Linear)    (Quad)   (Total)
    R1        3.63643   0.00005   0.00000   0.00037   0.00037   3.63680
    R2        3.63640   0.00005   0.00000   0.00040   0.00040   3.63680
    R3        2.05063   0.00010   0.00000   0.00022   0.00022   2.05085
    R4        2.05063   0.00010   0.00000   0.00022   0.00022   2.05085
    A1        1.96916   0.00002   0.00000  -0.00014  -0.00014   1.96902
    A2        1.88522  -0.00005   0.00000  -0.00033  -0.00033   1.88489
    A3        1.88519  -0.00004   0.00000  -0.00030  -0.00030   1.88489
    A4        1.88524  -0.00005   0.00000  -0.00034  -0.00034   1.88489
    A5        1.88521  -0.00004   0.00000  -0.00031  -0.00031   1.88489
    A6        1.95517   0.00016   0.00000   0.00146   0.00146   1.95663
    D1        2.13495  -0.00003   0.00000  -0.00056  -0.00056   2.13440
    D2       -2.13492   0.00002   0.00000   0.00052   0.00052  -2.13439
    D3        2.07412   0.00001   0.00000   0.00028   0.00028   2.07440
    D4       -2.07415  -0.00001   0.00000  -0.00024  -0.00024  -2.07440
         Item               Value     Threshold  Converged?
 Maximum Force            0.000164     0.000450     YES
 RMS     Force            0.000067     0.000300     YES
 Maximum Displacement     0.001038     0.001800     YES
 RMS     Displacement     0.000472     0.001200     YES
 Predicted change in Energy=-2.041828D-07
 Optimization completed.
    -- Stationary point found.
                           ----------------------------
                           !   Optimized Parameters   !
                           ! (Angstroms and Degrees)  !
 --------------------------                            --------------------------
 ! Name  Definition              Value          Derivative Info.                !
 --------------------------------------------------------------------------------
 ! R1    R(1,2)                  1.9243         -DE/DX =    0.0                 !
 ! R2    R(1,3)                  1.9243         -DE/DX =    0.0                 !
 ! R3    R(1,4)                  1.0851         -DE/DX =    0.0001              !
 ! R4    R(1,5)                  1.0851         -DE/DX =    0.0001              !
 ! A1    A(2,1,3)              112.8243         -DE/DX =    0.0                 !
 ! A2    A(2,1,4)              108.0151         -DE/DX =    0.0                 !
 ! A3    A(2,1,5)              108.0134         -DE/DX =    0.0                 !
 ! A4    A(3,1,4)              108.0162         -DE/DX =    0.0                 !
 ! A5    A(3,1,5)              108.0145         -DE/DX =    0.0                 !
 ! A6    A(4,1,5)              112.0228         -DE/DX =    0.0002              !
 ! D1    D(2,1,4,3)            122.3239         -DE/DX =    0.0                 !
 ! D2    D(2,1,5,3)           -122.3218         -DE/DX =    0.0                 !
 ! D3    D(2,1,5,4)            118.8381         -DE/DX =    0.0                 !
 ! D4    D(3,1,5,4)           -118.8401         -DE/DX =    0.0                 !
 --------------------------------------------------------------------------------
 GradGradGradGradGradGradGradGradGradGradGradGradGradGradGradGradGradGrad

 1\1\GINC-KATANA3\Freq\RM062X\6-31+G(d)\C1H2Br2\Z5358697\14-Mar-2025\0\
 \#N Geom=AllCheck Guess=TCheck SCRF=Check GenChk RM062X/6-31+G(d) Freq
 \\dibromomethane\\0,1\C,0.1757957099,-0.0223008147,0.0464453526\Br,-0.
 4980986701,-0.2989627378,-1.7346529226\Br,-1.1934602975,0.5136803952,1
 .2877291355\H,0.9190902928,0.7672263178,0.0051610128\H,0.5967729649,-0
 .9596431605,0.3953174217\\Version=ES64L-G09RevD.01\State=1-A\HF=-5182.
 8609606\RMSD=1.361e-09\RMSF=6.443e-05\ZeroPoint=0.029029\Thermal=0.032
 8194\Dipole=0.6264196,-0.0795108,0.1655255\DipoleDeriv=0.2909044,-0.09
 77014,-0.2101489,-0.0977068,0.1084342,0.3028795,-0.2101498,0.302881,1.
 1887254,-0.089024,-0.0202791,-0.0904322,0.0072349,-0.1090287,-0.086209
 8,0.0313443,-0.1089333,-0.5444436,-0.1973761,0.0774309,0.2525261,0.049
 9152,-0.1250908,-0.1220908,0.1307477,-0.0993666,-0.4199909,-0.0097495,
 -0.0094161,0.030286,0.0107445,0.0679444,-0.0508549,0.0248677,-0.055493
 4,-0.1097484,0.0052453,0.0499657,0.0177689,0.0298122,0.0577411,-0.0437
 24,0.02319,-0.0390877,-0.1145426\Polar=42.4881336,-2.1029243,38.877800
 9,-4.7512165,6.7003666,62.7026249\PG=C01 [X(C1H2Br2)]\NImag=0\\0.41946
 382,0.04073781,0.57651440,0.02934391,-0.07996064,0.27250828,-0.0476853
 7,-0.00520899,-0.03455533,0.04683133,-0.00877098,-0.03445082,-0.010294
 00,0.00784934,0.02530155,-0.05031863,-0.00735166,-0.10786513,0.0556528
 4,0.02324400,0.17036397,-0.09122623,0.01943270,0.03854352,0.00629095,0
 .00096328,0.00763941,0.11212560,0.02299375,-0.04091032,-0.01264277,0.0
 0163743,-0.00008718,-0.00878739,-0.03444605,0.03498786,0.05430749,-0.0
 1558494,-0.05788179,0.01062346,-0.00934456,-0.03037947,-0.07761222,0.0
 3117803,0.09539912,-0.18882680,-0.15630957,0.00680315,-0.00307003,-0.0
 0523597,-0.00464559,-0.01488863,-0.00674362,0.00865558,0.19438560,-0.1
 5260509,-0.21755509,0.01378397,0.00074605,0.00222748,0.00053764,0.0123
 9766,0.00651483,-0.00561522,0.15851915,0.22394117,0.00580693,0.0129318
 8,-0.03785495,-0.01954056,-0.01749021,-0.01331658,0.01679575,0.0066325
 6,-0.00578470,-0.01051526,-0.00900166,0.05482757,-0.09172543,0.1013480
 5,-0.04013525,-0.00236688,0.00519433,-0.00832803,-0.01230169,0.0165584
 8,0.00402568,0.01239986,-0.01905776,0.00745314,0.09399415,0.09764451,-
 0.28359817,0.08911344,-0.00502383,0.00700897,-0.00764259,0.00165241,-0
 .00050520,-0.00063331,0.00977001,-0.01512840,0.00692743,-0.10404310,0.
 29222279,-0.03913970,0.08996537,-0.06890641,-0.01218041,0.01388477,-0.
 01880278,0.01463354,-0.01638044,-0.00135315,-0.00029789,0.00029527,0.0
 0212866,0.03698445,-0.08776497,0.08693368\\-0.00011059,0.00001891,-0.0
 0002574,0.00001252,0.00000618,0.00004377,0.00003218,-0.00001516,-0.000
 03445,0.00000807,-0.00014434,0.00003996,0.00005782,0.00013442,-0.00002
 354\\\@


 IBM COMPATIBILITY IS LIKE PREGNANCY. YOU ARE OR
 OR YOU ARE NOT. -- ADAM OSBORNE
 Job cpu time:       0 days  0 hours  0 minutes 23.9 seconds.
 File lengths (MBytes):  RWF=    132 Int=      0 D2E=      0 Chk=      2 Scr=      2
 Normal termination of Gaussian 09 at Fri Mar 14 14:02:36 2025.
