 Entering Gaussian System, Link 0=g09
 Initial command:
 /apps/z_install_tree/linux-rocky8-ivybridge/gcc-12.2.0/gaussian-09-D.01-wczn3gur5lpur3omlkzwa2l5ecyxp5ef/g09/l1.exe "/srv/scratch/z5358697/gauss/Gau-2720245.inp" -scrdir="/srv/scratch/z5358697/gauss/"
 Entering Link 1 = /apps/z_install_tree/linux-rocky8-ivybridge/gcc-12.2.0/gaussian-09-D.01-wczn3gur5lpur3omlkzwa2l5ecyxp5ef/g09/l1.exe PID=   2720247.
  
 Copyright (c) 1988,1990,1992,1993,1995,1998,2003,2009,2013,
            Gaussian, Inc.  All Rights Reserved.
  
 This is part of the Gaussian(R) 09 program.  It is based on
 the Gaussian(R) 03 system (copyright 2003, Gaussian, Inc.),
 the Gaussian(R) 98 system (copyright 1998, Gaussian, Inc.),
 the Gaussian(R) 94 system (copyright 1995, Gaussian, Inc.),
 the Gaussian 92(TM) system (copyright 1992, Gaussian, Inc.),
 the Gaussian 90(TM) system (copyright 1990, Gaussian, Inc.),
 the Gaussian 88(TM) system (copyright 1988, Gaussian, Inc.),
 the Gaussian 86(TM) system (copyright 1986, Carnegie Mellon
 University), and the Gaussian 82(TM) system (copyright 1983,
 Carnegie Mellon University). Gaussian is a federally registered
 trademark of Gaussian, Inc.
  
 This software contains proprietary and confidential information,
 including trade secrets, belonging to Gaussian, Inc.
  
 This software is provided under written license and may be
 used, copied, transmitted, or stored only in accord with that
 written license.
  
 The following legend is applicable only to US Government
 contracts under FAR:
  
                    RESTRICTED RIGHTS LEGEND
  
 Use, reproduction and disclosure by the US Government is
 subject to restrictions as set forth in subparagraphs (a)
 and (c) of the Commercial Computer Software - Restricted
 Rights clause in FAR 52.227-19.
  
 Gaussian, Inc.
 340 Quinnipiac St., Bldg. 40, Wallingford CT 06492
  
  
 ---------------------------------------------------------------
 Warning -- This program may not be used in any manner that
 competes with the business of Gaussian, Inc. or will provide
 assistance to any competitor of Gaussian, Inc.  The licensee
 of this program is prohibited from giving any competitor of
 Gaussian, Inc. access to this program.  By using this program,
 the user acknowledges that Gaussian, Inc. is engaged in the
 business of creating and licensing software in the field of
 computational chemistry and represents and warrants to the
 licensee that it is not a competitor of Gaussian, Inc. and that
 it will not use this program in any manner prohibited above.
 ---------------------------------------------------------------
  

 Cite this work as:
 Gaussian 09, Revision D.01,
 M. J. Frisch, G. W. Trucks, H. B. Schlegel, G. E. Scuseria, 
 M. A. Robb, J. R. Cheeseman, G. Scalmani, V. Barone, B. Mennucci, 
 G. A. Petersson, H. Nakatsuji, M. Caricato, X. Li, H. P. Hratchian, 
 A. F. Izmaylov, J. Bloino, G. Zheng, J. L. Sonnenberg, M. Hada, 
 M. Ehara, K. Toyota, R. Fukuda, J. Hasegawa, M. Ishida, T. Nakajima, 
 Y. Honda, O. Kitao, H. Nakai, T. Vreven, J. A. Montgomery, Jr., 
 J. E. Peralta, F. Ogliaro, M. Bearpark, J. J. Heyd, E. Brothers, 
 K. N. Kudin, V. N. Staroverov, T. Keith, R. Kobayashi, J. Normand, 
 K. Raghavachari, A. Rendell, J. C. Burant, S. S. Iyengar, J. Tomasi, 
 M. Cossi, N. Rega, J. M. Millam, M. Klene, J. E. Knox, J. B. Cross, 
 V. Bakken, C. Adamo, J. Jaramillo, R. Gomperts, R. E. Stratmann, 
 O. Yazyev, A. J. Austin, R. Cammi, C. Pomelli, J. W. Ochterski, 
 R. L. Martin, K. Morokuma, V. G. Zakrzewski, G. A. Voth, 
 P. Salvador, J. J. Dannenberg, S. Dapprich, A. D. Daniels, 
 O. Farkas, J. B. Foresman, J. V. Ortiz, J. Cioslowski, 
 and D. J. Fox, Gaussian, Inc., Wallingford CT, 2013.
 
 ******************************************
 Gaussian 09:  ES64L-G09RevD.01 24-Apr-2013
                17-Mar-2025 
 ******************************************
 ---------------------------------
 #m062X/6-31+G(d) OPT Freq=noraman
 ---------------------------------
 1/14=-1,18=20,19=15,26=3,38=1/1,3;
 2/9=110,12=2,17=6,18=5,40=1/2;
 3/5=1,6=6,7=11,11=2,16=1,25=1,30=1,71=1,74=-55/1,2,3;
 4//1;
 5/5=2,38=5/2;
 6/7=2,8=2,9=2,10=2,28=1/1;
 7//1,2,3,16;
 1/14=-1,18=20,19=15,26=3/3(2);
 2/9=110/2;
 99//99;
 2/9=110/2;
 3/5=1,6=6,7=11,11=2,16=1,25=1,30=1,71=1,74=-55/1,2,3;
 4/5=5,16=3,69=1/1;
 5/5=2,38=5/2;
 7//1,2,3,16;
 1/14=-1,18=20,19=15,26=3/3(-5);
 2/9=110/2;
 6/7=2,8=2,9=2,10=2,19=2,28=1/1;
 99/9=1/99;
 ------------------------
 2,6-dichlorobenzonitrile
 ------------------------
 Symbolic Z-matrix:
 Charge =  0 Multiplicity = 1
 C                     1.8851   -1.0363   -0.1124 
 C                     2.921    -1.6309    0.6081 
 C                     2.8783   -1.652     2.0022 
 C                     1.7997   -1.0786    2.6757 
 C                     0.7638   -0.4841    1.9551 
 C                     0.8066   -0.463     0.561 
 Cl                   -0.6017    0.2437    2.7306 
 C                     1.7565   -1.0993    4.1111 
 N                     1.7218   -1.116     5.2651 
 Cl                    4.1943   -2.4046    2.8378 
 H                     1.9182   -1.0205   -1.1977 
 H                     3.7541   -2.0724    0.0668 
 H                     0.0082   -0.0037   -0.0166 
 

 GradGradGradGradGradGradGradGradGradGradGradGradGradGradGradGradGradGrad
 Berny optimization.
 Initialization pass.
                           ----------------------------
                           !    Initial Parameters    !
                           ! (Angstroms and Degrees)  !
 --------------------------                            --------------------------
 ! Name  Definition              Value          Derivative Info.                !
 --------------------------------------------------------------------------------
 ! R1    R(1,2)                  1.3949         estimate D2E/DX2                !
 ! R2    R(1,6)                  1.3947         estimate D2E/DX2                !
 ! R3    R(1,11)                 1.0859         estimate D2E/DX2                !
 ! R4    R(2,3)                  1.3949         estimate D2E/DX2                !
 ! R5    R(2,12)                 1.0872         estimate D2E/DX2                !
 ! R6    R(3,4)                  1.3949         estimate D2E/DX2                !
 ! R7    R(3,10)                 1.731          estimate D2E/DX2                !
 ! R8    R(4,5)                  1.3949         estimate D2E/DX2                !
 ! R9    R(4,8)                  1.4362         estimate D2E/DX2                !
 ! R10   R(5,6)                  1.3949         estimate D2E/DX2                !
 ! R11   R(5,7)                  1.7308         estimate D2E/DX2                !
 ! R12   R(6,13)                 1.0872         estimate D2E/DX2                !
 ! R13   R(8,9)                  1.1546         estimate D2E/DX2                !
 ! A1    A(2,1,6)              120.0052         estimate D2E/DX2                !
 ! A2    A(2,1,11)             119.9864         estimate D2E/DX2                !
 ! A3    A(6,1,11)             120.0084         estimate D2E/DX2                !
 ! A4    A(1,2,3)              119.9958         estimate D2E/DX2                !
 ! A5    A(1,2,12)             119.0126         estimate D2E/DX2                !
 ! A6    A(3,2,12)             120.9916         estimate D2E/DX2                !
 ! A7    A(2,3,4)              119.9999         estimate D2E/DX2                !
 ! A8    A(2,3,10)             117.7581         estimate D2E/DX2                !
 ! A9    A(4,3,10)             122.242          estimate D2E/DX2                !
 ! A10   A(3,4,5)              119.9999         estimate D2E/DX2                !
 ! A11   A(3,4,8)              119.9929         estimate D2E/DX2                !
 ! A12   A(5,4,8)              120.0072         estimate D2E/DX2                !
 ! A13   A(4,5,6)              119.9967         estimate D2E/DX2                !
 ! A14   A(4,5,7)              122.2516         estimate D2E/DX2                !
 ! A15   A(6,5,7)              117.7518         estimate D2E/DX2                !
 ! A16   A(1,6,5)              120.0026         estimate D2E/DX2                !
 ! A17   A(1,6,13)             119.0122         estimate D2E/DX2                !
 ! A18   A(5,6,13)             120.9852         estimate D2E/DX2                !
 ! A19   L(4,8,9,10,-1)        179.9973         estimate D2E/DX2                !
 ! A20   L(4,8,9,10,-2)        180.002          estimate D2E/DX2                !
 ! D1    D(6,1,2,3)             -0.0063         estimate D2E/DX2                !
 ! D2    D(6,1,2,12)          -179.9645         estimate D2E/DX2                !
 ! D3    D(11,1,2,3)          -179.9624         estimate D2E/DX2                !
 ! D4    D(11,1,2,12)            0.0794         estimate D2E/DX2                !
 ! D5    D(2,1,6,5)              0.004          estimate D2E/DX2                !
 ! D6    D(2,1,6,13)           179.9838         estimate D2E/DX2                !
 ! D7    D(11,1,6,5)           179.9601         estimate D2E/DX2                !
 ! D8    D(11,1,6,13)           -0.06           estimate D2E/DX2                !
 ! D9    D(1,2,3,4)              0.0043         estimate D2E/DX2                !
 ! D10   D(1,2,3,10)          -179.9927         estimate D2E/DX2                !
 ! D11   D(12,2,3,4)           179.9616         estimate D2E/DX2                !
 ! D12   D(12,2,3,10)           -0.0354         estimate D2E/DX2                !
 ! D13   D(2,3,4,5)              0.0            estimate D2E/DX2                !
 ! D14   D(2,3,4,8)           -179.9417         estimate D2E/DX2                !
 ! D15   D(10,3,4,5)           179.9969         estimate D2E/DX2                !
 ! D16   D(10,3,4,8)             0.0552         estimate D2E/DX2                !
 ! D17   D(3,4,5,6)             -0.0023         estimate D2E/DX2                !
 ! D18   D(3,4,5,7)            179.9797         estimate D2E/DX2                !
 ! D19   D(8,4,5,6)            179.9394         estimate D2E/DX2                !
 ! D20   D(8,4,5,7)             -0.0786         estimate D2E/DX2                !
 ! D21   D(4,5,6,1)              0.0003         estimate D2E/DX2                !
 ! D22   D(4,5,6,13)          -179.9791         estimate D2E/DX2                !
 ! D23   D(7,5,6,1)           -179.9825         estimate D2E/DX2                !
 ! D24   D(7,5,6,13)             0.0381         estimate D2E/DX2                !
 --------------------------------------------------------------------------------
 Trust Radius=3.00D-01 FncErr=1.00D-07 GrdErr=1.00D-06
 Number of steps in this run=     67 maximum allowed number of steps=    100.
 GradGradGradGradGradGradGradGradGradGradGradGradGradGradGradGradGradGrad

                          Input orientation:                          
 ---------------------------------------------------------------------
 Center     Atomic      Atomic             Coordinates (Angstroms)
 Number     Number       Type             X           Y           Z
 ---------------------------------------------------------------------
      1          6           0        1.885100   -1.036300   -0.112400
      2          6           0        2.921000   -1.630900    0.608100
      3          6           0        2.878300   -1.652000    2.002200
      4          6           0        1.799700   -1.078600    2.675700
      5          6           0        0.763800   -0.484100    1.955100
      6          6           0        0.806600   -0.463000    0.561000
      7         17           0       -0.601700    0.243700    2.730600
      8          6           0        1.756500   -1.099300    4.111100
      9          7           0        1.721800   -1.116000    5.265100
     10         17           0        4.194300   -2.404600    2.837800
     11          1           0        1.918200   -1.020500   -1.197700
     12          1           0        3.754100   -2.072400    0.066800
     13          1           0        0.008200   -0.003700   -0.016600
 ---------------------------------------------------------------------
                    Distance matrix (angstroms):
                    1          2          3          4          5
     1  C    0.000000
     2  C    1.394904   0.000000
     3  C    2.416002   1.394913   0.000000
     4  C    2.789728   2.416054   1.394908   0.000000
     5  C    2.415946   2.789816   2.416054   1.394913   0.000000
     6  C    1.394741   2.415967   2.789753   2.416023   1.394916
     7  Cl   3.988135   4.519795   4.029224   2.741936   1.730804
     8  C    4.225927   3.729567   2.451810   1.436199   2.451991
     9  N    5.380569   4.836409   3.503042   2.590841   3.503307
    10  Cl   3.988525   2.681691   1.731037   2.742018   4.029368
    11  H    1.085920   2.153859   3.399992   3.875648   3.400075
    12  H    2.144476   1.087191   2.165533   3.407885   3.876889
    13  H    2.144340   3.394471   3.876844   3.407838   2.165483
                    6          7          8          9         10
     6  C    0.000000
     7  Cl   2.681399   0.000000
     8  C    3.729665   3.044756   0.000000
     9  N    4.836585   3.697449   1.154642   0.000000
    10  Cl   4.519971   5.479653   3.044334   3.696692   0.000000
    11  H    2.153947   4.835250   5.311847   6.466489   4.835455
    12  H    3.394430   5.606527   4.614509   5.662797   2.825345
    13  H    1.087208   2.824941   4.614629   5.663037   5.606724
                   11         12         13
    11  H    0.000000
    12  H    2.464951   0.000000
    13  H    2.465153   4.279982   0.000000
 Stoichiometry    C7H3Cl2N
 Framework group  C1[X(C7H3Cl2N)]
 Deg. of freedom    33
 Full point group                 C1      NOp   1
 Largest Abelian subgroup         C1      NOp   1
 Largest concise Abelian subgroup C1      NOp   1
                         Standard orientation:                         
 ---------------------------------------------------------------------
 Center     Atomic      Atomic             Coordinates (Angstroms)
 Number     Number       Type             X           Y           Z
 ---------------------------------------------------------------------
      1          6           0       -0.000686    2.453079    0.000608
      2          6           0        1.207553    1.756000    0.000201
      3          6           0        1.207882    0.361087   -0.000207
      4          6           0        0.000019   -0.336650   -0.000299
      5          6           0       -1.208173    0.360528    0.000018
      6          6           0       -1.208414    1.755444    0.000475
      7         17           0       -2.739749   -0.445672   -0.000592
      8          6           0        0.000532   -1.772848    0.000547
      9          7           0        0.001000   -2.927490    0.001192
     10         17           0        2.739905   -0.444764   -0.000507
     11          1           0       -0.000763    3.538998    0.000310
     12          1           0        2.139406    2.316028    0.000902
     13          1           0       -2.140575    2.314995    0.001067
 ---------------------------------------------------------------------
 Rotational constants (GHZ):      1.4639196      0.8363408      0.5322597
 Standard basis: 6-31+G(d) (6D, 7F)
 There are   204 symmetry adapted cartesian basis functions of A   symmetry.
 There are   204 symmetry adapted basis functions of A   symmetry.
   204 basis functions,   380 primitive gaussians,   204 cartesian basis functions
    43 alpha electrons       43 beta electrons
       nuclear repulsion energy       607.6469075613 Hartrees.
 NAtoms=   13 NActive=   13 NUniq=   13 SFac= 1.00D+00 NAtFMM=   60 NAOKFM=F Big=F
 Integral buffers will be    131072 words long.
 Raffenetti 2 integral format.
 Two-electron integral symmetry is turned on.
 One-electron integrals computed using PRISM.
 NBasis=   204 RedAO= T EigKep=  1.05D-06  NBF=   204
 NBsUse=   204 1.00D-06 EigRej= -1.00D+00 NBFU=   204
 ExpMin= 4.38D-02 ExpMax= 2.52D+04 ExpMxC= 3.78D+03 IAcc=2 IRadAn=         4 AccDes= 0.00D+00
 Harris functional with IExCor= 1009 and IRadAn=       4 diagonalized for initial guess.
 HarFok:  IExCor= 1009 AccDes= 0.00D+00 IRadAn=         4 IDoV= 1 UseB2=F ITyADJ=14
 ICtDFT=  3500011 ScaDFX=  1.000000  1.000000  1.000000  1.000000
 FoFCou: FMM=F IPFlag=           0 FMFlag=      100000 FMFlg1=           0
         NFxFlg=           0 DoJE=T BraDBF=F KetDBF=T FulRan=T
         wScrn=  0.000000 ICntrl=     500 IOpCl=  0 I1Cent=   200000004 NGrid=           0
         NMat0=    1 NMatS0=      1 NMatT0=    0 NMatD0=    1 NMtDS0=    0 NMtDT0=    0
 Petite list used in FoFCou.
 Requested convergence on RMS density matrix=1.00D-08 within 128 cycles.
 Requested convergence on MAX density matrix=1.00D-06.
 Requested convergence on             energy=1.00D-06.
 No special actions if energy rises.
 SCF Done:  E(RM062X) =  -1243.49167687     A.U. after   15 cycles
            NFock= 15  Conv=0.99D-08     -V/T= 2.0042

 **********************************************************************

            Population analysis using the SCF density.

 **********************************************************************

 Orbital symmetries:
       Occupied  (A) (A) (A) (A) (A) (A) (A) (A) (A) (A) (A) (A)
                 (A) (A) (A) (A) (A) (A) (A) (A) (A) (A) (A) (A)
                 (A) (A) (A) (A) (A) (A) (A) (A) (A) (A) (A) (A)
                 (A) (A) (A) (A) (A) (A) (A)
       Virtual   (A) (A) (A) (A) (A) (A) (A) (A) (A) (A) (A) (A)
                 (A) (A) (A) (A) (A) (A) (A) (A) (A) (A) (A) (A)
                 (A) (A) (A) (A) (A) (A) (A) (A) (A) (A) (A) (A)
                 (A) (A) (A) (A) (A) (A) (A) (A) (A) (A) (A) (A)
                 (A) (A) (A) (A) (A) (A) (A) (A) (A) (A) (A) (A)
                 (A) (A) (A) (A) (A) (A) (A) (A) (A) (A) (A) (A)
                 (A) (A) (A) (A) (A) (A) (A) (A) (A) (A) (A) (A)
                 (A) (A) (A) (A) (A) (A) (A) (A) (A) (A) (A) (A)
                 (A) (A) (A) (A) (A) (A) (A) (A) (A) (A) (A) (A)
                 (A) (A) (A) (A) (A) (A) (A) (A) (A) (A) (A) (A)
                 (A) (A) (A) (A) (A) (A) (A) (A) (A) (A) (A) (A)
                 (A) (A) (A) (A) (A) (A) (A) (A) (A) (A) (A) (A)
                 (A) (A) (A) (A) (A) (A) (A) (A) (A) (A) (A) (A)
                 (A) (A) (A) (A) (A)
 The electronic state is 1-A.
 Alpha  occ. eigenvalues -- -102.70075-102.70073 -14.78614 -10.66275 -10.66274
 Alpha  occ. eigenvalues --  -10.63670 -10.60807 -10.60540 -10.60168 -10.60160
 Alpha  occ. eigenvalues --   -9.84706  -9.84703  -7.57133  -7.57130  -7.56436
 Alpha  occ. eigenvalues --   -7.56433  -7.56405  -7.56403  -1.05867  -1.02400
 Alpha  occ. eigenvalues --   -1.00770  -0.95522  -0.90280  -0.85802  -0.76219
 Alpha  occ. eigenvalues --   -0.72441  -0.66159  -0.59859  -0.59231  -0.55120
 Alpha  occ. eigenvalues --   -0.53260  -0.52921  -0.48498  -0.46956  -0.45927
 Alpha  occ. eigenvalues --   -0.45296  -0.43811  -0.42111  -0.41141  -0.40769
 Alpha  occ. eigenvalues --   -0.39726  -0.33948  -0.32751
 Alpha virt. eigenvalues --   -0.04596  -0.02546   0.00235   0.00973   0.02009
 Alpha virt. eigenvalues --    0.03175   0.03732   0.04873   0.05058   0.05391
 Alpha virt. eigenvalues --    0.05679   0.07448   0.07810   0.08172   0.08395
 Alpha virt. eigenvalues --    0.09035   0.09058   0.10735   0.10780   0.11875
 Alpha virt. eigenvalues --    0.12011   0.12199   0.13464   0.14051   0.14444
 Alpha virt. eigenvalues --    0.15743   0.16337   0.16503   0.17263   0.18229
 Alpha virt. eigenvalues --    0.19259   0.19410   0.20146   0.21002   0.21005
 Alpha virt. eigenvalues --    0.22324   0.22662   0.23247   0.23454   0.24912
 Alpha virt. eigenvalues --    0.25814   0.26023   0.27536   0.27736   0.29140
 Alpha virt. eigenvalues --    0.29378   0.29701   0.29919   0.31813   0.32127
 Alpha virt. eigenvalues --    0.33450   0.33739   0.34004   0.39096   0.40125
 Alpha virt. eigenvalues --    0.50412   0.52562   0.59453   0.63098   0.63902
 Alpha virt. eigenvalues --    0.63940   0.64464   0.66234   0.67582   0.69286
 Alpha virt. eigenvalues --    0.70241   0.71336   0.71750   0.72398   0.73958
 Alpha virt. eigenvalues --    0.74863   0.75332   0.76650   0.79787   0.79970
 Alpha virt. eigenvalues --    0.81172   0.83708   0.85114   0.87315   0.87709
 Alpha virt. eigenvalues --    0.91069   0.91696   0.91990   0.93062   0.95095
 Alpha virt. eigenvalues --    0.95140   0.96219   0.97141   0.98412   1.02642
 Alpha virt. eigenvalues --    1.04157   1.04642   1.05254   1.08878   1.09293
 Alpha virt. eigenvalues --    1.11222   1.11819   1.16052   1.17778   1.18993
 Alpha virt. eigenvalues --    1.20125   1.23781   1.23973   1.26094   1.30927
 Alpha virt. eigenvalues --    1.36499   1.37237   1.39027   1.45849   1.45874
 Alpha virt. eigenvalues --    1.48071   1.48154   1.52924   1.53094   1.54860
 Alpha virt. eigenvalues --    1.58613   1.63000   1.68557   1.81311   1.82708
 Alpha virt. eigenvalues --    1.83565   1.86369   1.94503   1.98451   1.98496
 Alpha virt. eigenvalues --    1.99656   2.04375   2.09840   2.10536   2.13583
 Alpha virt. eigenvalues --    2.13954   2.15575   2.21838   2.23200   2.27145
 Alpha virt. eigenvalues --    2.28747   2.29175   2.49479   2.56732   2.59400
 Alpha virt. eigenvalues --    2.61293   2.66387   2.70065   2.72070   2.81671
 Alpha virt. eigenvalues --    2.82649   2.87642   3.10261   3.15319   3.24591
 Alpha virt. eigenvalues --    3.41679   4.20812   4.24944   4.27350   4.29454
 Alpha virt. eigenvalues --    4.33400   4.41867   4.43671   4.45597   4.55355
 Alpha virt. eigenvalues --    4.81567
          Condensed to atoms (all electrons):
               1          2          3          4          5          6
     1  C    5.853032   0.401361   0.363538  -1.649378   0.363607   0.402283
     2  C    0.401361   9.297426   1.166333  -0.095926  -3.623024  -0.752144
     3  C    0.363538   1.166333  17.787664  -5.716690  -3.628888  -3.623088
     4  C   -1.649378  -0.095926  -5.716690  19.591244  -5.715996  -0.097134
     5  C    0.363607  -3.623024  -3.628888  -5.715996  17.785989   1.166730
     6  C    0.402283  -0.752144  -3.623088  -0.097134   1.166730   9.297365
     7  Cl   0.031449   0.042973   0.270288   0.024866  -0.053226  -0.423572
     8  C   -0.161703   0.268518  -1.304707  -0.037014  -1.304211   0.268394
     9  N   -0.001603  -0.005793   0.039542   0.316579   0.039294  -0.005841
    10  Cl   0.031465  -0.423836  -0.052821   0.024801   0.270437   0.042966
    11  H    0.311749  -0.011538   0.028107  -0.034766   0.028077  -0.011519
    12  H   -0.054786   0.262418  -0.029025   0.125417  -0.020048   0.025742
    13  H   -0.054823   0.025751  -0.020031   0.125519  -0.029088   0.262375
               7          8          9         10         11         12
     1  C    0.031449  -0.161703  -0.001603   0.031465   0.311749  -0.054786
     2  C    0.042973   0.268518  -0.005793  -0.423836  -0.011538   0.262418
     3  C    0.270288  -1.304707   0.039542  -0.052821   0.028107  -0.029025
     4  C    0.024866  -0.037014   0.316579   0.024801  -0.034766   0.125417
     5  C   -0.053226  -1.304211   0.039294   0.270437   0.028077  -0.020048
     6  C   -0.423572   0.268394  -0.005841   0.042966  -0.011519   0.025742
     7  Cl  16.901838  -0.127693   0.021444  -0.003195   0.001176   0.000269
     8  C   -0.127693   9.181296  -0.101719  -0.127885  -0.000341   0.005742
     9  N    0.021444  -0.101719   7.106070   0.021458  -0.000014  -0.000026
    10  Cl  -0.003195  -0.127885   0.021458  16.901837   0.001177  -0.005557
    11  H    0.001176  -0.000341  -0.000014   0.001177   0.462723  -0.003613
    12  H    0.000269   0.005742  -0.000026  -0.005557  -0.003613   0.450474
    13  H   -0.005554   0.005742  -0.000026   0.000269  -0.003612  -0.000127
              13
     1  C   -0.054823
     2  C    0.025751
     3  C   -0.020031
     4  C    0.125519
     5  C   -0.029088
     6  C    0.262375
     7  Cl  -0.005554
     8  C    0.005742
     9  N   -0.000026
    10  Cl   0.000269
    11  H   -0.003612
    12  H   -0.000127
    13  H    0.450487
 Mulliken charges:
               1
     1  C    0.163808
     2  C   -0.552520
     3  C    0.719778
     4  C   -0.861523
     5  C    0.720347
     6  C   -0.552558
     7  Cl   0.318936
     8  C   -0.564419
     9  N   -0.429366
    10  Cl   0.318885
    11  H    0.232393
    12  H    0.243120
    13  H    0.243117
 Sum of Mulliken charges =   0.00000
 Mulliken charges with hydrogens summed into heavy atoms:
               1
     1  C    0.396201
     2  C   -0.309400
     3  C    0.719778
     4  C   -0.861523
     5  C    0.720347
     6  C   -0.309441
     7  Cl   0.318936
     8  C   -0.564419
     9  N   -0.429366
    10  Cl   0.318885
 Electronic spatial extent (au):  <R**2>=           1886.3032
 Charge=              0.0000 electrons
 Dipole moment (field-independent basis, Debye):
    X=             -0.0025    Y=              5.5791    Z=             -0.0004  Tot=              5.5791
 Quadrupole moment (field-independent basis, Debye-Ang):
   XX=            -68.2821   YY=            -73.4524   ZZ=            -72.6603
   XY=              0.0032   XZ=              0.0003   YZ=              0.0083
 Traceless Quadrupole moment (field-independent basis, Debye-Ang):
   XX=              3.1828   YY=             -1.9875   ZZ=             -1.1954
   XY=              0.0032   XZ=              0.0003   YZ=              0.0083
 Octapole moment (field-independent basis, Debye-Ang**2):
  XXX=             -0.0133  YYY=             65.4270  ZZZ=             -0.0070  XYY=             -0.0154
  XXY=              3.4967  XXZ=              0.0019  XZZ=             -0.0006  YZZ=             -5.0782
  YYZ=             -0.0131  XYZ=             -0.0005
 Hexadecapole moment (field-independent basis, Debye-Ang**3):
 XXXX=          -1366.4491 YYYY=          -1042.1954 ZZZZ=            -82.0322 XXXY=              0.0017
 XXXZ=              0.0102 YYYX=              0.0662 YYYZ=              0.0816 ZZZX=              0.0029
 ZZZY=             -0.0003 XXYY=           -373.1783 XXZZ=           -259.8003 YYZZ=           -190.4863
 XXYZ=              0.0302 YYXZ=              0.0014 ZZXY=              0.0052
 N-N= 6.076469075613D+02 E-N=-4.150655816599D+03  KE= 1.238258520568D+03
 Calling FoFJK, ICntrl=      2127 FMM=F ISym2X=0 I1Cent= 0 IOpClX= 0 NMat=1 NMatS=1 NMatT=0.
 ***** Axes restored to original set *****
 -------------------------------------------------------------------
 Center     Atomic                   Forces (Hartrees/Bohr)
 Number     Number              X              Y              Z
 -------------------------------------------------------------------
      1        6          -0.000206920   -0.000255934    0.009401234
      2        6          -0.000835781    0.000668598   -0.004987807
      3        6           0.006308111   -0.002927686   -0.017152472
      4        6          -0.000469668   -0.000189734    0.016208763
      5        6          -0.005173980    0.003385142   -0.017415355
      6        6           0.001076574   -0.000414949   -0.004947966
      7       17           0.002758670   -0.001627407    0.003885464
      8        6           0.000053961    0.000010208   -0.003184311
      9        7          -0.000147829   -0.000065816    0.005007645
     10       17          -0.003053289    0.001571850    0.003684372
     11        1          -0.000019042    0.000034557    0.000742327
     12        1           0.000218097   -0.000302703    0.004385613
     13        1          -0.000508905    0.000113874    0.004372494
 -------------------------------------------------------------------
 Cartesian Forces:  Max     0.017415355 RMS     0.005576253

 GradGradGradGradGradGradGradGradGradGradGradGradGradGradGradGradGradGrad
 Berny optimization.
 FormGI is forming the generalized inverse of G from B-inverse, IUseBI=4.
 Internal  Forces:  Max     0.009242520 RMS     0.003134058
 Search for a local minimum.
 Step number   1 out of a maximum of   67
 All quantities printed in internal units (Hartrees-Bohrs-Radians)
 Mixed Optimization -- RFO/linear search
 Second derivative matrix not updated -- first step.
 ITU=  0
     Eigenvalues ---    0.02156   0.02156   0.02156   0.02156   0.02156
     Eigenvalues ---    0.02156   0.02157   0.02157   0.02158   0.04937
     Eigenvalues ---    0.04937   0.16000   0.16000   0.16000   0.22085
     Eigenvalues ---    0.23479   0.24913   0.25000   0.25000   0.25000
     Eigenvalues ---    0.32400   0.32424   0.35137   0.35139   0.35288
     Eigenvalues ---    0.40111   0.42403   0.42419   0.46474   0.46474
     Eigenvalues ---    0.46475   0.46494   1.31365
 RFO step:  Lambda=-2.08938030D-03 EMin= 2.15602201D-02
 Linear search not attempted -- first point.
 Iteration  1 RMS(Cart)=  0.01619844 RMS(Int)=  0.00027781
 Iteration  2 RMS(Cart)=  0.00030063 RMS(Int)=  0.00000553
 Iteration  3 RMS(Cart)=  0.00000001 RMS(Int)=  0.00000553
 Variable       Old X    -DE/DX   Delta X   Delta X   Delta X     New X
                                 (Linear)    (Quad)   (Total)
    R1        2.63599  -0.00142   0.00000  -0.00375  -0.00376   2.63223
    R2        2.63568  -0.00131   0.00000  -0.00351  -0.00352   2.63216
    R3        2.05209  -0.00074   0.00000  -0.00209  -0.00209   2.05000
    R4        2.63600  -0.00450   0.00000  -0.00965  -0.00965   2.62635
    R5        2.05449  -0.00189   0.00000  -0.00536  -0.00536   2.04914
    R6        2.63599   0.00557   0.00000   0.01264   0.01264   2.64864
    R7        3.27119  -0.00123   0.00000  -0.00376  -0.00376   3.26743
    R8        2.63600   0.00553   0.00000   0.01256   0.01257   2.64858
    R9        2.71402   0.00183   0.00000   0.00453   0.00453   2.71855
   R10        2.63601  -0.00447   0.00000  -0.00957  -0.00957   2.62644
   R11        3.27075  -0.00112   0.00000  -0.00343  -0.00343   3.26731
   R12        2.05452  -0.00190   0.00000  -0.00538  -0.00538   2.04915
   R13        2.18196   0.00501   0.00000   0.00381   0.00381   2.18577
    A1        2.09449   0.00414   0.00000   0.01573   0.01571   2.11020
    A2        2.09416  -0.00205   0.00000  -0.00775  -0.00774   2.08642
    A3        2.09454  -0.00209   0.00000  -0.00798  -0.00797   2.08657
    A4        2.09432  -0.00204   0.00000  -0.01060  -0.01061   2.08371
    A5        2.07716   0.00510   0.00000   0.03048   0.03049   2.10765
    A6        2.11170  -0.00306   0.00000  -0.01988  -0.01988   2.09183
    A7        2.09439   0.00244   0.00000   0.01111   0.01112   2.10551
    A8        2.05527   0.00677   0.00000   0.02614   0.02614   2.08141
    A9        2.13353  -0.00921   0.00000  -0.03725  -0.03726   2.09627
   A10        2.09439  -0.00490   0.00000  -0.01666  -0.01665   2.07774
   A11        2.09427   0.00248   0.00000   0.00845   0.00844   2.10271
   A12        2.09452   0.00242   0.00000   0.00822   0.00821   2.10273
   A13        2.09434   0.00243   0.00000   0.01109   0.01109   2.10543
   A14        2.13369  -0.00924   0.00000  -0.03739  -0.03739   2.09630
   A15        2.05516   0.00681   0.00000   0.02630   0.02630   2.08145
   A16        2.09444  -0.00206   0.00000  -0.01066  -0.01066   2.08378
   A17        2.07716   0.00511   0.00000   0.03050   0.03050   2.10766
   A18        2.11159  -0.00305   0.00000  -0.01984  -0.01984   2.09175
   A19        3.14154   0.00000   0.00000   0.00005   0.00005   3.14159
   A20        3.14163  -0.00001   0.00000  -0.00028  -0.00028   3.14135
    D1       -0.00011   0.00000   0.00000   0.00005   0.00005  -0.00006
    D2       -3.14097  -0.00001   0.00000  -0.00055  -0.00056  -3.14153
    D3       -3.14094  -0.00001   0.00000  -0.00057  -0.00057  -3.14150
    D4        0.00139  -0.00003   0.00000  -0.00117  -0.00118   0.00021
    D5        0.00007   0.00000   0.00000  -0.00005  -0.00005   0.00002
    D6        3.14131   0.00000   0.00000   0.00021   0.00021   3.14152
    D7        3.14090   0.00001   0.00000   0.00057   0.00057   3.14146
    D8       -0.00105   0.00002   0.00000   0.00083   0.00083  -0.00022
    D9        0.00007   0.00000   0.00000  -0.00007  -0.00007   0.00001
   D10       -3.14147  -0.00001   0.00000  -0.00026  -0.00026   3.14146
   D11        3.14092   0.00001   0.00000   0.00057   0.00056   3.14148
   D12       -0.00062   0.00001   0.00000   0.00038   0.00037  -0.00025
   D13        0.00000   0.00000   0.00000   0.00008   0.00008   0.00008
   D14       -3.14057  -0.00002   0.00000  -0.00092  -0.00092  -3.14150
   D15        3.14154   0.00001   0.00000   0.00028   0.00027  -3.14137
   D16        0.00096  -0.00002   0.00000  -0.00072  -0.00073   0.00023
   D17       -0.00004   0.00000   0.00000  -0.00008  -0.00008  -0.00012
   D18        3.14124   0.00001   0.00000   0.00018   0.00017   3.14141
   D19        3.14053   0.00002   0.00000   0.00092   0.00092   3.14146
   D20       -0.00137   0.00003   0.00000   0.00118   0.00118  -0.00020
   D21        0.00001   0.00000   0.00000   0.00007   0.00007   0.00007
   D22       -3.14123  -0.00001   0.00000  -0.00021  -0.00021  -3.14143
   D23       -3.14129   0.00000   0.00000  -0.00017  -0.00017  -3.14146
   D24        0.00066  -0.00001   0.00000  -0.00044  -0.00045   0.00022
         Item               Value     Threshold  Converged?
 Maximum Force            0.009243     0.000450     NO 
 RMS     Force            0.003134     0.000300     NO 
 Maximum Displacement     0.049273     0.001800     NO 
 RMS     Displacement     0.016230     0.001200     NO 
 Predicted change in Energy=-1.053752D-03
 GradGradGradGradGradGradGradGradGradGradGradGradGradGradGradGradGradGrad

                          Input orientation:                          
 ---------------------------------------------------------------------
 Center     Atomic      Atomic             Coordinates (Angstroms)
 Number     Number       Type             X           Y           Z
 ---------------------------------------------------------------------
      1          6           0        1.885163   -1.036462   -0.114634
      2          6           0        2.924758   -1.632444    0.595476
      3          6           0        2.878991   -1.651342    1.984401
      4          6           0        1.800113   -1.078103    2.671348
      5          6           0        0.764564   -0.483714    1.937369
      6          6           0        0.803668   -0.461080    0.548250
      7         17           0       -0.579621    0.231342    2.756674
      8          6           0        1.756317   -1.099507    4.109118
      9          7           0        1.721225   -1.116496    5.265118
     10         17           0        4.171184   -2.392215    2.862438
     11          1           0        1.918276   -1.020365   -1.198823
     12          1           0        3.765607   -2.079632    0.076992
     13          1           0       -0.004343    0.002319   -0.006926
 ---------------------------------------------------------------------
                    Distance matrix (angstroms):
                    1          2          3          4          5
     1  C    0.000000
     2  C    1.392915   0.000000
     3  C    2.402441   1.389807   0.000000
     4  C    2.787592   2.425153   1.401598   0.000000
     5  C    2.402496   2.790465   2.415858   1.401566   0.000000
     6  C    1.392879   2.423500   2.790380   2.425112   1.389853
     7  Cl   3.990852   4.519420   4.012842   2.717547   1.728988
     8  C    4.226187   3.740983   2.465632   1.438596   2.465617
     9  N    5.382845   4.849768   3.519884   2.595253   3.519876
    10  Cl   3.990855   2.696284   1.729048   2.717606   4.012878
    11  H    1.084813   2.146429   3.384379   3.872405   3.384486
    12  H    2.158934   1.084356   2.146562   3.405424   3.874818
    13  H    2.158911   3.408075   3.874737   3.405367   2.146562
                    6          7          8          9         10
     6  C    0.000000
     7  Cl   2.696307   0.000000
     8  C    3.740977   3.009464   0.000000
     9  N    4.849776   3.660991   1.156657   0.000000
    10  Cl   4.519393   5.428111   3.009466   3.660960   0.000000
    11  H    2.146489   4.842749   5.311001   6.467658   4.842666
    12  H    3.408061   5.603776   4.610415   5.658955   2.832121
    13  H    1.084362   2.832116   4.610397   5.658955   5.603755
                   11         12         13
    11  H    0.000000
    12  H    2.482415   0.000000
    13  H    2.482532   4.307445   0.000000
 Stoichiometry    C7H3Cl2N
 Framework group  C1[X(C7H3Cl2N)]
 Deg. of freedom    33
 Full point group                 C1      NOp   1
 Largest Abelian subgroup         C1      NOp   1
 Largest concise Abelian subgroup C1      NOp   1
                         Standard orientation:                         
 ---------------------------------------------------------------------
 Center     Atomic      Atomic             Coordinates (Angstroms)
 Number     Number       Type             X           Y           Z
 ---------------------------------------------------------------------
      1          6           0        0.000008    2.460707    0.000175
      2          6           0        1.211774    1.773805    0.000106
      3          6           0        1.207908    0.384003    0.000056
      4          6           0       -0.000030   -0.326885    0.000065
      5          6           0       -1.207950    0.383972    0.000029
      6          6           0       -1.211726    1.773820    0.000128
      7         17           0       -2.714057   -0.465169   -0.000229
      8          6           0       -0.000008   -1.765480    0.000130
      9          7           0        0.000009   -2.922138    0.000434
     10         17           0        2.714054   -0.465191   -0.000228
     11          1           0        0.000089    3.545520    0.000130
     12          1           0        2.153741    2.310951    0.000201
     13          1           0       -2.153703    2.310959    0.000249
 ---------------------------------------------------------------------
 Rotational constants (GHZ):      1.4519801      0.8496965      0.5360190
 Standard basis: 6-31+G(d) (6D, 7F)
 There are   204 symmetry adapted cartesian basis functions of A   symmetry.
 There are   204 symmetry adapted basis functions of A   symmetry.
   204 basis functions,   380 primitive gaussians,   204 cartesian basis functions
    43 alpha electrons       43 beta electrons
       nuclear repulsion energy       608.7156149982 Hartrees.
 NAtoms=   13 NActive=   13 NUniq=   13 SFac= 1.00D+00 NAtFMM=   60 NAOKFM=F Big=F
 Integral buffers will be    131072 words long.
 Raffenetti 2 integral format.
 Two-electron integral symmetry is turned on.
 One-electron integrals computed using PRISM.
 NBasis=   204 RedAO= T EigKep=  1.07D-06  NBF=   204
 NBsUse=   204 1.00D-06 EigRej= -1.00D+00 NBFU=   204
 Initial guess from the checkpoint file:  "/srv/scratch/z5358697/gauss/Gau-2720247.chk"
 B after Tr=     0.000000    0.000000    0.000000
         Rot=    1.000000    0.000002    0.000000    0.000111 Ang=   0.01 deg.
 ExpMin= 4.38D-02 ExpMax= 2.52D+04 ExpMxC= 3.78D+03 IAcc=2 IRadAn=         4 AccDes= 0.00D+00
 Harris functional with IExCor= 1009 and IRadAn=       4 diagonalized for initial guess.
 HarFok:  IExCor= 1009 AccDes= 0.00D+00 IRadAn=         4 IDoV= 1 UseB2=F ITyADJ=14
 ICtDFT=  3500011 ScaDFX=  1.000000  1.000000  1.000000  1.000000
 FoFCou: FMM=F IPFlag=           0 FMFlag=      100000 FMFlg1=           0
         NFxFlg=           0 DoJE=T BraDBF=F KetDBF=T FulRan=T
         wScrn=  0.000000 ICntrl=     500 IOpCl=  0 I1Cent=   200000004 NGrid=           0
         NMat0=    1 NMatS0=      1 NMatT0=    0 NMatD0=    1 NMtDS0=    0 NMtDT0=    0
 Petite list used in FoFCou.
 Requested convergence on RMS density matrix=1.00D-08 within 128 cycles.
 Requested convergence on MAX density matrix=1.00D-06.
 Requested convergence on             energy=1.00D-06.
 No special actions if energy rises.
 SCF Done:  E(RM062X) =  -1243.49290614     A.U. after   13 cycles
            NFock= 13  Conv=0.39D-08     -V/T= 2.0042
 Calling FoFJK, ICntrl=      2127 FMM=F ISym2X=0 I1Cent= 0 IOpClX= 0 NMat=1 NMatS=1 NMatT=0.
 ***** Axes restored to original set *****
 -------------------------------------------------------------------
 Center     Atomic                   Forces (Hartrees/Bohr)
 Number     Number              X              Y              Z
 -------------------------------------------------------------------
      1        6          -0.000048675   -0.000050162    0.002127516
      2        6          -0.000963545    0.000588212   -0.001439711
      3        6           0.000833730   -0.000364804   -0.003240894
      4        6          -0.000168712   -0.000101200    0.005840593
      5        6          -0.000615104    0.000446071   -0.003319997
      6        6           0.001024914   -0.000515274   -0.001375501
      7       17           0.000028023   -0.000041463    0.000968740
      8        6           0.000052015    0.000031757   -0.001538675
      9        7          -0.000005255   -0.000007077    0.000045218
     10       17          -0.000099957    0.000031151    0.000958727
     11        1           0.000007704    0.000016462   -0.000400024
     12        1           0.000305828   -0.000198046    0.000695238
     13        1          -0.000350968    0.000164374    0.000678769
 -------------------------------------------------------------------
 Cartesian Forces:  Max     0.005840593 RMS     0.001375618

 GradGradGradGradGradGradGradGradGradGradGradGradGradGradGradGradGradGrad
 Berny optimization.
 Using GEDIIS/GDIIS optimizer.
 FormGI is forming the generalized inverse of G from B-inverse, IUseBI=4.
 GSVD:  received Info=                   1 from GESDD.
 Internal  Forces:  Max     0.001727630 RMS     0.000633867
 Search for a local minimum.
 Step number   2 out of a maximum of   67
 All quantities printed in internal units (Hartrees-Bohrs-Radians)
 Mixed Optimization -- En-DIIS/RFO-DIIS
 Update second derivatives using D2CorX and points    1    2
 DE= -1.23D-03 DEPred=-1.05D-03 R= 1.17D+00
 TightC=F SS=  1.41D+00  RLast= 9.34D-02 DXNew= 5.0454D-01 2.8028D-01
 Trust test= 1.17D+00 RLast= 9.34D-02 DXMaxT set to 3.00D-01
 ITU=  1  0
 Use linear search instead of GDIIS.
     Eigenvalues ---    0.02156   0.02156   0.02156   0.02156   0.02156
     Eigenvalues ---    0.02156   0.02157   0.02157   0.02158   0.04937
     Eigenvalues ---    0.04937   0.14950   0.16000   0.16000   0.21585
     Eigenvalues ---    0.22507   0.23484   0.25000   0.25000   0.25040
     Eigenvalues ---    0.32411   0.32569   0.35138   0.35163   0.35372
     Eigenvalues ---    0.40563   0.41560   0.42426   0.46411   0.46474
     Eigenvalues ---    0.46488   0.46840   1.31592
 RFO step:  Lambda=-2.95768407D-05 EMin= 2.15601254D-02
 Quartic linear search produced a step of  0.20959.
 Iteration  1 RMS(Cart)=  0.00344679 RMS(Int)=  0.00001270
 Iteration  2 RMS(Cart)=  0.00001560 RMS(Int)=  0.00000220
 Iteration  3 RMS(Cart)=  0.00000000 RMS(Int)=  0.00000220
 Variable       Old X    -DE/DX   Delta X   Delta X   Delta X     New X
                                 (Linear)    (Quad)   (Total)
    R1        2.63223  -0.00068  -0.00079  -0.00127  -0.00206   2.63016
    R2        2.63216  -0.00067  -0.00074  -0.00129  -0.00204   2.63012
    R3        2.05000   0.00040  -0.00044   0.00179   0.00135   2.05135
    R4        2.62635  -0.00013  -0.00202   0.00156  -0.00046   2.62589
    R5        2.04914  -0.00001  -0.00112   0.00101  -0.00011   2.04903
    R6        2.64864   0.00134   0.00265   0.00122   0.00388   2.65251
    R7        3.26743   0.00040  -0.00079   0.00223   0.00144   3.26887
    R8        2.64858   0.00136   0.00263   0.00129   0.00393   2.65251
    R9        2.71855  -0.00149   0.00095  -0.00540  -0.00445   2.71410
   R10        2.62644  -0.00016  -0.00201   0.00148  -0.00053   2.62592
   R11        3.26731   0.00042  -0.00072   0.00225   0.00153   3.26884
   R12        2.04915  -0.00002  -0.00113   0.00101  -0.00012   2.04903
   R13        2.18577   0.00005   0.00080  -0.00070   0.00009   2.18586
    A1        2.11020   0.00047   0.00329  -0.00158   0.00170   2.11190
    A2        2.08642  -0.00022  -0.00162   0.00084  -0.00078   2.08564
    A3        2.08657  -0.00024  -0.00167   0.00075  -0.00092   2.08565
    A4        2.08371  -0.00006  -0.00222   0.00126  -0.00097   2.08274
    A5        2.10765   0.00084   0.00639   0.00040   0.00679   2.11444
    A6        2.09183  -0.00077  -0.00417  -0.00166  -0.00582   2.08600
    A7        2.10551   0.00058   0.00233   0.00107   0.00340   2.10891
    A8        2.08141   0.00114   0.00548   0.00011   0.00559   2.08699
    A9        2.09627  -0.00173  -0.00781  -0.00118  -0.00899   2.08728
   A10        2.07774  -0.00151  -0.00349  -0.00309  -0.00658   2.07117
   A11        2.10271   0.00076   0.00177   0.00153   0.00329   2.10600
   A12        2.10273   0.00075   0.00172   0.00157   0.00328   2.10601
   A13        2.10543   0.00060   0.00233   0.00114   0.00347   2.10891
   A14        2.09630  -0.00173  -0.00784  -0.00115  -0.00899   2.08730
   A15        2.08145   0.00113   0.00551   0.00001   0.00552   2.08698
   A16        2.08378  -0.00007  -0.00224   0.00121  -0.00103   2.08274
   A17        2.10766   0.00084   0.00639   0.00040   0.00680   2.11445
   A18        2.09175  -0.00076  -0.00416  -0.00161  -0.00576   2.08599
   A19        3.14159   0.00000   0.00001   0.00001   0.00002   3.14161
   A20        3.14135   0.00001  -0.00006   0.00042   0.00036   3.14171
    D1       -0.00006   0.00000   0.00001   0.00006   0.00007   0.00002
    D2       -3.14153   0.00000  -0.00012   0.00008  -0.00004  -3.14157
    D3       -3.14150   0.00000  -0.00012   0.00004  -0.00008  -3.14158
    D4        0.00021   0.00000  -0.00025   0.00006  -0.00019   0.00002
    D5        0.00002   0.00000  -0.00001   0.00001  -0.00001   0.00001
    D6        3.14152   0.00000   0.00004   0.00001   0.00006   3.14158
    D7        3.14146   0.00000   0.00012   0.00003   0.00014  -3.14158
    D8       -0.00022   0.00000   0.00017   0.00003   0.00021  -0.00001
    D9        0.00001   0.00000  -0.00001  -0.00003  -0.00005  -0.00004
   D10        3.14146   0.00000  -0.00005   0.00022   0.00017  -3.14155
   D11        3.14148   0.00000   0.00012  -0.00005   0.00006   3.14155
   D12       -0.00025   0.00001   0.00008   0.00020   0.00028   0.00003
   D13        0.00008   0.00000   0.00002  -0.00006  -0.00004   0.00004
   D14       -3.14150   0.00000  -0.00019   0.00022   0.00002  -3.14147
   D15       -3.14137   0.00000   0.00006  -0.00032  -0.00026   3.14155
   D16        0.00023   0.00000  -0.00015  -0.00004  -0.00020   0.00004
   D17       -0.00012   0.00000  -0.00002   0.00012   0.00011  -0.00001
   D18        3.14141   0.00000   0.00004   0.00013   0.00017   3.14158
   D19        3.14146   0.00000   0.00019  -0.00015   0.00004   3.14150
   D20       -0.00020   0.00000   0.00025  -0.00014   0.00011  -0.00009
   D21        0.00007   0.00000   0.00001  -0.00010  -0.00008  -0.00001
   D22       -3.14143   0.00000  -0.00004  -0.00011  -0.00015  -3.14158
   D23       -3.14146   0.00000  -0.00004  -0.00011  -0.00015   3.14158
   D24        0.00022   0.00000  -0.00009  -0.00012  -0.00021   0.00001
         Item               Value     Threshold  Converged?
 Maximum Force            0.001728     0.000450     NO 
 RMS     Force            0.000634     0.000300     NO 
 Maximum Displacement     0.010749     0.001800     NO 
 RMS     Displacement     0.003452     0.001200     NO 
 Predicted change in Energy=-5.342817D-05
 GradGradGradGradGradGradGradGradGradGradGradGradGradGradGradGradGradGrad

                          Input orientation:                          
 ---------------------------------------------------------------------
 Center     Atomic      Atomic             Coordinates (Angstroms)
 Number     Number       Type             X           Y           Z
 ---------------------------------------------------------------------
      1          6           0        1.885181   -1.036498   -0.116160
      2          6           0        2.924524   -1.632235    0.592383
      3          6           0        2.878613   -1.651048    1.981058
      4          6           0        1.800085   -1.078153    2.673015
      5          6           0        0.765210   -0.483910    1.934009
      6          6           0        0.804056   -0.461231    0.545163
      7         17           0       -0.575482    0.229233    2.762362
      8          6           0        1.756355   -1.099489    4.108431
      9          7           0        1.721061   -1.116770    5.264470
     10         17           0        4.167001   -2.389743    2.867982
     11          1           0        1.918291   -1.020291   -1.201061
     12          1           0        3.767906   -2.081074    0.079594
     13          1           0       -0.006901    0.003510   -0.004446
 ---------------------------------------------------------------------
                    Distance matrix (angstroms):
                    1          2          3          4          5
     1  C    0.000000
     2  C    1.391823   0.000000
     3  C    2.400605   1.389561   0.000000
     4  C    2.790784   2.429074   1.403650   0.000000
     5  C    2.400601   2.789489   2.414725   1.403646   0.000000
     6  C    1.391802   2.422780   2.789488   2.429079   1.389575
     7  Cl   3.992847   4.519282   4.009571   2.713035   1.729796
     8  C    4.227024   3.743131   2.467669   1.436240   2.467674
     9  N    5.383731   4.852053   3.522240   2.592947   3.522234
    10  Cl   3.992879   2.701096   1.729812   2.713038   4.009575
    11  H    1.085526   2.145559   3.383187   3.876311   3.383188
    12  H    2.161969   1.084298   2.142739   3.406465   3.873754
    13  H    2.161960   3.409563   3.873755   3.406463   2.142741
                    6          7          8          9         10
     6  C    0.000000
     7  Cl   2.701081   0.000000
     8  C    3.743144   3.002477   0.000000
     9  N    4.852060   3.653269   1.156707   0.000000
    10  Cl   4.519298   5.418611   3.002446   3.653251   0.000000
    11  H    2.145545   4.846538   5.312551   6.469258   4.846567
    12  H    3.409553   5.603550   4.608836   5.657066   2.833666
    13  H    1.084299   2.833630   4.608843   5.657062   5.603567
                   11         12         13
    11  H    0.000000
    12  H    2.487250   0.000000
    13  H    2.487251   4.312970   0.000000
 Stoichiometry    C7H3Cl2N
 Framework group  C1[X(C7H3Cl2N)]
 Deg. of freedom    33
 Full point group                 C1      NOp   1
 Largest Abelian subgroup         C1      NOp   1
 Largest concise Abelian subgroup C1      NOp   1
                         Standard orientation:                         
 ---------------------------------------------------------------------
 Center     Atomic      Atomic             Coordinates (Angstroms)
 Number     Number       Type             X           Y           Z
 ---------------------------------------------------------------------
      1          6           0       -0.000043    2.463494    0.000023
      2          6           0        1.211366    1.778179    0.000008
      3          6           0        1.207357    0.388623   -0.000044
      4          6           0        0.000004   -0.327290   -0.000031
      5          6           0       -1.207368    0.388584   -0.000012
      6          6           0       -1.211414    1.778152    0.000008
      7         17           0       -2.709299   -0.469553   -0.000011
      8          6           0        0.000035   -1.763530    0.000062
      9          7           0        0.000041   -2.920237    0.000014
     10         17           0        2.709312   -0.469505   -0.000007
     11          1           0       -0.000055    3.549020    0.000053
     12          1           0        2.156449    2.309705    0.000040
     13          1           0       -2.156521    2.309638    0.000032
 ---------------------------------------------------------------------
 Rotational constants (GHZ):      1.4491371      0.8523211      0.5366728
 Standard basis: 6-31+G(d) (6D, 7F)
 There are   204 symmetry adapted cartesian basis functions of A   symmetry.
 There are   204 symmetry adapted basis functions of A   symmetry.
   204 basis functions,   380 primitive gaussians,   204 cartesian basis functions
    43 alpha electrons       43 beta electrons
       nuclear repulsion energy       608.8620500952 Hartrees.
 NAtoms=   13 NActive=   13 NUniq=   13 SFac= 1.00D+00 NAtFMM=   60 NAOKFM=F Big=F
 Integral buffers will be    131072 words long.
 Raffenetti 2 integral format.
 Two-electron integral symmetry is turned on.
 One-electron integrals computed using PRISM.
 NBasis=   204 RedAO= T EigKep=  1.07D-06  NBF=   204
 NBsUse=   204 1.00D-06 EigRej= -1.00D+00 NBFU=   204
 Initial guess from the checkpoint file:  "/srv/scratch/z5358697/gauss/Gau-2720247.chk"
 B after Tr=     0.000000    0.000000    0.000000
         Rot=    1.000000    0.000000    0.000000   -0.000008 Ang=   0.00 deg.
 Requested convergence on RMS density matrix=1.00D-08 within 128 cycles.
 Requested convergence on MAX density matrix=1.00D-06.
 Requested convergence on             energy=1.00D-06.
 No special actions if energy rises.
 SCF Done:  E(RM062X) =  -1243.49296125     A.U. after   12 cycles
            NFock= 12  Conv=0.58D-08     -V/T= 2.0042
 Calling FoFJK, ICntrl=      2127 FMM=F ISym2X=0 I1Cent= 0 IOpClX= 0 NMat=1 NMatS=1 NMatT=0.
 ***** Axes restored to original set *****
 -------------------------------------------------------------------
 Center     Atomic                   Forces (Hartrees/Bohr)
 Number     Number              X              Y              Z
 -------------------------------------------------------------------
      1        6           0.000013180   -0.000003700   -0.000115387
      2        6           0.000025674   -0.000020921    0.000104227
      3        6          -0.000239198    0.000149708   -0.000324354
      4        6          -0.000017142   -0.000004500    0.000669772
      5        6           0.000265984   -0.000137331   -0.000322299
      6        6          -0.000043476    0.000020210    0.000115645
      7       17          -0.000196305    0.000107842    0.000032301
      8        6           0.000002687   -0.000004309   -0.000339383
      9        7           0.000002345    0.000003695    0.000012067
     10       17           0.000189728   -0.000107208    0.000035729
     11        1          -0.000000817   -0.000000251    0.000033701
     12        1           0.000059595   -0.000035349    0.000050598
     13        1          -0.000062254    0.000032113    0.000047382
 -------------------------------------------------------------------
 Cartesian Forces:  Max     0.000669772 RMS     0.000167895

 GradGradGradGradGradGradGradGradGradGradGradGradGradGradGradGradGradGrad
 Berny optimization.
 Using GEDIIS/GDIIS optimizer.
 FormGI is forming the generalized inverse of G from B-inverse, IUseBI=4.
 GSVD:  received Info=                   1 from GESDD.
 Internal  Forces:  Max     0.000327272 RMS     0.000090418
 Search for a local minimum.
 Step number   3 out of a maximum of   67
 All quantities printed in internal units (Hartrees-Bohrs-Radians)
 Mixed Optimization -- En-DIIS/RFO-DIIS
 Swapping is turned off.
 Update second derivatives using D2CorX and points    1    2    3
 DE= -5.51D-05 DEPred=-5.34D-05 R= 1.03D+00
 TightC=F SS=  1.41D+00  RLast= 2.33D-02 DXNew= 5.0454D-01 6.9949D-02
 Trust test= 1.03D+00 RLast= 2.33D-02 DXMaxT set to 3.00D-01
 ITU=  1  1  0
     Eigenvalues ---    0.02156   0.02156   0.02156   0.02156   0.02156
     Eigenvalues ---    0.02156   0.02157   0.02157   0.02158   0.04937
     Eigenvalues ---    0.04938   0.14299   0.16000   0.16000   0.21786
     Eigenvalues ---    0.22365   0.23484   0.25000   0.25000   0.25917
     Eigenvalues ---    0.32411   0.32611   0.35138   0.35203   0.35374
     Eigenvalues ---    0.39725   0.41860   0.42419   0.46355   0.46474
     Eigenvalues ---    0.46487   0.46827   1.31590
 En-DIIS/RFO-DIIS IScMMF=        0 using points:     3    2
 RFO step:  Lambda=-8.73497324D-07.
 DidBck=F Rises=F RFO-DIIS coefs:    1.03957   -0.03957
 Iteration  1 RMS(Cart)=  0.00048947 RMS(Int)=  0.00000018
 Iteration  2 RMS(Cart)=  0.00000022 RMS(Int)=  0.00000007
 Variable       Old X    -DE/DX   Delta X   Delta X   Delta X     New X
                                 (Linear)    (Quad)   (Total)
    R1        2.63016   0.00004  -0.00008   0.00013   0.00005   2.63021
    R2        2.63012   0.00005  -0.00008   0.00016   0.00008   2.63020
    R3        2.05135  -0.00003   0.00005  -0.00014  -0.00009   2.05126
    R4        2.62589  -0.00012  -0.00002  -0.00027  -0.00029   2.62560
    R5        2.04903   0.00004   0.00000   0.00010   0.00009   2.04912
    R6        2.65251   0.00010   0.00015   0.00015   0.00030   2.65282
    R7        3.26887   0.00021   0.00006   0.00061   0.00066   3.26954
    R8        2.65251   0.00010   0.00016   0.00014   0.00030   2.65281
    R9        2.71410  -0.00033  -0.00018  -0.00071  -0.00089   2.71321
   R10        2.62592  -0.00012  -0.00002  -0.00028  -0.00030   2.62562
   R11        3.26884   0.00021   0.00006   0.00063   0.00069   3.26953
   R12        2.04903   0.00004   0.00000   0.00010   0.00009   2.04912
   R13        2.18586   0.00001   0.00000   0.00002   0.00002   2.18588
    A1        2.11190  -0.00007   0.00007  -0.00036  -0.00029   2.11161
    A2        2.08564   0.00004  -0.00003   0.00018   0.00015   2.08578
    A3        2.08565   0.00004  -0.00004   0.00018   0.00014   2.08579
    A4        2.08274   0.00002  -0.00004   0.00008   0.00004   2.08278
    A5        2.11444   0.00007   0.00027   0.00037   0.00064   2.11508
    A6        2.08600  -0.00009  -0.00023  -0.00044  -0.00068   2.08533
    A7        2.10891   0.00013   0.00013   0.00046   0.00060   2.10951
    A8        2.08699  -0.00020   0.00022  -0.00090  -0.00067   2.08632
    A9        2.08728   0.00007  -0.00036   0.00043   0.00008   2.08736
   A10        2.07117  -0.00021  -0.00026  -0.00073  -0.00099   2.07018
   A11        2.10600   0.00011   0.00013   0.00037   0.00050   2.10650
   A12        2.10601   0.00010   0.00013   0.00036   0.00049   2.10650
   A13        2.10891   0.00013   0.00014   0.00046   0.00060   2.10950
   A14        2.08730   0.00007  -0.00036   0.00042   0.00006   2.08737
   A15        2.08698  -0.00019   0.00022  -0.00088  -0.00066   2.08632
   A16        2.08274   0.00002  -0.00004   0.00008   0.00004   2.08278
   A17        2.11445   0.00007   0.00027   0.00036   0.00063   2.11508
   A18        2.08599  -0.00009  -0.00023  -0.00044  -0.00067   2.08532
   A19        3.14161   0.00000   0.00000  -0.00002  -0.00002   3.14159
   A20        3.14171  -0.00001   0.00001  -0.00020  -0.00019   3.14152
    D1        0.00002   0.00000   0.00000  -0.00003  -0.00003  -0.00001
    D2       -3.14157   0.00000   0.00000  -0.00004  -0.00004   3.14158
    D3       -3.14158   0.00000   0.00000  -0.00002  -0.00002   3.14158
    D4        0.00002   0.00000  -0.00001  -0.00002  -0.00003  -0.00001
    D5        0.00001   0.00000   0.00000  -0.00001  -0.00001   0.00000
    D6        3.14158   0.00000   0.00000   0.00002   0.00002  -3.14158
    D7       -3.14158   0.00000   0.00001  -0.00003  -0.00002   3.14159
    D8       -0.00001   0.00000   0.00001   0.00001   0.00001   0.00001
    D9       -0.00004   0.00000   0.00000   0.00007   0.00006   0.00002
   D10       -3.14155   0.00000   0.00001  -0.00007  -0.00006   3.14157
   D11        3.14155   0.00000   0.00000   0.00007   0.00007  -3.14157
   D12        0.00003   0.00000   0.00001  -0.00007  -0.00006  -0.00002
   D13        0.00004   0.00000   0.00000  -0.00006  -0.00006  -0.00002
   D14       -3.14147   0.00000   0.00000  -0.00015  -0.00015   3.14156
   D15        3.14155   0.00000  -0.00001   0.00008   0.00007  -3.14156
   D16        0.00004   0.00000  -0.00001  -0.00002  -0.00003   0.00001
   D17       -0.00001   0.00000   0.00000   0.00001   0.00002   0.00000
   D18        3.14158   0.00000   0.00001   0.00000   0.00001   3.14159
   D19        3.14150   0.00000   0.00000   0.00011   0.00011  -3.14157
   D20       -0.00009   0.00000   0.00000   0.00010   0.00010   0.00001
   D21       -0.00001   0.00000   0.00000   0.00002   0.00002   0.00000
   D22       -3.14158   0.00000  -0.00001  -0.00001  -0.00002   3.14159
   D23        3.14158   0.00000  -0.00001   0.00003   0.00003  -3.14158
   D24        0.00001   0.00000  -0.00001   0.00000  -0.00001   0.00000
         Item               Value     Threshold  Converged?
 Maximum Force            0.000327     0.000450     YES
 RMS     Force            0.000090     0.000300     YES
 Maximum Displacement     0.001523     0.001800     YES
 RMS     Displacement     0.000490     0.001200     YES
 Predicted change in Energy=-8.451586D-07
 Optimization completed.
    -- Stationary point found.
                           ----------------------------
                           !   Optimized Parameters   !
                           ! (Angstroms and Degrees)  !
 --------------------------                            --------------------------
 ! Name  Definition              Value          Derivative Info.                !
 --------------------------------------------------------------------------------
 ! R1    R(1,2)                  1.3918         -DE/DX =    0.0                 !
 ! R2    R(1,6)                  1.3918         -DE/DX =    0.0001              !
 ! R3    R(1,11)                 1.0855         -DE/DX =    0.0                 !
 ! R4    R(2,3)                  1.3896         -DE/DX =   -0.0001              !
 ! R5    R(2,12)                 1.0843         -DE/DX =    0.0                 !
 ! R6    R(3,4)                  1.4037         -DE/DX =    0.0001              !
 ! R7    R(3,10)                 1.7298         -DE/DX =    0.0002              !
 ! R8    R(4,5)                  1.4036         -DE/DX =    0.0001              !
 ! R9    R(4,8)                  1.4362         -DE/DX =   -0.0003              !
 ! R10   R(5,6)                  1.3896         -DE/DX =   -0.0001              !
 ! R11   R(5,7)                  1.7298         -DE/DX =    0.0002              !
 ! R12   R(6,13)                 1.0843         -DE/DX =    0.0                 !
 ! R13   R(8,9)                  1.1567         -DE/DX =    0.0                 !
 ! A1    A(2,1,6)              121.0031         -DE/DX =   -0.0001              !
 ! A2    A(2,1,11)             119.4982         -DE/DX =    0.0                 !
 ! A3    A(6,1,11)             119.4987         -DE/DX =    0.0                 !
 ! A4    A(1,2,3)              119.3323         -DE/DX =    0.0                 !
 ! A5    A(1,2,12)             121.1484         -DE/DX =    0.0001              !
 ! A6    A(3,2,12)             119.5193         -DE/DX =   -0.0001              !
 ! A7    A(2,3,4)              120.8316         -DE/DX =    0.0001              !
 ! A8    A(2,3,10)             119.5758         -DE/DX =   -0.0002              !
 ! A9    A(4,3,10)             119.5926         -DE/DX =    0.0001              !
 ! A10   A(3,4,5)              118.6692         -DE/DX =   -0.0002              !
 ! A11   A(3,4,8)              120.6651         -DE/DX =    0.0001              !
 ! A12   A(5,4,8)              120.6658         -DE/DX =    0.0001              !
 ! A13   A(4,5,6)              120.8314         -DE/DX =    0.0001              !
 ! A14   A(4,5,7)              119.5938         -DE/DX =    0.0001              !
 ! A15   A(6,5,7)              119.5749         -DE/DX =   -0.0002              !
 ! A16   A(1,6,5)              119.3325         -DE/DX =    0.0                 !
 ! A17   A(1,6,13)             121.1493         -DE/DX =    0.0001              !
 ! A18   A(5,6,13)             119.5182         -DE/DX =   -0.0001              !
 ! A19   L(4,8,9,10,-1)        180.0009         -DE/DX =    0.0                 !
 ! A20   L(4,8,9,10,-2)        180.0067         -DE/DX =    0.0                 !
 ! D1    D(6,1,2,3)              0.0009         -DE/DX =    0.0                 !
 ! D2    D(6,1,2,12)           180.0013         -DE/DX =    0.0                 !
 ! D3    D(11,1,2,3)           180.0006         -DE/DX =    0.0                 !
 ! D4    D(11,1,2,12)            0.001          -DE/DX =    0.0                 !
 ! D5    D(2,1,6,5)              0.0006         -DE/DX =    0.0                 !
 ! D6    D(2,1,6,13)          -180.0008         -DE/DX =    0.0                 !
 ! D7    D(11,1,6,5)           180.0009         -DE/DX =    0.0                 !
 ! D8    D(11,1,6,13)           -0.0005         -DE/DX =    0.0                 !
 ! D9    D(1,2,3,4)             -0.0023         -DE/DX =    0.0                 !
 ! D10   D(1,2,3,10)           180.0022         -DE/DX =    0.0                 !
 ! D11   D(12,2,3,4)          -180.0027         -DE/DX =    0.0                 !
 ! D12   D(12,2,3,10)            0.0018         -DE/DX =    0.0                 !
 ! D13   D(2,3,4,5)              0.0022         -DE/DX =    0.0                 !
 ! D14   D(2,3,4,8)            180.0068         -DE/DX =    0.0                 !
 ! D15   D(10,3,4,5)          -180.0023         -DE/DX =    0.0                 !
 ! D16   D(10,3,4,8)             0.0023         -DE/DX =    0.0                 !
 ! D17   D(3,4,5,6)             -0.0007         -DE/DX =    0.0                 !
 ! D18   D(3,4,5,7)            179.9994         -DE/DX =    0.0                 !
 ! D19   D(8,4,5,6)           -180.0052         -DE/DX =    0.0                 !
 ! D20   D(8,4,5,7)             -0.0051         -DE/DX =    0.0                 !
 ! D21   D(4,5,6,1)             -0.0007         -DE/DX =    0.0                 !
 ! D22   D(4,5,6,13)           180.0007         -DE/DX =    0.0                 !
 ! D23   D(7,5,6,1)           -180.0008         -DE/DX =    0.0                 !
 ! D24   D(7,5,6,13)             0.0005         -DE/DX =    0.0                 !
 --------------------------------------------------------------------------------
 GradGradGradGradGradGradGradGradGradGradGradGradGradGradGradGradGradGrad

                          Input orientation:                          
 ---------------------------------------------------------------------
 Center     Atomic      Atomic             Coordinates (Angstroms)
 Number     Number       Type             X           Y           Z
 ---------------------------------------------------------------------
      1          6           0        1.885181   -1.036498   -0.116160
      2          6           0        2.924524   -1.632235    0.592383
      3          6           0        2.878613   -1.651048    1.981058
      4          6           0        1.800085   -1.078153    2.673015
      5          6           0        0.765210   -0.483910    1.934009
      6          6           0        0.804056   -0.461231    0.545163
      7         17           0       -0.575482    0.229233    2.762362
      8          6           0        1.756355   -1.099489    4.108431
      9          7           0        1.721061   -1.116770    5.264470
     10         17           0        4.167001   -2.389743    2.867982
     11          1           0        1.918291   -1.020291   -1.201061
     12          1           0        3.767906   -2.081074    0.079594
     13          1           0       -0.006901    0.003510   -0.004446
 ---------------------------------------------------------------------
                    Distance matrix (angstroms):
                    1          2          3          4          5
     1  C    0.000000
     2  C    1.391823   0.000000
     3  C    2.400605   1.389561   0.000000
     4  C    2.790784   2.429074   1.403650   0.000000
     5  C    2.400601   2.789489   2.414725   1.403646   0.000000
     6  C    1.391802   2.422780   2.789488   2.429079   1.389575
     7  Cl   3.992847   4.519282   4.009571   2.713035   1.729796
     8  C    4.227024   3.743131   2.467669   1.436240   2.467674
     9  N    5.383731   4.852053   3.522240   2.592947   3.522234
    10  Cl   3.992879   2.701096   1.729812   2.713038   4.009575
    11  H    1.085526   2.145559   3.383187   3.876311   3.383188
    12  H    2.161969   1.084298   2.142739   3.406465   3.873754
    13  H    2.161960   3.409563   3.873755   3.406463   2.142741
                    6          7          8          9         10
     6  C    0.000000
     7  Cl   2.701081   0.000000
     8  C    3.743144   3.002477   0.000000
     9  N    4.852060   3.653269   1.156707   0.000000
    10  Cl   4.519298   5.418611   3.002446   3.653251   0.000000
    11  H    2.145545   4.846538   5.312551   6.469258   4.846567
    12  H    3.409553   5.603550   4.608836   5.657066   2.833666
    13  H    1.084299   2.833630   4.608843   5.657062   5.603567
                   11         12         13
    11  H    0.000000
    12  H    2.487250   0.000000
    13  H    2.487251   4.312970   0.000000
 Stoichiometry    C7H3Cl2N
 Framework group  C1[X(C7H3Cl2N)]
 Deg. of freedom    33
 Full point group                 C1      NOp   1
 Largest Abelian subgroup         C1      NOp   1
 Largest concise Abelian subgroup C1      NOp   1
                         Standard orientation:                         
 ---------------------------------------------------------------------
 Center     Atomic      Atomic             Coordinates (Angstroms)
 Number     Number       Type             X           Y           Z
 ---------------------------------------------------------------------
      1          6           0       -0.000043    2.463494    0.000023
      2          6           0        1.211366    1.778179    0.000008
      3          6           0        1.207357    0.388623   -0.000044
      4          6           0        0.000004   -0.327290   -0.000031
      5          6           0       -1.207368    0.388584   -0.000012
      6          6           0       -1.211414    1.778152    0.000008
      7         17           0       -2.709299   -0.469553   -0.000011
      8          6           0        0.000035   -1.763530    0.000062
      9          7           0        0.000041   -2.920237    0.000014
     10         17           0        2.709312   -0.469505   -0.000007
     11          1           0       -0.000055    3.549020    0.000053
     12          1           0        2.156449    2.309705    0.000040
     13          1           0       -2.156521    2.309638    0.000032
 ---------------------------------------------------------------------
 Rotational constants (GHZ):      1.4491371      0.8523211      0.5366728

 **********************************************************************

            Population analysis using the SCF density.

 **********************************************************************

 Orbital symmetries:
       Occupied  (A) (A) (A) (A) (A) (A) (A) (A) (A) (A) (A) (A)
                 (A) (A) (A) (A) (A) (A) (A) (A) (A) (A) (A) (A)
                 (A) (A) (A) (A) (A) (A) (A) (A) (A) (A) (A) (A)
                 (A) (A) (A) (A) (A) (A) (A)
       Virtual   (A) (A) (A) (A) (A) (A) (A) (A) (A) (A) (A) (A)
                 (A) (A) (A) (A) (A) (A) (A) (A) (A) (A) (A) (A)
                 (A) (A) (A) (A) (A) (A) (A) (A) (A) (A) (A) (A)
                 (A) (A) (A) (A) (A) (A) (A) (A) (A) (A) (A) (A)
                 (A) (A) (A) (A) (A) (A) (A) (A) (A) (A) (A) (A)
                 (A) (A) (A) (A) (A) (A) (A) (A) (A) (A) (A) (A)
                 (A) (A) (A) (A) (A) (A) (A) (A) (A) (A) (A) (A)
                 (A) (A) (A) (A) (A) (A) (A) (A) (A) (A) (A) (A)
                 (A) (A) (A) (A) (A) (A) (A) (A) (A) (A) (A) (A)
                 (A) (A) (A) (A) (A) (A) (A) (A) (A) (A) (A) (A)
                 (A) (A) (A) (A) (A) (A) (A) (A) (A) (A) (A) (A)
                 (A) (A) (A) (A) (A) (A) (A) (A) (A) (A) (A) (A)
                 (A) (A) (A) (A) (A) (A) (A) (A) (A) (A) (A) (A)
                 (A) (A) (A) (A) (A)
 The electronic state is 1-A.
 Alpha  occ. eigenvalues -- -102.69967-102.69967 -14.78674 -10.66252 -10.66251
 Alpha  occ. eigenvalues --  -10.63637 -10.60887 -10.60638 -10.60165 -10.60159
 Alpha  occ. eigenvalues --   -9.84609  -9.84609  -7.57033  -7.57032  -7.56341
 Alpha  occ. eigenvalues --   -7.56341  -7.56309  -7.56309  -1.05827  -1.02340
 Alpha  occ. eigenvalues --   -1.00763  -0.95612  -0.89991  -0.86045  -0.76338
 Alpha  occ. eigenvalues --   -0.72129  -0.66381  -0.59799  -0.59338  -0.55060
 Alpha  occ. eigenvalues --   -0.53398  -0.52859  -0.48413  -0.47230  -0.45908
 Alpha  occ. eigenvalues --   -0.45322  -0.43796  -0.42061  -0.41162  -0.40825
 Alpha  occ. eigenvalues --   -0.39535  -0.33777  -0.32876
 Alpha virt. eigenvalues --   -0.04776  -0.02401   0.00242   0.01061   0.02026
 Alpha virt. eigenvalues --    0.03363   0.03739   0.04857   0.05014   0.05188
 Alpha virt. eigenvalues --    0.05671   0.07532   0.07788   0.08176   0.08396
 Alpha virt. eigenvalues --    0.09042   0.09093   0.10797   0.10853   0.11943
 Alpha virt. eigenvalues --    0.11993   0.12249   0.13405   0.13973   0.14460
 Alpha virt. eigenvalues --    0.15755   0.16494   0.16618   0.17369   0.18185
 Alpha virt. eigenvalues --    0.19348   0.19358   0.20156   0.20940   0.21012
 Alpha virt. eigenvalues --    0.22173   0.22815   0.23210   0.23433   0.24883
 Alpha virt. eigenvalues --    0.25789   0.26174   0.27556   0.27815   0.29009
 Alpha virt. eigenvalues --    0.29456   0.29875   0.29966   0.31547   0.32177
 Alpha virt. eigenvalues --    0.33624   0.33697   0.33739   0.39388   0.39601
 Alpha virt. eigenvalues --    0.50989   0.52766   0.59766   0.63052   0.63111
 Alpha virt. eigenvalues --    0.63929   0.64011   0.66372   0.67517   0.69693
 Alpha virt. eigenvalues --    0.70436   0.71535   0.71931   0.72453   0.73949
 Alpha virt. eigenvalues --    0.74764   0.75504   0.76677   0.79469   0.79934
 Alpha virt. eigenvalues --    0.81355   0.83600   0.85256   0.87186   0.87732
 Alpha virt. eigenvalues --    0.91071   0.91757   0.92519   0.92981   0.95054
 Alpha virt. eigenvalues --    0.95383   0.96449   0.97045   0.98254   1.02182
 Alpha virt. eigenvalues --    1.04347   1.04817   1.05155   1.08799   1.09784
 Alpha virt. eigenvalues --    1.11127   1.11537   1.15850   1.18000   1.18915
 Alpha virt. eigenvalues --    1.20065   1.23871   1.23959   1.26240   1.30725
 Alpha virt. eigenvalues --    1.37047   1.37586   1.39085   1.45649   1.45752
 Alpha virt. eigenvalues --    1.47795   1.47978   1.53381   1.53869   1.54833
 Alpha virt. eigenvalues --    1.59004   1.62890   1.68767   1.80814   1.82292
 Alpha virt. eigenvalues --    1.83435   1.86570   1.94461   1.98301   1.98855
 Alpha virt. eigenvalues --    1.99745   2.04137   2.09957   2.11096   2.13677
 Alpha virt. eigenvalues --    2.13822   2.15469   2.21356   2.23685   2.27432
 Alpha virt. eigenvalues --    2.28329   2.29257   2.48271   2.56060   2.59595
 Alpha virt. eigenvalues --    2.61300   2.66207   2.71375   2.72391   2.81814
 Alpha virt. eigenvalues --    2.82470   2.87224   3.09667   3.14784   3.24543
 Alpha virt. eigenvalues --    3.41337   4.20664   4.24692   4.27679   4.29426
 Alpha virt. eigenvalues --    4.33554   4.41797   4.43553   4.45659   4.55797
 Alpha virt. eigenvalues --    4.81156
          Condensed to atoms (all electrons):
               1          2          3          4          5          6
     1  C    5.935463   0.466463   0.271690  -1.667298   0.271737   0.466477
     2  C    0.466463   9.708911   1.098086  -0.444586  -3.634864  -0.827958
     3  C    0.271690   1.098086  17.356300  -5.115001  -3.532611  -3.634565
     4  C   -1.667298  -0.444586  -5.115001  19.025478  -5.115218  -0.444582
     5  C    0.271737  -3.634864  -3.532611  -5.115218  17.356788   1.098227
     6  C    0.466477  -0.827958  -3.634565  -0.444582   1.098227   9.708481
     7  Cl   0.028514   0.044543   0.246233   0.042124  -0.003918  -0.462117
     8  C   -0.185859   0.314458  -1.354967  -0.101419  -1.355113   0.314441
     9  N   -0.000334  -0.010148   0.037359   0.333473   0.037345  -0.010153
    10  Cl   0.028515  -0.462140  -0.003878   0.042127   0.246242   0.044533
    11  H    0.311544  -0.013218   0.028468  -0.031179   0.028469  -0.013216
    12  H   -0.056725   0.264415  -0.019018   0.121371  -0.020307   0.020055
    13  H   -0.056729   0.020057  -0.020307   0.121381  -0.019026   0.264413
               7          8          9         10         11         12
     1  C    0.028514  -0.185859  -0.000334   0.028515   0.311544  -0.056725
     2  C    0.044543   0.314458  -0.010148  -0.462140  -0.013218   0.264415
     3  C    0.246233  -1.354967   0.037359  -0.003878   0.028468  -0.019018
     4  C    0.042124  -0.101419   0.333473   0.042127  -0.031179   0.121371
     5  C   -0.003918  -1.355113   0.037345   0.246242   0.028469  -0.020307
     6  C   -0.462117   0.314441  -0.010153   0.044533  -0.013216   0.020055
     7  Cl  16.903865  -0.131441   0.022922  -0.003393   0.001156   0.000313
     8  C   -0.131441   9.307067  -0.105250  -0.131454  -0.000669   0.006437
     9  N    0.022922  -0.105250   7.099350   0.022921  -0.000010  -0.000039
    10  Cl  -0.003393  -0.131454   0.022921  16.903865   0.001156  -0.004902
    11  H    0.001156  -0.000669  -0.000010   0.001156   0.462360  -0.003435
    12  H    0.000313   0.006437  -0.000039  -0.004902  -0.003435   0.447158
    13  H   -0.004901   0.006437  -0.000039   0.000313  -0.003435  -0.000113
              13
     1  C   -0.056729
     2  C    0.020057
     3  C   -0.020307
     4  C    0.121381
     5  C   -0.019026
     6  C    0.264413
     7  Cl  -0.004901
     8  C    0.006437
     9  N   -0.000039
    10  Cl   0.000313
    11  H   -0.003435
    12  H   -0.000113
    13  H    0.447159
 Mulliken charges:
               1
     1  C    0.186542
     2  C   -0.524019
     3  C    0.642211
     4  C   -0.766671
     5  C    0.642250
     6  C   -0.524036
     7  Cl   0.316100
     8  C   -0.582667
     9  N   -0.427397
    10  Cl   0.316094
    11  H    0.232009
    12  H    0.244792
    13  H    0.244791
 Sum of Mulliken charges =   0.00000
 Mulliken charges with hydrogens summed into heavy atoms:
               1
     1  C    0.418552
     2  C   -0.279228
     3  C    0.642211
     4  C   -0.766671
     5  C    0.642250
     6  C   -0.279245
     7  Cl   0.316100
     8  C   -0.582667
     9  N   -0.427397
    10  Cl   0.316094
 Electronic spatial extent (au):  <R**2>=           1873.0862
 Charge=              0.0000 electrons
 Dipole moment (field-independent basis, Debye):
    X=             -0.0002    Y=              5.5860    Z=              0.0001  Tot=              5.5860
 Quadrupole moment (field-independent basis, Debye-Ang):
   XX=            -68.3478   YY=            -73.2979   ZZ=            -72.6629
   XY=              0.0001   XZ=              0.0001   YZ=              0.0003
 Traceless Quadrupole moment (field-independent basis, Debye-Ang):
   XX=              3.0884   YY=             -1.8617   ZZ=             -1.2267
   XY=              0.0001   XZ=              0.0001   YZ=              0.0003
 Octapole moment (field-independent basis, Debye-Ang**2):
  XXX=             -0.0012  YYY=             64.1621  ZZZ=             -0.0001  XYY=             -0.0006
  XXY=              3.5567  XXZ=              0.0004  XZZ=             -0.0001  YZZ=             -5.1386
  YYZ=              0.0005  XYZ=              0.0000
 Hexadecapole moment (field-independent basis, Debye-Ang**3):
 XXXX=          -1349.7955 YYYY=          -1049.8100 ZZZZ=            -82.0337 XXXY=             -0.0002
 XXXZ=              0.0013 YYYX=              0.0028 YYYZ=              0.0041 ZZZX=              0.0002
 ZZZY=              0.0004 XXYY=           -368.3960 XXZZ=           -255.7786 YYZZ=           -191.9140
 XXYZ=              0.0008 YYXZ=              0.0003 ZZXY=              0.0003
[...]
 Vib (V=0)    9  0.114646D+01          0.059358          0.136678
 Vib (V=0)   10  0.107859D+01          0.032858          0.075657
 Vib (V=0)   11  0.107263D+01          0.030452          0.070118
 Vib (V=0)   12  0.106777D+01          0.028478          0.065573
 Vib (V=0)   13  0.105904D+01          0.024910          0.057358
 Electronic      0.100000D+01          0.000000          0.000000
 Translational   0.878644D+08          7.943813         18.291306
 Rotational      0.106600D+07          6.027758         13.879425
 ***** Axes restored to original set *****
 -------------------------------------------------------------------
 Center     Atomic                   Forces (Hartrees/Bohr)
 Number     Number              X              Y              Z
 -------------------------------------------------------------------
      1        6           0.000013185   -0.000003702   -0.000115387
      2        6           0.000025673   -0.000020921    0.000104237
      3        6          -0.000239209    0.000149715   -0.000324356
      4        6          -0.000017127   -0.000004508    0.000669772
      5        6           0.000265978   -0.000137328   -0.000322297
      6        6          -0.000043475    0.000020210    0.000115643
      7       17          -0.000196306    0.000107843    0.000032300
      8        6           0.000002690   -0.000004310   -0.000339384
      9        7           0.000002345    0.000003695    0.000012064
     10       17           0.000189728   -0.000107208    0.000035729
     11        1          -0.000000818   -0.000000250    0.000033701
     12        1           0.000059594   -0.000035348    0.000050598
     13        1          -0.000062256    0.000032113    0.000047382
 -------------------------------------------------------------------
 Cartesian Forces:  Max     0.000669772 RMS     0.000167895
 FormGI is forming the generalized inverse of G from B-inverse, IUseBI=4.
 GSVD:  received Info=                   1 from GESDD.

 GradGradGradGradGradGradGradGradGradGradGradGradGradGradGradGradGradGrad
 Berny optimization.
 Internal  Forces:  Max     0.000327277 RMS     0.000090418
 Search for a local minimum.
 Step number   1 out of a maximum of    2
 All quantities printed in internal units (Hartrees-Bohrs-Radians)
 Second derivative matrix not updated -- analytic derivatives used.
 ITU=  0
     Eigenvalues ---    0.01447   0.01529   0.01810   0.02263   0.02415
     Eigenvalues ---    0.02537   0.02784   0.03088   0.03156   0.07088
     Eigenvalues ---    0.07226   0.11049   0.11807   0.12250   0.16735
     Eigenvalues ---    0.16988   0.17725   0.18639   0.20359   0.21328
     Eigenvalues ---    0.27378   0.27595   0.31836   0.36611   0.36978
     Eigenvalues ---    0.37022   0.37316   0.45039   0.45301   0.49032
     Eigenvalues ---    0.49339   0.53315   1.31017
 Angle between quadratic step and forces=  21.13 degrees.
 Linear search not attempted -- first point.
 Iteration  1 RMS(Cart)=  0.00066481 RMS(Int)=  0.00000031
 Iteration  2 RMS(Cart)=  0.00000043 RMS(Int)=  0.00000004
 Variable       Old X    -DE/DX   Delta X   Delta X   Delta X     New X
                                 (Linear)    (Quad)   (Total)
    R1        2.63016   0.00004   0.00000   0.00009   0.00009   2.63025
    R2        2.63012   0.00005   0.00000   0.00013   0.00013   2.63025
    R3        2.05135  -0.00003   0.00000  -0.00011  -0.00011   2.05124
    R4        2.62589  -0.00012   0.00000  -0.00027  -0.00027   2.62562
    R5        2.04903   0.00004   0.00000   0.00009   0.00009   2.04912
    R6        2.65251   0.00010   0.00000   0.00017   0.00017   2.65268
    R7        3.26887   0.00021   0.00000   0.00108   0.00108   3.26995
    R8        2.65251   0.00010   0.00000   0.00017   0.00017   2.65268
    R9        2.71410  -0.00033   0.00000  -0.00108  -0.00108   2.71302
   R10        2.62592  -0.00012   0.00000  -0.00030  -0.00030   2.62562
   R11        3.26884   0.00021   0.00000   0.00111   0.00111   3.26995
   R12        2.04903   0.00004   0.00000   0.00009   0.00009   2.04912
   R13        2.18586   0.00001   0.00000   0.00002   0.00002   2.18588
    A1        2.11190  -0.00007   0.00000  -0.00058  -0.00058   2.11133
    A2        2.08564   0.00004   0.00000   0.00029   0.00029   2.08593
    A3        2.08565   0.00004   0.00000   0.00028   0.00028   2.08593
    A4        2.08274   0.00002   0.00000   0.00008   0.00008   2.08282
    A5        2.11444   0.00007   0.00000   0.00068   0.00068   2.11512
    A6        2.08600  -0.00009   0.00000  -0.00076  -0.00076   2.08524
    A7        2.10891   0.00013   0.00000   0.00092   0.00092   2.10983
    A8        2.08699  -0.00020   0.00000  -0.00106  -0.00106   2.08593
    A9        2.08728   0.00007   0.00000   0.00014   0.00014   2.08742
   A10        2.07117  -0.00021   0.00000  -0.00143  -0.00143   2.06974
   A11        2.10600   0.00011   0.00000   0.00072   0.00072   2.10672
   A12        2.10601   0.00010   0.00000   0.00071   0.00071   2.10672
   A13        2.10891   0.00013   0.00000   0.00092   0.00092   2.10983
   A14        2.08730   0.00007   0.00000   0.00012   0.00012   2.08742
   A15        2.08698  -0.00019   0.00000  -0.00104  -0.00104   2.08593
   A16        2.08274   0.00002   0.00000   0.00008   0.00008   2.08282
   A17        2.11445   0.00007   0.00000   0.00066   0.00066   2.11512
   A18        2.08599  -0.00009   0.00000  -0.00074  -0.00074   2.08524
   A19        3.14161   0.00000   0.00000  -0.00002  -0.00002   3.14159
   A20        3.14171  -0.00001   0.00000  -0.00012  -0.00012   3.14159
    D1        0.00002   0.00000   0.00000  -0.00002  -0.00002   0.00000
    D2       -3.14157   0.00000   0.00000  -0.00002  -0.00002   3.14159
    D3       -3.14158   0.00000   0.00000  -0.00001  -0.00001  -3.14159
    D4        0.00002   0.00000   0.00000  -0.00002  -0.00002   0.00000
    D5        0.00001   0.00000   0.00000  -0.00001  -0.00001   0.00000
    D6        3.14158   0.00000   0.00000   0.00001   0.00001  -3.14159
    D7       -3.14158   0.00000   0.00000  -0.00002  -0.00002   3.14159
    D8       -0.00001   0.00000   0.00000   0.00001   0.00001   0.00000
    D9       -0.00004   0.00000   0.00000   0.00004   0.00004   0.00000
   D10       -3.14155   0.00000   0.00000  -0.00004  -0.00004   3.14159
   D11        3.14155   0.00000   0.00000   0.00005   0.00005   3.14159
   D12        0.00003   0.00000   0.00000  -0.00004  -0.00004   0.00000
   D13        0.00004   0.00000   0.00000  -0.00004  -0.00004   0.00000
   D14       -3.14147   0.00000   0.00000  -0.00012  -0.00012  -3.14159
   D15        3.14155   0.00000   0.00000   0.00004   0.00004  -3.14159
   D16        0.00004   0.00000   0.00000  -0.00004  -0.00004   0.00000
   D17       -0.00001   0.00000   0.00000   0.00001   0.00001   0.00000
   D18        3.14158   0.00000   0.00000   0.00001   0.00001   3.14159
   D19        3.14150   0.00000   0.00000   0.00009   0.00009  -3.14159
   D20       -0.00009   0.00000   0.00000   0.00009   0.00009   0.00000
   D21       -0.00001   0.00000   0.00000   0.00001   0.00001   0.00000
   D22       -3.14158   0.00000   0.00000  -0.00001  -0.00001   3.14159
   D23        3.14158   0.00000   0.00000   0.00001   0.00001  -3.14159
   D24        0.00001   0.00000   0.00000  -0.00001  -0.00001   0.00000
         Item               Value     Threshold  Converged?
 Maximum Force            0.000327     0.000450     YES
 RMS     Force            0.000090     0.000300     YES
 Maximum Displacement     0.002087     0.001800     NO 
 RMS     Displacement     0.000665     0.001200     YES
 Predicted change in Energy=-1.166455D-06
 GradGradGradGradGradGradGradGradGradGradGradGradGradGradGradGradGradGrad

 1\1\GINC-KATANA3\Freq\RM062X\6-31+G(d)\C7H3Cl2N1\Z5358697\17-Mar-2025\
 0\\#N Geom=AllCheck Guess=TCheck SCRF=Check GenChk RM062X/6-31+G(d) Fr
 eq\\2,6-dichlorobenzonitrile\\0,1\C,1.8851813127,-1.0364982223,-0.1161
 604277\C,2.9245239929,-1.6322352546,0.592383256\C,2.8786126067,-1.6510
 480654,1.9810583657\C,1.800085086,-1.0781534784,2.6730151105\C,0.76520
 96622,-0.4839102392,1.9340090496\C,0.8040559517,-0.4612312802,0.545162
 7182\Cl,-0.5754817967,0.2292332942,2.7623618297\C,1.7563553082,-1.0994
 885639,4.1084307661\N,1.7210606671,-1.1167695119,5.2644698794\Cl,4.167
 0014053,-2.3897432096,2.8679823259\H,1.9182909949,-1.020291014,-1.2010
 60663\H,3.7679055018,-2.0810740147,0.0795938781\H,-0.0069006929,0.0035
 0956,-0.0044460885\\Version=ES64L-G09RevD.01\State=1-A\HF=-1243.492961
 3\RMSD=9.874e-09\RMSF=1.679e-04\ZeroPoint=0.0806029\Thermal=0.0891179\
 Dipole=0.0669865,0.0328018,-2.1964489\DipoleDeriv=0.183916,-0.1452058,
 0.0001723,-0.1452028,0.0009333,-0.0060223,0.0001652,-0.0060215,0.10723
 48,-0.1983211,0.0502646,-0.1392757,0.0541822,-0.1476658,0.080773,-0.26
 28938,0.1489446,-0.2398308,0.6811744,-0.3905195,0.2564036,-0.3983075,0
 .2124025,-0.1533166,0.5024379,-0.2889899,0.3619191,-0.2202569,0.182801
 ,-0.0032261,0.1827937,0.0099985,0.0061395,-0.0032553,0.0061145,-0.0246
 085,0.7268922,-0.3997812,-0.2463293,-0.391958,0.200073,0.1249966,-0.49
 23373,0.2607201,0.3285298,-0.2230438,0.0549585,0.1420769,0.0510307,-0.
 1409793,-0.0749784,0.2656968,-0.1431604,-0.2217709,-0.5044792,0.260375
 9,0.1996333,0.2585691,-0.1601367,-0.1059243,0.2566324,-0.1373653,-0.15
 24373,0.1122065,-0.001637,-0.0033981,-0.0016347,0.1099982,-0.0017139,-
 0.0033913,-0.0017146,0.2235062,-0.2625335,-0.0087659,0.0014112,-0.0087
 657,-0.2735226,0.0003041,0.0014007,0.0002999,-0.3135552,-0.4758749,0.2
 576623,-0.2118871,0.2594433,-0.1678517,0.1216915,-0.2688716,0.1531313,
 -0.1733314,0.0773635,0.0339574,0.0039725,0.0339596,0.1203258,0.0033744
 ,0.0039737,0.003375,-0.0360528,0.0502657,0.0528548,0.02413,0.0531129,0
 .11854,-0.0108754,0.0161106,-0.0064575,0.0710854,0.0526912,0.0530348,-
 0.0236835,0.052777,0.1178848,0.0155519,-0.015668,0.0111238,0.0693115\P
 olar=110.9689758,-30.773279,72.1404102,-1.0930189,-1.8286665,131.69222
 09\PG=C01 [X(C7H3Cl2N1)]\NImag=0\\0.57181753,-0.23787853,0.27163738,-0
 .00924560,-0.01450576,0.75708130,-0.24590038,0.10508707,-0.11955099,0.
 61761049,0.10285224,-0.12119904,0.07002292,-0.26803263,0.27742785,-0.0
 4921288,0.03122883,-0.19087634,-0.03462421,0.00078621,0.70579380,0.033
 83927,-0.01455111,-0.02302375,-0.10607189,0.02343194,-0.01134638,0.461
 96370,-0.01266414,0.01267592,0.01378424,0.02132691,-0.07648365,0.01526
 375,-0.18363694,0.22719913,-0.08244331,0.04655748,-0.02808915,0.054937
 54,-0.02129136,-0.34764911,-0.04803204,0.01003923,0.64439261,-0.058323
 72,0.03027254,-0.00127066,0.02685762,-0.01234411,0.07011145,-0.2188206
 2,0.08352020,0.05208718,0.53617981,0.03027349,-0.02022595,0.00064971,-
 0.01080012,0.01566452,-0.03766707,0.08172614,-0.10865619,-0.02559130,-
 0.22130378,0.25693730,-0.00127063,0.00064920,-0.00187958,0.02149439,-0
 .01085373,-0.02301927,0.10862753,-0.05677408,-0.16330715,-0.00838781,-
 0.01339787,0.70286710,0.02721333,-0.01245587,0.02605272,-0.01299375,0.
 00524962,-0.02846090,-0.04361753,0.02806521,0.02701141,-0.20898967,0.0
 8321310,-0.10903519,0.45714280,-0.01434324,0.01446680,-0.01343583,0.00
 528599,-0.00859092,0.01766626,0.02999564,-0.00717495,-0.01719804,0.081
 41875,-0.11131495,0.06350481,-0.18349680,0.22851417,0.08547260,-0.0462
 0765,-0.02325553,-0.02960583,0.01829819,-0.06711943,-0.03377075,0.0163
 2581,0.08125187,-0.05249687,0.03232008,-0.17049134,0.03113920,-0.03373
 594,0.64788949,-0.25618999,0.10319348,0.11878737,-0.04070767,0.0274903
 4,-0.02729444,-0.01673932,0.00536769,0.03287442,0.03226764,-0.01251626
 ,-0.01851057,-0.10435692,0.02337934,-0.03941712,0.61423955,0.10542765,
 -0.11843262,-0.06166611,0.02595672,-0.00716184,0.01288856,0.00540421,-
 0.00757907,-0.01624903,-0.01097118,0.01420370,0.01133620,0.02127395,-0
 .07695077,0.03077892,-0.26795011,0.27836180,0.04844905,-0.02287221,-0.
 18340165,0.02097996,-0.01373701,0.07573705,0.03172932,-0.01561716,-0.0
 6438650,-0.06712676,0.03815040,-0.02696666,0.02686552,-0.00578006,-0.3
 4886392,0.02100326,-0.02996328,0.70824322,0.00472431,0.00003956,0.0007
 0371,-0.00219753,0.00085323,0.00003109,0.00158678,0.00144957,-0.003001
 63,-0.02804146,0.01772348,0.01658449,-0.12171668,0.05273334,0.05332325
 ,-0.01278345,0.00967277,0.01246540,0.16261381,0.00023248,0.00471191,-0
 .00011343,0.00078338,-0.00107763,-0.00010807,0.00134885,0.00323914,0.0
 0189875,0.01837054,-0.00479432,-0.00918122,0.05266382,-0.05119777,-0.0
 2783486,0.00896310,0.00072141,-0.00608720,-0.08175468,0.05344528,-0.00
 536062,0.00323131,-0.00381581,0.00222200,-0.00131599,0.00219849,0.0001
 7376,0.00014709,-0.00360082,-0.00377885,0.00204938,0.00613330,0.055503
 21,-0.02903586,-0.07267809,0.03480752,-0.01841068,-0.01932279,-0.08140
 538,0.04231106,0.09118903,-0.00197703,0.00029230,-0.00004028,-0.002878
 88,0.00519182,0.00214915,0.00380182,-0.00265370,0.02761232,-0.07505595
 ,0.01094488,0.00701588,0.00641634,-0.00241554,-0.02539131,-0.00247037,
 0.00511252,-0.00243853,-0.00238805,0.00008150,-0.00272324,0.10815214,0
 .00029230,-0.00161026,-0.00000732,0.00512504,0.00386710,-0.00112410,-0
 .00233188,0.00231446,-0.01421061,0.01094429,-0.06096979,0.00388816,-0.
 00273680,0.00160921,0.01508454,0.00517923,0.00375695,0.00141530,-0.000
 10428,-0.00238687,0.00150284,-0.01328993,0.08941017,-0.00004048,-0.000
 00740,-0.00051142,0.00424569,-0.00228078,0.00473994,0.01745640,-0.0086
 0960,-0.03154045,0.00701400,0.00388429,-0.29968952,-0.01523709,0.00948
 277,-0.03344910,-0.00453531,0.00257172,0.00444181,0.00312888,-0.001724
 80,-0.00242840,-0.04744866,-0.02380184,1.65464806,-0.00001727,0.000235
 69,-0.00001658,0.00072517,-0.00115410,0.00025019,-0.00185479,0.0022000
 2,-0.00342317,0.01800858,-0.00181819,0.00114397,-0.00260506,0.00240405
 ,0.00318250,0.00072876,-0.00114411,-0.00012564,0.00009675,0.00013606,-
 0.00127211,-0.03207803,-0.00287324,0.03848834,0.01718533,0.00023568,0.
 00027906,0.00000170,-0.00114395,-0.00071802,-0.00012146,0.00238033,0.0
 0056482,0.00186804,-0.00181806,0.01576556,0.00048226,0.00222370,0.0007
 6740,-0.00179271,-0.00115422,-0.00071905,0.00008594,0.00014626,0.00016
 851,0.00066827,-0.00287336,-0.03408090,0.01874667,0.00191316,0.0179384
 9,-0.00001642,0.00000181,0.00063854,-0.00006584,0.00005260,-0.00187387
 ,-0.00910648,0.00500279,0.00255786,0.00114760,0.00048745,-0.02039007,0
 .00886629,-0.00492744,0.00310558,0.00019024,-0.00008852,-0.00187630,-0
 .00158890,0.00084311,0.00132259,0.03848436,0.01874137,-1.29272260,-0.0
 3943039,-0.01924640,1.30826555,0.00440836,0.00024236,-0.00019432,-0.00
 994719,0.00887298,-0.01163763,-0.11500179,0.05244380,-0.05438841,-0.02
 716952,0.01834115,-0.01808675,0.00139311,0.00135508,0.00335077,-0.0020
 4530,0.00077860,-0.00026775,-0.00148793,0.00087642,-0.00017014,-0.0023
 6381,0.00008132,-0.00312501,-0.00007320,0.00014152,0.00150939,0.152584
 71,0.00004962,0.00479758,0.00037494,0.00958277,-0.00004435,0.00727204,
 0.05251228,-0.05300466,0.03172343,0.01769490,-0.00502838,0.00996119,0.
 00145603,0.00329085,-0.00160994,0.00084808,-0.00111857,0.00006047,0.00
 086844,-0.00039037,0.00008452,-0.00010445,-0.00239373,0.00172490,0.000
 15173,0.00021432,-0.00086960,-0.08142838,0.05614650,0.00586977,-0.0029
 6993,-0.00358540,-0.03398038,0.01959313,-0.02139171,-0.05656766,0.0329
 2700,-0.07757424,0.00227617,-0.00126993,0.00549487,0.00017503,0.000141
 81,-0.00345891,-0.00245802,0.00126878,0.00208731,0.00008176,-0.0000544
 7,0.00038518,0.00272702,-0.00150253,-0.00244650,0.00119273,-0.00069511
 ,0.00144647,0.08279381,-0.04847847,0.09850510,-0.05547899,0.00823749,0
 .00906451,0.00539848,0.00036330,-0.02418690,-0.00105617,0.00459874,-0.
 00203390,-0.00133786,0.00029117,-0.00005788,-0.00130021,0.00460374,0.0
 0205820,0.00400595,-0.00043441,0.02509389,-0.00057547,0.00018239,0.001
 17910,-0.00008925,-0.00037452,-0.00000653,0.00003393,0.00005097,0.0000
 0183,-0.00049261,0.00021138,-0.00117309,0.05153091,0.00823712,-0.04471
 593,0.00478912,-0.00047779,0.00448753,0.01382738,0.00459613,0.00458792
 ,0.00133005,0.00029083,-0.00097324,-0.00001625,0.00460676,0.00465443,-
 0.00093183,0.00040701,0.00486472,-0.01338550,0.00021392,-0.00027464,-0
 .00063982,-0.00037452,-0.00056148,-0.00001894,0.00005097,0.00009824,0.
 00000303,0.00017982,-0.00029704,0.00065947,-0.01343659,0.03418461,0.00
 906491,0.00478895,-0.34811691,0.00229460,-0.00077877,-0.01065698,-0.00
 193931,0.00127860,0.00058642,-0.00005794,-0.00001621,0.00069996,0.0019
 6393,-0.00087973,0.00076462,-0.00138828,0.00122015,-0.00964130,0.00018
 386,-0.00009100,-0.00050510,-0.00000652,-0.00001893,-0.00005936,0.0000
 0182,0.00000304,-0.00000078,-0.00017788,0.00011045,-0.00056555,-0.0098
 1566,-0.00537553,0.36619544,-0.01203270,0.00822935,0.01192931,-0.22930
 904,0.10317552,0.11096383,0.00220251,0.00031360,-0.00208843,0.00227665
 ,0.00195367,-0.00059628,-0.00012738,-0.00033372,-0.00083991,-0.0002117
 5,0.00404485,-0.00308571,-0.00006994,-0.00027085,0.00007882,0.00042741
 ,0.00006915,-0.00009372,-0.00006612,-0.00005406,-0.00005554,0.00025943
 ,-0.00157420,-0.00083224,-0.00033011,-0.00214115,-0.00004880,0.2375440
 6,0.00905404,-0.00119928,-0.00687504,0.10324987,-0.09092810,-0.0583709
 0,-0.00054519,0.00290048,0.00160319,0.00196753,0.00467865,0.00066418,-
 0.00033423,-0.00061162,0.00047551,0.00403794,0.00465513,0.00196590,-0.
 00026798,-0.00040653,-0.00006845,0.00002165,0.00053295,0.00008381,-0.0
 0004854,-0.00014165,0.00003303,-0.00161361,-0.00176403,0.00034724,-0.0
 0215163,-0.00302451,-0.00012789,-0.11375646,0.08541218,-0.01401622,0.0
 0743436,0.01288765,0.10861354,-0.05707443,-0.12478970,0.02492555,-0.01
 329565,-0.01154907,-0.00101558,0.00089536,-0.00477244,-0.00082564,0.00
 046770,-0.00116862,-0.00286746,0.00184569,-0.00136590,-0.00001075,-0.0
 0001905,0.00022867,0.00140022,-0.00074012,-0.00046345,-0.00022987,0.00
 012917,-0.00024304,0.00040919,-0.00033753,0.00087890,0.00027983,-0.000
 30929,0.00065764,-0.11596944,0.06063476,0.12917904,-0.01208270,0.00905
 568,-0.01319547,-0.00058544,0.00404986,0.00325764,-0.00023198,-0.00033
 096,0.00088802,0.00214850,0.00197126,0.00107883,0.00354162,-0.00058660
 ,0.00299526,-0.21573713,0.10282855,-0.11354201,0.00023887,-0.00161302,
 0.00074592,0.00050367,0.00001932,0.00015351,-0.00008406,-0.00004797,0.
 00006387,-0.00006426,-0.00026818,-0.00010488,-0.00030860,-0.00215251,-
 0.00007473,-0.00056303,0.00038659,-0.00069336,0.22322454,0.00823130,-0
 .00118556,0.00698087,0.00405674,0.00475658,-0.00154144,-0.00033040,-0.
 00058335,-0.00047983,0.00195754,0.00471311,-0.00026285,0.00027153,0.00
 253812,-0.00117012,0.10275438,-0.09460180,0.06576442,-0.00157363,-0.00
 175811,-0.00052365,0.00006685,0.00051220,-0.00005080,-0.00005351,-0.00
 013678,-0.00003324,-0.00027105,-0.00040810,0.00003301,-0.00214204,-0.0
 0303061,-0.00011313,0.00034431,-0.00010364,0.00036903,-0.11331202,0.08
 928794,0.01274983,-0.00732900,0.01292431,0.00303952,-0.00142097,-0.001
 09287,0.00087381,-0.00047203,-0.00109227,0.00149806,-0.00049428,-0.004
 67920,-0.02401850,0.01372957,-0.01252661,-0.11119160,0.06446761,-0.134
 68437,-0.00049577,0.00016117,0.00089376,-0.00134041,0.00077324,-0.0005
 1900,0.00023819,-0.00012940,-0.00022995,-0.00001526,-0.00001640,0.0002
 2449,-0.00040341,0.00006810,0.00064188,0.00063813,-0.00036535,0.000520
 31,0.11842740,-0.06897226,0.13961952\\-0.00001318,0.00000370,0.0001153
 9,-0.00002567,0.00002092,-0.00010424,0.00023921,-0.00014971,0.00032436
 ,0.00001713,0.00000451,-0.00066977,-0.00026598,0.00013733,0.00032230,0
 .00004348,-0.00002021,-0.00011564,0.00019631,-0.00010784,-0.00003230,-
 0.00000269,0.00000431,0.00033938,-0.00000235,-0.00000369,-0.00001206,-
 0.00018973,0.00010721,-0.00003573,0.00000082,0.00000025,-0.00003370,-0
 .00005959,0.00003535,-0.00005060,0.00006226,-0.00003211,-0.00004738\\\
 @


 Money is a good servant but a bad master.
                        -- French Proverb
 Job cpu time:       0 days  0 hours  7 minutes 48.4 seconds.
 File lengths (MBytes):  RWF=    205 Int=      0 D2E=      0 Chk=      5 Scr=      2
 Normal termination of Gaussian 09 at Mon Mar 17 15:33:37 2025.
