 Entering Gaussian System, Link 0=g09
 Initial command:
 /apps/z_install_tree/linux-rocky8-ivybridge/gcc-12.2.0/gaussian-09-D.01-wczn3gur5lpur3omlkzwa2l5ecyxp5ef/g09/l1.exe "/srv/scratch/z5358697/gauss/Gau-3515395.inp" -scrdir="/srv/scratch/z5358697/gauss/"
 Entering Link 1 = /apps/z_install_tree/linux-rocky8-ivybridge/gcc-12.2.0/gaussian-09-D.01-wczn3gur5lpur3omlkzwa2l5ecyxp5ef/g09/l1.exe PID=   3515397.
  
 Copyright (c) 1988,1990,1992,1993,1995,1998,2003,2009,2013,
            Gaussian, Inc.  All Rights Reserved.
  
 This is part of the Gaussian(R) 09 program.  It is based on
 the Gaussian(R) 03 system (copyright 2003, Gaussian, Inc.),
 the Gaussian(R) 98 system (copyright 1998, Gaussian, Inc.),
 the Gaussian(R) 94 system (copyright 1995, Gaussian, Inc.),
 the Gaussian 92(TM) system (copyright 1992, Gaussian, Inc.),
 the Gaussian 90(TM) system (copyright 1990, Gaussian, Inc.),
 the Gaussian 88(TM) system (copyright 1988, Gaussian, Inc.),
 the Gaussian 86(TM) system (copyright 1986, Carnegie Mellon
 University), and the Gaussian 82(TM) system (copyright 1983,
 Carnegie Mellon University). Gaussian is a federally registered
 trademark of Gaussian, Inc.
  
 This software contains proprietary and confidential information,
 including trade secrets, belonging to Gaussian, Inc.
  
 This software is provided under written license and may be
 used, copied, transmitted, or stored only in accord with that
 written license.
  
 The following legend is applicable only to US Government
 contracts under FAR:
  
                    RESTRICTED RIGHTS LEGEND
  
 Use, reproduction and disclosure by the US Government is
 subject to restrictions as set forth in subparagraphs (a)
 and (c) of the Commercial Computer Software - Restricted
 Rights clause in FAR 52.227-19.
  
 Gaussian, Inc.
 340 Quinnipiac St., Bldg. 40, Wallingford CT 06492
  
  
 ---------------------------------------------------------------
 Warning -- This program may not be used in any manner that
 competes with the business of Gaussian, Inc. or will provide
 assistance to any competitor of Gaussian, Inc.  The licensee
 of this program is prohibited from giving any competitor of
 Gaussian, Inc. access to this program.  By using this program,
 the user acknowledges that Gaussian, Inc. is engaged in the
 business of creating and licensing software in the field of
 computational chemistry and represents and warrants to the
 licensee that it is not a competitor of Gaussian, Inc. and that
 it will not use this program in any manner prohibited above.
 ---------------------------------------------------------------
  

 Cite this work as:
 Gaussian 09, Revision D.01,
 M. J. Frisch, G. W. Trucks, H. B. Schlegel, G. E. Scuseria, 
 M. A. Robb, J. R. Cheeseman, G. Scalmani, V. Barone, B. Mennucci, 
 G. A. Petersson, H. Nakatsuji, M. Caricato, X. Li, H. P. Hratchian, 
 A. F. Izmaylov, J. Bloino, G. Zheng, J. L. Sonnenberg, M. Hada, 
 M. Ehara, K. Toyota, R. Fukuda, J. Hasegawa, M. Ishida, T. Nakajima, 
 Y. Honda, O. Kitao, H. Nakai, T. Vreven, J. A. Montgomery, Jr., 
 J. E. Peralta, F. Ogliaro, M. Bearpark, J. J. Heyd, E. Brothers, 
 K. N. Kudin, V. N. Staroverov, T. Keith, R. Kobayashi, J. Normand, 
 K. Raghavachari, A. Rendell, J. C. Burant, S. S. Iyengar, J. Tomasi, 
 M. Cossi, N. Rega, J. M. Millam, M. Klene, J. E. Knox, J. B. Cross, 
 V. Bakken, C. Adamo, J. Jaramillo, R. Gomperts, R. E. Stratmann, 
 O. Yazyev, A. J. Austin, R. Cammi, C. Pomelli, J. W. Ochterski, 
 R. L. Martin, K. Morokuma, V. G. Zakrzewski, G. A. Voth, 
 P. Salvador, J. J. Dannenberg, S. Dapprich, A. D. Daniels, 
 O. Farkas, J. B. Foresman, J. V. Ortiz, J. Cioslowski, 
 and D. J. Fox, Gaussian, Inc., Wallingford CT, 2013.
 
 ******************************************
 Gaussian 09:  ES64L-G09RevD.01 24-Apr-2013
                19-Mar-2025 
 ******************************************
 ---------------------------------
 #m062X/6-31+G(d) OPT Freq=noraman
 ---------------------------------
 1/14=-1,18=20,19=15,26=3,38=1/1,3;
 2/9=110,12=2,17=6,18=5,40=1/2;
 3/5=1,6=6,7=11,11=2,16=1,25=1,30=1,71=1,74=-55/1,2,3;
 4//1;
 5/5=2,38=5/2;
 6/7=2,8=2,9=2,10=2,28=1/1;
 7//1,2,3,16;
 1/14=-1,18=20,19=15,26=3/3(2);
 2/9=110/2;
 99//99;
 2/9=110/2;
 3/5=1,6=6,7=11,11=2,16=1,25=1,30=1,71=1,74=-55/1,2,3;
 4/5=5,16=3,69=1/1;
 5/5=2,38=5/2;
 7//1,2,3,16;
 1/14=-1,18=20,19=15,26=3/3(-5);
 2/9=110/2;
 6/7=2,8=2,9=2,10=2,19=2,28=1/1;
 99/9=1/99;
 -----------
 bromoethane
 -----------
 Symbolic Z-matrix:
 Charge =  0 Multiplicity = 1
 C                     0.0125   -0.7247    0.821 
 C                     1.1399   -0.4427    1.7865 
 Br                    2.8461   -0.5455    0.8594 
 H                    -0.951    -0.6683    1.3371 
 H                    -0.0004    0.0004    0.0004 
 H                     0.1035   -1.7245    0.3831 
 H                     1.1722   -1.1779    2.5944 
 H                     1.0673    0.5629    2.2082 
 

 GradGradGradGradGradGradGradGradGradGradGradGradGradGradGradGradGradGrad
 Berny optimization.
 Initialization pass.
                           ----------------------------
                           !    Initial Parameters    !
                           ! (Angstroms and Degrees)  !
 --------------------------                            --------------------------
 ! Name  Definition              Value          Derivative Info.                !
 --------------------------------------------------------------------------------
 ! R1    R(1,2)                  1.5109         estimate D2E/DX2                !
 ! R2    R(1,4)                  1.0945         estimate D2E/DX2                !
 ! R3    R(1,5)                  1.0951         estimate D2E/DX2                !
 ! R4    R(1,6)                  1.0953         estimate D2E/DX2                !
 ! R5    R(2,3)                  1.9445         estimate D2E/DX2                !
 ! R6    R(2,7)                  1.0928         estimate D2E/DX2                !
 ! R7    R(2,8)                  1.0929         estimate D2E/DX2                !
 ! A1    A(2,1,4)              110.2392         estimate D2E/DX2                !
 ! A2    A(2,1,5)              111.3489         estimate D2E/DX2                !
 ! A3    A(2,1,6)              111.338          estimate D2E/DX2                !
 ! A4    A(4,1,5)              107.99           estimate D2E/DX2                !
 ! A5    A(4,1,6)              107.9815         estimate D2E/DX2                !
 ! A6    A(5,1,6)              107.8057         estimate D2E/DX2                !
 ! A7    A(1,2,3)              109.8886         estimate D2E/DX2                !
 ! A8    A(1,2,7)              111.6484         estimate D2E/DX2                !
 ! A9    A(1,2,8)              111.639          estimate D2E/DX2                !
 ! A10   A(3,2,7)              106.9159         estimate D2E/DX2                !
 ! A11   A(3,2,8)              106.9123         estimate D2E/DX2                !
 ! A12   A(7,2,8)              109.6174         estimate D2E/DX2                !
 ! D1    D(4,1,2,3)            179.9999         estimate D2E/DX2                !
 ! D2    D(4,1,2,7)             61.5433         estimate D2E/DX2                !
 ! D3    D(4,1,2,8)            -61.554          estimate D2E/DX2                !
 ! D4    D(5,1,2,3)            -60.1627         estimate D2E/DX2                !
 ! D5    D(5,1,2,7)           -178.6193         estimate D2E/DX2                !
 ! D6    D(5,1,2,8)             58.2835         estimate D2E/DX2                !
 ! D7    D(6,1,2,3)             60.1801         estimate D2E/DX2                !
 ! D8    D(6,1,2,7)            -58.2765         estimate D2E/DX2                !
 ! D9    D(6,1,2,8)            178.6263         estimate D2E/DX2                !
 --------------------------------------------------------------------------------
 Trust Radius=3.00D-01 FncErr=1.00D-07 GrdErr=1.00D-06
 Number of steps in this run=     38 maximum allowed number of steps=    100.
 GradGradGradGradGradGradGradGradGradGradGradGradGradGradGradGradGradGrad

                          Input orientation:                          
 ---------------------------------------------------------------------
 Center     Atomic      Atomic             Coordinates (Angstroms)
 Number     Number       Type             X           Y           Z
 ---------------------------------------------------------------------
      1          6           0        0.012500   -0.724700    0.821000
      2          6           0        1.139900   -0.442700    1.786500
      3         35           0        2.846100   -0.545500    0.859400
      4          1           0       -0.951000   -0.668300    1.337100
      5          1           0       -0.000400    0.000400    0.000400
      6          1           0        0.103500   -1.724500    0.383100
      7          1           0        1.172200   -1.177900    2.594400
      8          1           0        1.067300    0.562900    2.208200
 ---------------------------------------------------------------------
                    Distance matrix (angstroms):
                    1          2          3          4          5
     1  C    0.000000
     2  C    1.510876   0.000000
     3  Br   2.839520   1.944531   0.000000
     4  H    1.094474   2.150516   3.829001   0.000000
     5  H    1.095135   2.164896   3.022987   1.771318   0.000000
     6  H    1.095280   2.164871   3.023038   1.771340   1.769897
     7  H    2.166851   1.092824   2.492408   2.519618   3.080944
     8  H    2.166758   1.092855   2.492377   2.519564   2.516102
                    6          7          8
     6  H    0.000000
     7  H    2.516096   0.000000
     8  H    3.080925   1.786208   0.000000
 Stoichiometry    C2H5Br
 Framework group  C1[X(C2H5Br)]
 Deg. of freedom    18
 Full point group                 C1      NOp   1
 Largest Abelian subgroup         C1      NOp   1
 Largest concise Abelian subgroup C1      NOp   1
                         Standard orientation:                         
 ---------------------------------------------------------------------
 Center     Atomic      Atomic             Coordinates (Angstroms)
 Number     Number       Type             X           Y           Z
 ---------------------------------------------------------------------
      1          6           0       -2.037866   -0.404408   -0.000031
      2          6           0       -1.005694    0.698935    0.000013
      3         35           0        0.781558   -0.067180    0.000000
      4          1           0       -3.046435    0.020634   -0.000021
      5          1           0       -1.939624   -1.042215   -0.884831
      6          1           0       -1.939660   -1.042058    0.885066
      7          1           0       -1.083725    1.323962    0.893051
      8          1           0       -1.083733    1.323827   -0.893157
 ---------------------------------------------------------------------
 Rotational constants (GHZ):     29.6246758      3.8780971      3.5841701
 Standard basis: 6-31+G(d) (6D, 7F)
 There are    82 symmetry adapted cartesian basis functions of A   symmetry.
 There are    82 symmetry adapted basis functions of A   symmetry.
    82 basis functions,   171 primitive gaussians,    82 cartesian basis functions
    26 alpha electrons       26 beta electrons
       nuclear repulsion energy       165.0730931417 Hartrees.
 NAtoms=    8 NActive=    8 NUniq=    8 SFac= 1.00D+00 NAtFMM=   60 NAOKFM=F Big=F
 Integral buffers will be    131072 words long.
 Raffenetti 2 integral format.
 Two-electron integral symmetry is turned on.
 One-electron integrals computed using PRISM.
 NBasis=    82 RedAO= T EigKep=  2.87D-04  NBF=    82
 NBsUse=    82 1.00D-06 EigRej= -1.00D+00 NBFU=    82
 ExpMin= 3.50D-02 ExpMax= 5.74D+05 ExpMxC= 5.74D+03 IAcc=3 IRadAn=         5 AccDes= 0.00D+00
 Harris functional with IExCor= 1009 and IRadAn=       5 diagonalized for initial guess.
 HarFok:  IExCor= 1009 AccDes= 0.00D+00 IRadAn=         5 IDoV= 1 UseB2=F ITyADJ=14
 ICtDFT=  3500011 ScaDFX=  1.000000  1.000000  1.000000  1.000000
 FoFCou: FMM=F IPFlag=           0 FMFlag=      100000 FMFlg1=           0
         NFxFlg=           0 DoJE=T BraDBF=F KetDBF=T FulRan=T
         wScrn=  0.000000 ICntrl=     500 IOpCl=  0 I1Cent=   200000004 NGrid=           0
         NMat0=    1 NMatS0=      1 NMatT0=    0 NMatD0=    1 NMtDS0=    0 NMtDT0=    0
 Petite list used in FoFCou.
 Keep R1 ints in memory in canonical form, NReq=6846151.
 Requested convergence on RMS density matrix=1.00D-08 within 128 cycles.
 Requested convergence on MAX density matrix=1.00D-06.
 Requested convergence on             energy=1.00D-06.
 No special actions if energy rises.
 SCF Done:  E(RM062X) =  -2650.97015342     A.U. after   12 cycles
            NFock= 12  Conv=0.14D-08     -V/T= 2.0068

 **********************************************************************

            Population analysis using the SCF density.

 **********************************************************************

 Orbital symmetries:
       Occupied  (A) (A) (A) (A) (A) (A) (A) (A) (A) (A) (A) (A)
                 (A) (A) (A) (A) (A) (A) (A) (A) (A) (A) (A) (A)
                 (A) (A)
       Virtual   (A) (A) (A) (A) (A) (A) (A) (A) (A) (A) (A) (A)
                 (A) (A) (A) (A) (A) (A) (A) (A) (A) (A) (A) (A)
                 (A) (A) (A) (A) (A) (A) (A) (A) (A) (A) (A) (A)
                 (A) (A) (A) (A) (A) (A) (A) (A) (A) (A) (A) (A)
                 (A) (A) (A) (A) (A) (A) (A) (A)
 The electronic state is 1-A.
 Alpha  occ. eigenvalues -- -485.46259 -62.74496 -57.27796 -57.27537 -57.27532
 Alpha  occ. eigenvalues --  -10.61062 -10.55630  -8.91889  -6.87334  -6.86340
 Alpha  occ. eigenvalues --   -6.86334  -2.90187  -2.89846  -2.89841  -2.88961
 Alpha  occ. eigenvalues --   -2.88961  -0.91948  -0.81640  -0.70431  -0.54972
 Alpha  occ. eigenvalues --   -0.51588  -0.47097  -0.43993  -0.41507  -0.33339
 Alpha  occ. eigenvalues --   -0.33327
 Alpha virt. eigenvalues --    0.00817   0.02998   0.03915   0.05260   0.06301
 Alpha virt. eigenvalues --    0.07646   0.08369   0.08689   0.09304   0.09486
 Alpha virt. eigenvalues --    0.12826   0.14251   0.15860   0.22142   0.23208
 Alpha virt. eigenvalues --    0.24360   0.27069   0.32881   0.37228   0.48389
 Alpha virt. eigenvalues --    0.51618   0.51922   0.53454   0.55157   0.60124
 Alpha virt. eigenvalues --    0.64528   0.65291   0.66131   0.69037   0.70363
 Alpha virt. eigenvalues --    0.76298   0.83760   0.84730   0.95156   0.97257
 Alpha virt. eigenvalues --    1.01395   1.07054   1.12506   1.17104   1.23061
 Alpha virt. eigenvalues --    1.52878   1.57728   1.62945   1.76971   1.97762
 Alpha virt. eigenvalues --    2.00158   2.04283   2.23586   2.32730   2.37074
 Alpha virt. eigenvalues --    2.37243   2.63488   4.19189   4.39766   8.92289
 Alpha virt. eigenvalues --   77.52437
          Condensed to atoms (all electrons):
               1          2          3          4          5          6
     1  C    5.545230   0.124327  -0.131064   0.377113   0.403894   0.403900
     2  C    0.124327   5.382434   0.274833  -0.048593  -0.047086  -0.047106
     3  Br  -0.131064   0.274833  35.063432   0.011781  -0.006576  -0.006579
     4  H    0.377113  -0.048593   0.011781   0.500240  -0.025215  -0.025222
     5  H    0.403894  -0.047086  -0.006576  -0.025215   0.472809  -0.027778
     6  H    0.403900  -0.047106  -0.006579  -0.025222  -0.027778   0.472867
     7  H   -0.044027   0.389693  -0.047373  -0.001700   0.003865  -0.005233
     8  H   -0.044040   0.389701  -0.047386  -0.001702  -0.005232   0.003867
               7          8
     1  C   -0.044027  -0.044040
     2  C    0.389693   0.389701
     3  Br  -0.047373  -0.047386
     4  H   -0.001700  -0.001702
     5  H    0.003865  -0.005232
     6  H   -0.005233   0.003867
     7  H    0.493982  -0.033566
     8  H   -0.033566   0.494009
 Mulliken charges:
               1
     1  C   -0.635334
     2  C   -0.418203
     3  Br  -0.111068
     4  H    0.213297
     5  H    0.231319
     6  H    0.231283
     7  H    0.244357
     8  H    0.244349
 Sum of Mulliken charges =   0.00000
 Mulliken charges with hydrogens summed into heavy atoms:
               1
     1  C    0.040565
     2  C    0.070503
     3  Br  -0.111068
 Electronic spatial extent (au):  <R**2>=            372.3921
 Charge=              0.0000 electrons
 Dipole moment (field-independent basis, Debye):
    X=             -2.1533    Y=              0.6902    Z=              0.0000  Tot=              2.2612
 Quadrupole moment (field-independent basis, Debye-Ang):
   XX=            -30.6582   YY=            -32.0598   ZZ=            -32.6327
   XY=             -1.2879   XZ=              0.0001   YZ=              0.0004
 Traceless Quadrupole moment (field-independent basis, Debye-Ang):
   XX=              1.1254   YY=             -0.2762   ZZ=             -0.8492
   XY=             -1.2879   XZ=              0.0001   YZ=              0.0004
 Octapole moment (field-independent basis, Debye-Ang**2):
  XXX=             22.3722  YYY=             -0.2701  ZZZ=             -0.0002  XYY=              6.3128
  XXY=             -1.3344  XXZ=             -0.0004  XZZ=              6.0510  YZZ=              0.1846
  YYZ=             -0.0001  XYZ=             -0.0005
 Hexadecapole moment (field-independent basis, Debye-Ang**3):
 XXXX=           -340.0613 YYYY=            -84.9988 ZZZZ=            -52.9906 XXXY=             -8.3064
 XXXZ=              0.0009 YYYX=             -4.0415 YYYZ=              0.0022 ZZZX=              0.0003
 ZZZY=              0.0004 XXYY=            -72.4470 XXZZ=            -68.5453 YYZZ=            -20.4867
 XXYZ=              0.0012 YYXZ=              0.0005 ZZXY=             -1.0025
 N-N= 1.650730931417D+02 E-N=-6.644994878789D+03  KE= 2.632966185489D+03
 Calling FoFJK, ICntrl=      2127 FMM=F ISym2X=0 I1Cent= 0 IOpClX= 0 NMat=1 NMatS=1 NMatT=0.
 ***** Axes restored to original set *****
 -------------------------------------------------------------------
 Center     Atomic                   Forces (Hartrees/Bohr)
 Number     Number              X              Y              Z
 -------------------------------------------------------------------
      1        6          -0.004102006   -0.001461946   -0.005001185
      2        6          -0.004320050    0.000153626    0.001674685
      3       35           0.004049512    0.000470507    0.001034503
      4        1          -0.000517350    0.000347566    0.001679692
      5        1           0.000555234   -0.000310486    0.001254351
      6        1           0.000470931    0.000955759    0.001015851
      7        1           0.001818614    0.001742290   -0.001232244
      8        1           0.002045115   -0.001897315   -0.000425652
 -------------------------------------------------------------------
 Cartesian Forces:  Max     0.005001185 RMS     0.002104921

 GradGradGradGradGradGradGradGradGradGradGradGradGradGradGradGradGradGrad
 Berny optimization.
 FormGI is forming the generalized inverse of G from B-inverse, IUseBI=4.
 Internal  Forces:  Max     0.006591713 RMS     0.002042071
 Search for a local minimum.
 Step number   1 out of a maximum of   38
 All quantities printed in internal units (Hartrees-Bohrs-Radians)
 Mixed Optimization -- RFO/linear search
 Second derivative matrix not updated -- first step.
 ITU=  0
     Eigenvalues ---    0.00622   0.05641   0.05756   0.05785   0.05848
     Eigenvalues ---    0.16000   0.16000   0.16000   0.16000   0.16000
     Eigenvalues ---    0.16238   0.22295   0.31263   0.34210   0.34226
     Eigenvalues ---    0.34301   0.34485   0.34488
 RFO step:  Lambda=-5.42585744D-04 EMin= 6.22084400D-03
 Linear search not attempted -- first point.
 Iteration  1 RMS(Cart)=  0.01813415 RMS(Int)=  0.00019870
 Iteration  2 RMS(Cart)=  0.00021721 RMS(Int)=  0.00005230
 Iteration  3 RMS(Cart)=  0.00000003 RMS(Int)=  0.00005230
 Variable       Old X    -DE/DX   Delta X   Delta X   Delta X     New X
                                 (Linear)    (Quad)   (Total)
    R1        2.85514   0.00343   0.00000   0.01096   0.01096   2.86610
    R2        2.06826   0.00128   0.00000   0.00372   0.00372   2.07198
    R3        2.06951  -0.00116   0.00000  -0.00338  -0.00338   2.06612
    R4        2.06978  -0.00125   0.00000  -0.00364  -0.00364   2.06614
    R5        3.67463   0.00305   0.00000   0.01871   0.01871   3.69334
    R6        2.06514  -0.00203   0.00000  -0.00589  -0.00589   2.05925
    R7        2.06520  -0.00205   0.00000  -0.00594  -0.00594   2.05926
    A1        1.92404  -0.00159   0.00000  -0.01103  -0.01107   1.91297
    A2        1.94340  -0.00061   0.00000  -0.00328  -0.00329   1.94011
    A3        1.94322  -0.00059   0.00000  -0.00309  -0.00310   1.94012
    A4        1.88478   0.00103   0.00000   0.00533   0.00530   1.89008
    A5        1.88463   0.00103   0.00000   0.00541   0.00538   1.89002
    A6        1.88156   0.00088   0.00000   0.00754   0.00755   1.88911
    A7        1.91792   0.00659   0.00000   0.02892   0.02878   1.94670
    A8        1.94863   0.00099   0.00000   0.00826   0.00818   1.95681
    A9        1.94847   0.00102   0.00000   0.00844   0.00836   1.95683
   A10        1.86603  -0.00381   0.00000  -0.01983  -0.01996   1.84607
   A11        1.86597  -0.00381   0.00000  -0.01977  -0.01990   1.84607
   A12        1.91318  -0.00137   0.00000  -0.00833  -0.00836   1.90483
    D1        3.14159   0.00000   0.00000  -0.00001  -0.00001   3.14158
    D2        1.07413  -0.00015   0.00000   0.00078   0.00075   1.07489
    D3       -1.07432   0.00016   0.00000  -0.00061  -0.00058  -1.07490
    D4       -1.05004  -0.00016   0.00000  -0.00275  -0.00274  -1.05278
    D5       -3.11749  -0.00031   0.00000  -0.00196  -0.00198  -3.11948
    D6        1.01724   0.00001   0.00000  -0.00335  -0.00332   1.01392
    D7        1.05034   0.00014   0.00000   0.00251   0.00250   1.05284
    D8       -1.01712  -0.00001   0.00000   0.00330   0.00326  -1.01386
    D9        3.11762   0.00030   0.00000   0.00191   0.00193   3.11954
         Item               Value     Threshold  Converged?
 Maximum Force            0.006592     0.000450     NO 
 RMS     Force            0.002042     0.000300     NO 
 Maximum Displacement     0.053209     0.001800     NO 
 RMS     Displacement     0.018234     0.001200     NO 
 Predicted change in Energy=-2.723426D-04
 GradGradGradGradGradGradGradGradGradGradGradGradGradGradGradGradGradGrad

                          Input orientation:                          
 ---------------------------------------------------------------------
 Center     Atomic      Atomic             Coordinates (Angstroms)
 Number     Number       Type             X           Y           Z
 ---------------------------------------------------------------------
      1          6           0        0.000990   -0.727014    0.813995
      2          6           0        1.137677   -0.444758    1.777621
      3         35           0        2.874257   -0.537984    0.885763
      4          1           0       -0.955856   -0.666659    1.345964
      5          1           0       -0.013884   -0.000099   -0.002569
      6          1           0        0.090113   -1.726801    0.380517
      7          1           0        1.180531   -1.173839    2.586365
      8          1           0        1.076272    0.556855    2.202444
 ---------------------------------------------------------------------
                    Distance matrix (angstroms):
                    1          2          3          4          5
     1  C    0.000000
     2  C    1.516675   0.000000
     3  Br   2.880373   1.954434   0.000000
     4  H    1.096444   2.149058   3.859807   0.000000
     5  H    1.093345   2.166309   3.069171   1.774869   0.000000
     6  H    1.093353   2.166316   3.069205   1.774835   1.771743
     7  H    2.175377   1.089707   2.482955   2.521899   3.083322
     8  H    2.175395   1.089713   2.482956   2.521922   2.522047
                    6          7          8
     6  H    0.000000
     7  H    2.522011   0.000000
     8  H    3.083344   1.775829   0.000000
 Stoichiometry    C2H5Br
 Framework group  C1[X(C2H5Br)]
 Deg. of freedom    18
 Full point group                 C1      NOp   1
 Largest Abelian subgroup         C1      NOp   1
 Largest concise Abelian subgroup C1      NOp   1
                         Standard orientation:                         
 ---------------------------------------------------------------------
 Center     Atomic      Atomic             Coordinates (Angstroms)
 Number     Number       Type             X           Y           Z
 ---------------------------------------------------------------------
      1          6           0       -2.070741   -0.398053   -0.000007
      2          6           0       -1.011913    0.687850   -0.000001
      3         35           0        0.790613   -0.067604    0.000000
      4          1           0       -3.067096    0.059620    0.000003
      5          1           0       -1.984794   -1.033094   -0.885862
      6          1           0       -1.984835   -1.033069    0.885881
      7          1           0       -1.069415    1.316940    0.887918
      8          1           0       -1.069401    1.316964   -0.887911
 ---------------------------------------------------------------------
 Rotational constants (GHZ):     30.2062534      3.7836495      3.5105942
 Standard basis: 6-31+G(d) (6D, 7F)
 There are    82 symmetry adapted cartesian basis functions of A   symmetry.
 There are    82 symmetry adapted basis functions of A   symmetry.
    82 basis functions,   171 primitive gaussians,    82 cartesian basis functions
    26 alpha electrons       26 beta electrons
       nuclear repulsion energy       164.0212057000 Hartrees.
 NAtoms=    8 NActive=    8 NUniq=    8 SFac= 1.00D+00 NAtFMM=   60 NAOKFM=F Big=F
 Integral buffers will be    131072 words long.
 Raffenetti 2 integral format.
 Two-electron integral symmetry is turned on.
 One-electron integrals computed using PRISM.
 NBasis=    82 RedAO= T EigKep=  2.92D-04  NBF=    82
 NBsUse=    82 1.00D-06 EigRej= -1.00D+00 NBFU=    82
 Initial guess from the checkpoint file:  "/srv/scratch/z5358697/gauss/Gau-3515397.chk"
 B after Tr=     0.000000    0.000000    0.000000
         Rot=    0.999998   -0.000020    0.000000    0.001982 Ang=  -0.23 deg.
 ExpMin= 3.50D-02 ExpMax= 5.74D+05 ExpMxC= 5.74D+03 IAcc=3 IRadAn=         5 AccDes= 0.00D+00
 Harris functional with IExCor= 1009 and IRadAn=       5 diagonalized for initial guess.
 HarFok:  IExCor= 1009 AccDes= 0.00D+00 IRadAn=         5 IDoV= 1 UseB2=F ITyADJ=14
 ICtDFT=  3500011 ScaDFX=  1.000000  1.000000  1.000000  1.000000
 FoFCou: FMM=F IPFlag=           0 FMFlag=      100000 FMFlg1=           0
         NFxFlg=           0 DoJE=T BraDBF=F KetDBF=T FulRan=T
         wScrn=  0.000000 ICntrl=     500 IOpCl=  0 I1Cent=   200000004 NGrid=           0
         NMat0=    1 NMatS0=      1 NMatT0=    0 NMatD0=    1 NMtDS0=    0 NMtDT0=    0
 Petite list used in FoFCou.
 Keep R1 ints in memory in canonical form, NReq=6846053.
 Requested convergence on RMS density matrix=1.00D-08 within 128 cycles.
 Requested convergence on MAX density matrix=1.00D-06.
 Requested convergence on             energy=1.00D-06.
 No special actions if energy rises.
 SCF Done:  E(RM062X) =  -2650.97042150     A.U. after   10 cycles
            NFock= 10  Conv=0.30D-08     -V/T= 2.0068
 Calling FoFJK, ICntrl=      2127 FMM=F ISym2X=0 I1Cent= 0 IOpClX= 0 NMat=1 NMatS=1 NMatT=0.
 ***** Axes restored to original set *****
 -------------------------------------------------------------------
 Center     Atomic                   Forces (Hartrees/Bohr)
 Number     Number              X              Y              Z
 -------------------------------------------------------------------
      1        6           0.000419841   -0.000146303   -0.000742032
      2        6          -0.002008436   -0.000146103   -0.000119532
      3       35          -0.000175455    0.000036925    0.000214553
      4        1           0.000564166    0.000149630    0.000505993
      5        1           0.000226223    0.000094066    0.000281370
      6        1           0.000232017    0.000065139    0.000289484
      7        1           0.000380718   -0.000180551   -0.000179183
      8        1           0.000360926    0.000127197   -0.000250651
 -------------------------------------------------------------------
 Cartesian Forces:  Max     0.002008436 RMS     0.000507962

 GradGradGradGradGradGradGradGradGradGradGradGradGradGradGradGradGradGrad
 Berny optimization.
 Using GEDIIS/GDIIS optimizer.
 FormGI is forming the generalized inverse of G from B-inverse, IUseBI=4.
 Internal  Forces:  Max     0.001332615 RMS     0.000393489
 Search for a local minimum.
 Step number   2 out of a maximum of   38
 All quantities printed in internal units (Hartrees-Bohrs-Radians)
 Mixed Optimization -- En-DIIS/RFO-DIIS
 Update second derivatives using D2CorX and points    1    2
 DE= -2.68D-04 DEPred=-2.72D-04 R= 9.84D-01
 TightC=F SS=  1.41D+00  RLast= 5.21D-02 DXNew= 5.0454D-01 1.5615D-01
 Trust test= 9.84D-01 RLast= 5.21D-02 DXMaxT set to 3.00D-01
 ITU=  1  0
 Use linear search instead of GDIIS.
     Eigenvalues ---    0.00622   0.05508   0.05649   0.05683   0.05844
     Eigenvalues ---    0.13961   0.16000   0.16000   0.16000   0.16084
     Eigenvalues ---    0.16760   0.22545   0.33158   0.34135   0.34219
     Eigenvalues ---    0.34357   0.34487   0.35452
 RFO step:  Lambda=-2.85396202D-05 EMin= 6.22084377D-03
 Quartic linear search produced a step of  0.04019.
 Iteration  1 RMS(Cart)=  0.00302899 RMS(Int)=  0.00001182
 Iteration  2 RMS(Cart)=  0.00000994 RMS(Int)=  0.00000707
 Iteration  3 RMS(Cart)=  0.00000000 RMS(Int)=  0.00000707
 Variable       Old X    -DE/DX   Delta X   Delta X   Delta X     New X
                                 (Linear)    (Quad)   (Total)
    R1        2.86610  -0.00133   0.00044  -0.00426  -0.00382   2.86228
    R2        2.07198  -0.00022   0.00015  -0.00062  -0.00047   2.07150
    R3        2.06612  -0.00016  -0.00014  -0.00053  -0.00067   2.06545
    R4        2.06614  -0.00016  -0.00015  -0.00055  -0.00070   2.06544
    R5        3.69334  -0.00024   0.00075  -0.00120  -0.00044   3.69290
    R6        2.05925   0.00000  -0.00024  -0.00010  -0.00033   2.05891
    R7        2.05926  -0.00001  -0.00024  -0.00011  -0.00035   2.05891
    A1        1.91297  -0.00102  -0.00044  -0.00765  -0.00811   1.90486
    A2        1.94011  -0.00019  -0.00013  -0.00089  -0.00103   1.93908
    A3        1.94012  -0.00020  -0.00012  -0.00090  -0.00103   1.93909
    A4        1.89008   0.00054   0.00021   0.00280   0.00300   1.89308
    A5        1.89002   0.00055   0.00022   0.00285   0.00306   1.89307
    A6        1.88911   0.00037   0.00030   0.00412   0.00442   1.89354
    A7        1.94670  -0.00002   0.00116  -0.00078   0.00037   1.94707
    A8        1.95681   0.00022   0.00033   0.00237   0.00268   1.95949
    A9        1.95683   0.00022   0.00034   0.00235   0.00267   1.95950
   A10        1.84607  -0.00027  -0.00080  -0.00383  -0.00463   1.84144
   A11        1.84607  -0.00027  -0.00080  -0.00382  -0.00462   1.84145
   A12        1.90483   0.00005  -0.00034   0.00310   0.00274   1.90757
    D1        3.14158   0.00000   0.00000   0.00001   0.00001   3.14159
    D2        1.07489   0.00020   0.00003   0.00381   0.00385   1.07874
    D3       -1.07490  -0.00020  -0.00002  -0.00380  -0.00383  -1.07873
    D4       -1.05278  -0.00011  -0.00011  -0.00203  -0.00214  -1.05492
    D5       -3.11948   0.00010  -0.00008   0.00177   0.00170  -3.11778
    D6        1.01392  -0.00031  -0.00013  -0.00584  -0.00597   1.00795
    D7        1.05284   0.00010   0.00010   0.00198   0.00208   1.05492
    D8       -1.01386   0.00031   0.00013   0.00579   0.00592  -1.00794
    D9        3.11954  -0.00010   0.00008  -0.00183  -0.00176   3.11779
         Item               Value     Threshold  Converged?
 Maximum Force            0.001333     0.000450     NO 
 RMS     Force            0.000393     0.000300     NO 
 Maximum Displacement     0.007437     0.001800     NO 
 RMS     Displacement     0.003034     0.001200     NO 
 Predicted change in Energy=-1.427490D-05
 GradGradGradGradGradGradGradGradGradGradGradGradGradGradGradGradGradGrad

                          Input orientation:                          
 ---------------------------------------------------------------------
 Center     Atomic      Atomic             Coordinates (Angstroms)
 Number     Number       Type             X           Y           Z
 ---------------------------------------------------------------------
      1          6           0        0.000914   -0.727422    0.812218
      2          6           0        1.134274   -0.445194    1.776591
      3         35           0        2.872580   -0.537483    0.888522
      4          1           0       -0.952350   -0.665570    1.349900
      5          1           0       -0.013215    0.001132   -0.002422
      6          1           0        0.090942   -1.727759    0.381134
      7          1           0        1.180653   -1.175047    2.584204
      8          1           0        1.076301    0.557042    2.199952
 ---------------------------------------------------------------------
                    Distance matrix (angstroms):
                    1          2          3          4          5
     1  C    0.000000
     2  C    1.514653   0.000000
     3  Br   2.878952   1.954198   0.000000
     4  H    1.096193   2.141175   3.854785   0.000000
     5  H    1.092990   2.163521   3.067849   1.776299   0.000000
     6  H    1.092984   2.163519   3.067852   1.776291   1.773986
     7  H    2.175336   1.089530   2.478799   2.516501   3.082102
     8  H    2.175341   1.089528   2.478800   2.516504   2.519232
                    6          7          8
     6  H    0.000000
     7  H    2.519222   0.000000
     8  H    3.082101   1.777265   0.000000
 Stoichiometry    C2H5Br
 Framework group  C1[X(C2H5Br)]
 Deg. of freedom    18
 Full point group                 C1      NOp   1
 Largest Abelian subgroup         C1      NOp   1
 Largest concise Abelian subgroup C1      NOp   1
                         Standard orientation:                         
 ---------------------------------------------------------------------
 Center     Atomic      Atomic             Coordinates (Angstroms)
 Number     Number       Type             X           Y           Z
 ---------------------------------------------------------------------
      1          6           0       -2.069662   -0.398565    0.000000
      2          6           0       -1.012769    0.686401   -0.000002
      3         35           0        0.790183   -0.067425    0.000000
      4          1           0       -3.062271    0.066585    0.000000
      5          1           0       -1.983918   -1.031428   -0.886994
      6          1           0       -1.983923   -1.031423    0.886991
      7          1           0       -1.065859    1.314560    0.888635
      8          1           0       -1.065857    1.314567   -0.888630
 ---------------------------------------------------------------------
 Rotational constants (GHZ):     30.2654208      3.7872602      3.5148232
 Standard basis: 6-31+G(d) (6D, 7F)
 There are    82 symmetry adapted cartesian basis functions of A   symmetry.
 There are    82 symmetry adapted basis functions of A   symmetry.
    82 basis functions,   171 primitive gaussians,    82 cartesian basis functions
    26 alpha electrons       26 beta electrons
       nuclear repulsion energy       164.1136383592 Hartrees.
 NAtoms=    8 NActive=    8 NUniq=    8 SFac= 1.00D+00 NAtFMM=   60 NAOKFM=F Big=F
 Integral buffers will be    131072 words long.
 Raffenetti 2 integral format.
 Two-electron integral symmetry is turned on.
 One-electron integrals computed using PRISM.
 NBasis=    82 RedAO= T EigKep=  2.90D-04  NBF=    82
 NBsUse=    82 1.00D-06 EigRej= -1.00D+00 NBFU=    82
 Initial guess from the checkpoint file:  "/srv/scratch/z5358697/gauss/Gau-3515397.chk"
 B after Tr=     0.000000    0.000000    0.000000
         Rot=    1.000000    0.000000   -0.000001    0.000033 Ang=   0.00 deg.
 Keep R1 ints in memory in canonical form, NReq=6846053.
 Requested convergence on RMS density matrix=1.00D-08 within 128 cycles.
 Requested convergence on MAX density matrix=1.00D-06.
 Requested convergence on             energy=1.00D-06.
 No special actions if energy rises.
 SCF Done:  E(RM062X) =  -2650.97043410     A.U. after    9 cycles
            NFock=  9  Conv=0.32D-08     -V/T= 2.0068
 Calling FoFJK, ICntrl=      2127 FMM=F ISym2X=0 I1Cent= 0 IOpClX= 0 NMat=1 NMatS=1 NMatT=0.
 ***** Axes restored to original set *****
 -------------------------------------------------------------------
 Center     Atomic                   Forces (Hartrees/Bohr)
 Number     Number              X              Y              Z
 -------------------------------------------------------------------
      1        6           0.000115914    0.000019952    0.000040418
      2        6          -0.000214604    0.000018533    0.000152359
      3       35           0.000345110   -0.000021150   -0.000189657
      4        1          -0.000032167   -0.000020334   -0.000084533
      5        1          -0.000006216   -0.000008778    0.000008667
      6        1          -0.000006305    0.000006930    0.000002648
      7        1          -0.000096566   -0.000066329    0.000050154
      8        1          -0.000105166    0.000071176    0.000019943
 -------------------------------------------------------------------
 Cartesian Forces:  Max     0.000345110 RMS     0.000108444

 GradGradGradGradGradGradGradGradGradGradGradGradGradGradGradGradGradGrad
 Berny optimization.
 Using GEDIIS/GDIIS optimizer.
 FormGI is forming the generalized inverse of G from B-inverse, IUseBI=4.
 Internal  Forces:  Max     0.000408125 RMS     0.000091042
 Search for a local minimum.
 Step number   3 out of a maximum of   38
 All quantities printed in internal units (Hartrees-Bohrs-Radians)
 Mixed Optimization -- En-DIIS/RFO-DIIS
 Swapping is turned off.
 Update second derivatives using D2CorX and points    1    2    3
 DE= -1.26D-05 DEPred=-1.43D-05 R= 8.82D-01
 TightC=F SS=  1.41D+00  RLast= 1.74D-02 DXNew= 5.0454D-01 5.2126D-02
 Trust test= 8.82D-01 RLast= 1.74D-02 DXMaxT set to 3.00D-01
 ITU=  1  1  0
     Eigenvalues ---    0.00622   0.05349   0.05648   0.05702   0.05902
     Eigenvalues ---    0.13156   0.16000   0.16000   0.16001   0.16214
     Eigenvalues ---    0.19041   0.22630   0.33144   0.34112   0.34218
     Eigenvalues ---    0.34474   0.34487   0.35242
 En-DIIS/RFO-DIIS IScMMF=        0 using points:     3    2
 RFO step:  Lambda=-5.29329271D-07.
 DidBck=F Rises=F RFO-DIIS coefs:    0.92678    0.07322
 Iteration  1 RMS(Cart)=  0.00052804 RMS(Int)=  0.00000046
 Iteration  2 RMS(Cart)=  0.00000014 RMS(Int)=  0.00000045
 Variable       Old X    -DE/DX   Delta X   Delta X   Delta X     New X
                                 (Linear)    (Quad)   (Total)
    R1        2.86228  -0.00004   0.00028  -0.00053  -0.00025   2.86203
    R2        2.07150   0.00000   0.00003  -0.00005  -0.00002   2.07148
    R3        2.06545  -0.00002   0.00005  -0.00012  -0.00007   2.06538
    R4        2.06544  -0.00002   0.00005  -0.00011  -0.00006   2.06538
    R5        3.69290   0.00041   0.00003   0.00224   0.00227   3.69517
    R6        2.05891   0.00007   0.00002   0.00017   0.00019   2.05911
    R7        2.05891   0.00007   0.00003   0.00017   0.00020   2.05911
    A1        1.90486   0.00008   0.00059  -0.00037   0.00022   1.90508
    A2        1.93908   0.00001   0.00008  -0.00003   0.00004   1.93913
    A3        1.93909   0.00001   0.00008  -0.00004   0.00004   1.93912
    A4        1.89308  -0.00005  -0.00022  -0.00001  -0.00022   1.89285
    A5        1.89307  -0.00005  -0.00022   0.00000  -0.00022   1.89286
    A6        1.89354   0.00000  -0.00032   0.00045   0.00013   1.89367
    A7        1.94707  -0.00010  -0.00003  -0.00036  -0.00039   1.94668
    A8        1.95949  -0.00007  -0.00020  -0.00019  -0.00038   1.95911
    A9        1.95950  -0.00007  -0.00020  -0.00020  -0.00039   1.95911
   A10        1.84144   0.00010   0.00034   0.00015   0.00048   1.84193
   A11        1.84145   0.00010   0.00034   0.00014   0.00048   1.84193
   A12        1.90757   0.00006  -0.00020   0.00051   0.00031   1.90788
    D1        3.14159   0.00000   0.00000   0.00000   0.00000  -3.14159
    D2        1.07874  -0.00001  -0.00028   0.00019  -0.00009   1.07864
    D3       -1.07873   0.00001   0.00028  -0.00019   0.00009  -1.07864
    D4       -1.05492   0.00000   0.00016  -0.00026  -0.00011  -1.05503
    D5       -3.11778  -0.00001  -0.00012  -0.00008  -0.00020  -3.11798
    D6        1.00795   0.00001   0.00044  -0.00046  -0.00002   1.00793
    D7        1.05492   0.00000  -0.00015   0.00026   0.00011   1.05503
    D8       -1.00794  -0.00001  -0.00043   0.00045   0.00002  -1.00792
    D9        3.11779   0.00001   0.00013   0.00007   0.00020   3.11798
         Item               Value     Threshold  Converged?
 Maximum Force            0.000408     0.000450     YES
 RMS     Force            0.000091     0.000300     YES
 Maximum Displacement     0.001594     0.001800     YES
 RMS     Displacement     0.000528     0.001200     YES
 Predicted change in Energy=-6.085056D-07
 Optimization completed.
    -- Stationary point found.
                           ----------------------------
                           !   Optimized Parameters   !
                           ! (Angstroms and Degrees)  !
 --------------------------                            --------------------------
 ! Name  Definition              Value          Derivative Info.                !
 --------------------------------------------------------------------------------
 ! R1    R(1,2)                  1.5147         -DE/DX =    0.0                 !
 ! R2    R(1,4)                  1.0962         -DE/DX =    0.0                 !
 ! R3    R(1,5)                  1.093          -DE/DX =    0.0                 !
 ! R4    R(1,6)                  1.093          -DE/DX =    0.0                 !
 ! R5    R(2,3)                  1.9542         -DE/DX =    0.0004              !
 ! R6    R(2,7)                  1.0895         -DE/DX =    0.0001              !
 ! R7    R(2,8)                  1.0895         -DE/DX =    0.0001              !
 ! A1    A(2,1,4)              109.1406         -DE/DX =    0.0001              !
 ! A2    A(2,1,5)              111.1014         -DE/DX =    0.0                 !
 ! A3    A(2,1,6)              111.1016         -DE/DX =    0.0                 !
 ! A4    A(4,1,5)              108.4655         -DE/DX =    0.0                 !
 ! A5    A(4,1,6)              108.4652         -DE/DX =    0.0                 !
 ! A6    A(5,1,6)              108.4916         -DE/DX =    0.0                 !
 ! A7    A(1,2,3)              111.5589         -DE/DX =   -0.0001              !
 ! A8    A(1,2,7)              112.2707         -DE/DX =   -0.0001              !
 ! A9    A(1,2,8)              112.2712         -DE/DX =   -0.0001              !
 ! A10   A(3,2,7)              105.5069         -DE/DX =    0.0001              !
 ! A11   A(3,2,8)              105.507          -DE/DX =    0.0001              !
 ! A12   A(7,2,8)              109.2957         -DE/DX =    0.0001              !
 ! D1    D(4,1,2,3)           -180.0            -DE/DX =    0.0                 !
 ! D2    D(4,1,2,7)             61.807          -DE/DX =    0.0                 !
 ! D3    D(4,1,2,8)            -61.8065         -DE/DX =    0.0                 !
 ! D4    D(5,1,2,3)            -60.4424         -DE/DX =    0.0                 !
 ! D5    D(5,1,2,7)           -178.6354         -DE/DX =    0.0                 !
 ! D6    D(5,1,2,8)             57.7512         -DE/DX =    0.0                 !
 ! D7    D(6,1,2,3)             60.4425         -DE/DX =    0.0                 !
 ! D8    D(6,1,2,7)            -57.7505         -DE/DX =    0.0                 !
 ! D9    D(6,1,2,8)            178.636          -DE/DX =    0.0                 !
 --------------------------------------------------------------------------------
 GradGradGradGradGradGradGradGradGradGradGradGradGradGradGradGradGradGrad

                          Input orientation:                          
 ---------------------------------------------------------------------
 Center     Atomic      Atomic             Coordinates (Angstroms)
 Number     Number       Type             X           Y           Z
 ---------------------------------------------------------------------
      1          6           0        0.000914   -0.727422    0.812218
      2          6           0        1.134274   -0.445194    1.776591
      3         35           0        2.872580   -0.537483    0.888522
      4          1           0       -0.952350   -0.665570    1.349900
      5          1           0       -0.013215    0.001132   -0.002422
      6          1           0        0.090942   -1.727759    0.381134
      7          1           0        1.180653   -1.175047    2.584204
      8          1           0        1.076301    0.557042    2.199952
 ---------------------------------------------------------------------
                    Distance matrix (angstroms):
                    1          2          3          4          5
     1  C    0.000000
     2  C    1.514653   0.000000
     3  Br   2.878952   1.954198   0.000000
     4  H    1.096193   2.141175   3.854785   0.000000
     5  H    1.092990   2.163521   3.067849   1.776299   0.000000
     6  H    1.092984   2.163519   3.067852   1.776291   1.773986
     7  H    2.175336   1.089530   2.478799   2.516501   3.082102
     8  H    2.175341   1.089528   2.478800   2.516504   2.519232
                    6          7          8
     6  H    0.000000
     7  H    2.519222   0.000000
     8  H    3.082101   1.777265   0.000000
 Stoichiometry    C2H5Br
 Framework group  C1[X(C2H5Br)]
 Deg. of freedom    18
 Full point group                 C1      NOp   1
 Largest Abelian subgroup         C1      NOp   1
 Largest concise Abelian subgroup C1      NOp   1
                         Standard orientation:                         
 ---------------------------------------------------------------------
 Center     Atomic      Atomic             Coordinates (Angstroms)
 Number     Number       Type             X           Y           Z
 ---------------------------------------------------------------------
      1          6           0       -2.069662   -0.398565    0.000000
      2          6           0       -1.012769    0.686401   -0.000002
      3         35           0        0.790183   -0.067425    0.000000
      4          1           0       -3.062271    0.066585    0.000000
      5          1           0       -1.983918   -1.031428   -0.886994
      6          1           0       -1.983923   -1.031423    0.886991
      7          1           0       -1.065859    1.314560    0.888635
      8          1           0       -1.065857    1.314567   -0.888630
 ---------------------------------------------------------------------
 Rotational constants (GHZ):     30.2654208      3.7872602      3.5148232

 **********************************************************************

            Population analysis using the SCF density.

 **********************************************************************

 Orbital symmetries:
       Occupied  (A) (A) (A) (A) (A) (A) (A) (A) (A) (A) (A) (A)
                 (A) (A) (A) (A) (A) (A) (A) (A) (A) (A) (A) (A)
                 (A) (A)
       Virtual   (A) (A) (A) (A) (A) (A) (A) (A) (A) (A) (A) (A)
                 (A) (A) (A) (A) (A) (A) (A) (A) (A) (A) (A) (A)
                 (A) (A) (A) (A) (A) (A) (A) (A) (A) (A) (A) (A)
                 (A) (A) (A) (A) (A) (A) (A) (A) (A) (A) (A) (A)
                 (A) (A) (A) (A) (A) (A) (A) (A)
 The electronic state is 1-A.
 Alpha  occ. eigenvalues -- -485.46188 -62.74424 -57.27723 -57.27466 -57.27460
 Alpha  occ. eigenvalues --  -10.61073 -10.55770  -8.91810  -6.87251  -6.86265
 Alpha  occ. eigenvalues --   -6.86255  -2.90104  -2.89767  -2.89759  -2.88886
 Alpha  occ. eigenvalues --   -2.88886  -0.91748  -0.81717  -0.70495  -0.54999
 Alpha  occ. eigenvalues --   -0.51490  -0.47207  -0.44244  -0.41363  -0.33333
 Alpha  occ. eigenvalues --   -0.33240
 Alpha virt. eigenvalues --    0.00792   0.02948   0.03932   0.05261   0.06219
 Alpha virt. eigenvalues --    0.07627   0.08362   0.08756   0.09298   0.09533
 Alpha virt. eigenvalues --    0.12726   0.14236   0.15826   0.22160   0.22951
 Alpha virt. eigenvalues --    0.24439   0.27080   0.32800   0.37072   0.48489
 Alpha virt. eigenvalues --    0.51592   0.51878   0.53508   0.55200   0.60087
 Alpha virt. eigenvalues --    0.64516   0.65301   0.66194   0.69159   0.70086
 Alpha virt. eigenvalues --    0.76171   0.83219   0.84165   0.94618   0.97464
 Alpha virt. eigenvalues --    1.01420   1.07084   1.12754   1.16938   1.22275
 Alpha virt. eigenvalues --    1.52652   1.57851   1.63334   1.77067   1.97302
 Alpha virt. eigenvalues --    1.99603   2.04021   2.24087   2.32913   2.36190
 Alpha virt. eigenvalues --    2.37819   2.63223   4.18983   4.39745   8.92362
 Alpha virt. eigenvalues --   77.52347
          Condensed to atoms (all electrons):
               1          2          3          4          5          6
     1  C    5.531515   0.123528  -0.122816   0.378000   0.403499   0.403499
     2  C    0.123528   5.386423   0.273606  -0.048389  -0.047394  -0.047394
     3  Br  -0.122816   0.273606  35.063329   0.010774  -0.005630  -0.005630
     4  H    0.378000  -0.048389   0.010774   0.499314  -0.024912  -0.024913
     5  H    0.403499  -0.047394  -0.005630  -0.024912   0.471099  -0.027048
     6  H    0.403499  -0.047394  -0.005630  -0.024913  -0.027048   0.471098
     7  H   -0.043494   0.390446  -0.048756  -0.001816   0.003825  -0.005107
     8  H   -0.043493   0.390446  -0.048756  -0.001816  -0.005107   0.003825
               7          8
     1  C   -0.043494  -0.043493
     2  C    0.390446   0.390446
     3  Br  -0.048756  -0.048756
     4  H   -0.001816  -0.001816
     5  H    0.003825  -0.005107
     6  H   -0.005107   0.003825
     7  H    0.493534  -0.033901
     8  H   -0.033901   0.493533
 Mulliken charges:
               1
     1  C   -0.630237
     2  C   -0.421272
     3  Br  -0.116121
     4  H    0.213758
     5  H    0.231667
     6  H    0.231669
     7  H    0.245268
     8  H    0.245269
 Sum of Mulliken charges =   0.00000
 Mulliken charges with hydrogens summed into heavy atoms:
               1
     1  C    0.046856
     2  C    0.069265
     3  Br  -0.116121
 Electronic spatial extent (au):  <R**2>=            377.6345
 Charge=              0.0000 electrons
 Dipole moment (field-independent basis, Debye):
    X=             -2.2072    Y=              0.7080    Z=              0.0000  Tot=              2.3179
 Quadrupole moment (field-independent basis, Debye-Ang):
   XX=            -30.5661   YY=            -32.0856   ZZ=            -32.6336
   XY=             -1.2355   XZ=              0.0000   YZ=              0.0000
 Traceless Quadrupole moment (field-independent basis, Debye-Ang):
   XX=              1.1957   YY=             -0.3238   ZZ=             -0.8719
   XY=             -1.2355   XZ=              0.0000   YZ=              0.0000
 Octapole moment (field-independent basis, Debye-Ang**2):
  XXX=             22.4085  YYY=             -0.2354  ZZZ=              0.0000  XYY=              6.3579
  XXY=             -1.2644  XXZ=              0.0001  XZZ=              6.0743  YZZ=              0.1504
  YYZ=              0.0000  XYZ=              0.0000
 Hexadecapole moment (field-independent basis, Debye-Ang**3):
 XXXX=           -346.9825 YYYY=            -83.9164 ZZZZ=            -52.9326 XXXY=             -8.5862
 XXXZ=             -0.0002 YYYX=             -3.8858 YYYZ=             -0.0001 ZZZX=              0.0000
 ZZZY=              0.0000 XXYY=            -73.5645 XXZZ=            -69.7361 YYZZ=            -20.3234
 XXYZ=             -0.0001 YYXZ=              0.0000 ZZXY=             -0.8120
 N-N= 1.641136383592D+02 E-N=-6.643089052025D+03  KE= 2.632959227792D+03
 1\1\GINC-KATANA3\FOpt\RM062X\6-31+G(d)\C2H5Br1\Z5358697\19-Mar-2025\0\
 \#m062X/6-31+G(d) OPT Freq=noraman\\bromoethane\\0,1\C,0.0009139736,-0
 .7274215241,0.8122180875\C,1.1342742108,-0.4451937629,1.7765909849\Br,
 2.8725801468,-0.5374825437,0.8885223172\H,-0.9523497468,-0.6655697625,
 1.3498999663\H,-0.0132145754,0.0011316852,-0.00242179\H,0.0909416554,-
 1.7277586765,0.3811339084\H,1.1806529587,-1.1750470268,2.584204375\H,1
 .0763013769,0.5570416113,2.1999521507\\Version=ES64L-G09RevD.01\State=
 1-A\HF=-2650.9704341\RMSD=3.191e-09\RMSF=1.084e-04\Dipole=-0.8435549,0
 .0258337,0.3455421\Quadrupole=0.7403273,-0.6424266,-0.0979007,-0.13489
 62,-0.9852134,0.0627374\PG=C01 [X(C2H5Br1)]\\@


 AND THIS OUR LIFE, EXEMPT FROM PUBLIC HAUNT,
 FINDS TONGUES IN TREES, BOOKS IN THE RUNNING BROOKS,
 SERMONS IN STONES, AND GOOD IN EVERYTHING.
 I WOULD NOT CHANGE IT. -- W. SHAKESPEARE
 AS YOU LIKE IT, ACT II, SCENE 1.
 Job cpu time:       0 days  0 hours  0 minutes 29.5 seconds.
 File lengths (MBytes):  RWF=    132 Int=      0 D2E=      0 Chk=      2 Scr=      2
 Normal termination of Gaussian 09 at Wed Mar 19 12:19:44 2025.
 Link1:  Proceeding to internal job step number  2.
 ---------------------------------------------------------------------
 #N Geom=AllCheck Guess=TCheck SCRF=Check GenChk RM062X/6-31+G(d) Freq
 ---------------------------------------------------------------------
 1/10=4,29=7,30=1,38=1,40=1/1,3;
 2/12=2,40=1/2;
 3/5=1,6=6,7=11,11=2,14=-4,16=1,25=1,30=1,70=2,71=2,74=-55,116=1,140=1/1,2,3;
 4/5=101/1;
 5/5=2,98=1/2;
 8/6=4,10=90,11=11/1;
 11/6=1,8=1,9=11,15=111,16=1/1,2,10;
 10/6=1/2;
 6/7=2,8=2,9=2,10=2,18=1,28=1/1;
 7/8=1,10=1,25=1/1,2,3,16;
 1/10=4,30=1/3;
 99//99;
 Structure from the checkpoint file:  "/srv/scratch/z5358697/gauss/Gau-3515397.chk"
 -----------
 bromoethane
 -----------
 Charge =  0 Multiplicity = 1
 Redundant internal coordinates found in file.
 C,0,0.0009139736,-0.7274215241,0.8122180875
 C,0,1.1342742108,-0.4451937629,1.7765909849
 Br,0,2.8725801468,-0.5374825437,0.8885223172
 H,0,-0.9523497468,-0.6655697625,1.3498999663
 H,0,-0.0132145754,0.0011316852,-0.00242179
 H,0,0.0909416554,-1.7277586765,0.3811339084
 H,0,1.1806529587,-1.1750470268,2.584204375
 H,0,1.0763013769,0.5570416113,2.1999521507
 Recover connectivity data from disk.

 GradGradGradGradGradGradGradGradGradGradGradGradGradGradGradGradGradGrad
 Berny optimization.
 Initialization pass.
                           ----------------------------
                           !    Initial Parameters    !
                           ! (Angstroms and Degrees)  !
 --------------------------                            --------------------------
 ! Name  Definition              Value          Derivative Info.                !
 --------------------------------------------------------------------------------
 ! R1    R(1,2)                  1.5147         calculate D2E/DX2 analytically  !
 ! R2    R(1,4)                  1.0962         calculate D2E/DX2 analytically  !
 ! R3    R(1,5)                  1.093          calculate D2E/DX2 analytically  !
 ! R4    R(1,6)                  1.093          calculate D2E/DX2 analytically  !
 ! R5    R(2,3)                  1.9542         calculate D2E/DX2 analytically  !
 ! R6    R(2,7)                  1.0895         calculate D2E/DX2 analytically  !
 ! R7    R(2,8)                  1.0895         calculate D2E/DX2 analytically  !
 ! A1    A(2,1,4)              109.1406         calculate D2E/DX2 analytically  !
 ! A2    A(2,1,5)              111.1014         calculate D2E/DX2 analytically  !
 ! A3    A(2,1,6)              111.1016         calculate D2E/DX2 analytically  !
 ! A4    A(4,1,5)              108.4655         calculate D2E/DX2 analytically  !
 ! A5    A(4,1,6)              108.4652         calculate D2E/DX2 analytically  !
 ! A6    A(5,1,6)              108.4916         calculate D2E/DX2 analytically  !
 ! A7    A(1,2,3)              111.5589         calculate D2E/DX2 analytically  !
 ! A8    A(1,2,7)              112.2707         calculate D2E/DX2 analytically  !
 ! A9    A(1,2,8)              112.2712         calculate D2E/DX2 analytically  !
 ! A10   A(3,2,7)              105.5069         calculate D2E/DX2 analytically  !
 ! A11   A(3,2,8)              105.507          calculate D2E/DX2 analytically  !
 ! A12   A(7,2,8)              109.2957         calculate D2E/DX2 analytically  !
 ! D1    D(4,1,2,3)            180.0            calculate D2E/DX2 analytically  !
 ! D2    D(4,1,2,7)             61.807          calculate D2E/DX2 analytically  !
 ! D3    D(4,1,2,8)            -61.8065         calculate D2E/DX2 analytically  !
 ! D4    D(5,1,2,3)            -60.4424         calculate D2E/DX2 analytically  !
 ! D5    D(5,1,2,7)           -178.6354         calculate D2E/DX2 analytically  !
 ! D6    D(5,1,2,8)             57.7512         calculate D2E/DX2 analytically  !
 ! D7    D(6,1,2,3)             60.4425         calculate D2E/DX2 analytically  !
 ! D8    D(6,1,2,7)            -57.7505         calculate D2E/DX2 analytically  !
 ! D9    D(6,1,2,8)            178.636          calculate D2E/DX2 analytically  !
 --------------------------------------------------------------------------------
 Trust Radius=3.00D-01 FncErr=1.00D-07 GrdErr=1.00D-07
 Number of steps in this run=      2 maximum allowed number of steps=      2.
 GradGradGradGradGradGradGradGradGradGradGradGradGradGradGradGradGradGrad

                          Input orientation:                          
 ---------------------------------------------------------------------
 Center     Atomic      Atomic             Coordinates (Angstroms)
 Number     Number       Type             X           Y           Z
 ---------------------------------------------------------------------
      1          6           0        0.000914   -0.727422    0.812218
      2          6           0        1.134274   -0.445194    1.776591
      3         35           0        2.872580   -0.537483    0.888522
      4          1           0       -0.952350   -0.665570    1.349900
      5          1           0       -0.013215    0.001132   -0.002422
      6          1           0        0.090942   -1.727759    0.381134
      7          1           0        1.180653   -1.175047    2.584204
      8          1           0        1.076301    0.557042    2.199952
 ---------------------------------------------------------------------
                    Distance matrix (angstroms):
                    1          2          3          4          5
     1  C    0.000000
     2  C    1.514653   0.000000
     3  Br   2.878952   1.954198   0.000000
     4  H    1.096193   2.141175   3.854785   0.000000
     5  H    1.092990   2.163521   3.067849   1.776299   0.000000
     6  H    1.092984   2.163519   3.067852   1.776291   1.773986
     7  H    2.175336   1.089530   2.478799   2.516501   3.082102
     8  H    2.175341   1.089528   2.478800   2.516504   2.519232
                    6          7          8
     6  H    0.000000
     7  H    2.519222   0.000000
     8  H    3.082101   1.777265   0.000000
 Stoichiometry    C2H5Br
 Framework group  C1[X(C2H5Br)]
 Deg. of freedom    18
 Full point group                 C1      NOp   1
 Largest Abelian subgroup         C1      NOp   1
 Largest concise Abelian subgroup C1      NOp   1
                         Standard orientation:                         
 ---------------------------------------------------------------------
 Center     Atomic      Atomic             Coordinates (Angstroms)
 Number     Number       Type             X           Y           Z
 ---------------------------------------------------------------------
      1          6           0       -2.069662   -0.398565    0.000000
      2          6           0       -1.012769    0.686401   -0.000002
      3         35           0        0.790183   -0.067425    0.000000
      4          1           0       -3.062271    0.066585    0.000000
      5          1           0       -1.983918   -1.031428   -0.886994
      6          1           0       -1.983923   -1.031423    0.886991
      7          1           0       -1.065859    1.314560    0.888635
      8          1           0       -1.065857    1.314567   -0.888630
 ---------------------------------------------------------------------
 Rotational constants (GHZ):     30.2654208      3.7872602      3.5148232
 Standard basis: 6-31+G(d) (6D, 7F)
 There are    82 symmetry adapted cartesian basis functions of A   symmetry.
 There are    82 symmetry adapted basis functions of A   symmetry.
    82 basis functions,   171 primitive gaussians,    82 cartesian basis functions
    26 alpha electrons       26 beta electrons
       nuclear repulsion energy       164.1136383592 Hartrees.
 NAtoms=    8 NActive=    8 NUniq=    8 SFac= 1.00D+00 NAtFMM=   60 NAOKFM=F Big=F
 Integral buffers will be    131072 words long.
 Raffenetti 2 integral format.
 Two-electron integral symmetry is turned on.
 One-electron integrals computed using PRISM.
 NBasis=    82 RedAO= T EigKep=  2.90D-04  NBF=    82
 NBsUse=    82 1.00D-06 EigRej= -1.00D+00 NBFU=    82
 Initial guess from the checkpoint file:  "/srv/scratch/z5358697/gauss/Gau-3515397.chk"
 B after Tr=     0.000000    0.000000    0.000000
         Rot=    1.000000    0.000000    0.000000    0.000000 Ang=   0.00 deg.
 Keep R1 ints in memory in canonical form, NReq=6846053.
 Requested convergence on RMS density matrix=1.00D-08 within 128 cycles.
 Requested convergence on MAX density matrix=1.00D-06.
 Requested convergence on             energy=1.00D-06.
 No special actions if energy rises.
 SCF Done:  E(RM062X) =  -2650.97043410     A.U. after    1 cycles
            NFock=  1  Conv=0.78D-09     -V/T= 2.0068
 DoSCS=F DFT=T ScalE2(SS,OS)=  1.000000  1.000000
 Range of M.O.s used for correlation:     1    82
 NBasis=    82 NAE=    26 NBE=    26 NFC=     0 NFV=     0
 NROrb=     82 NOA=    26 NOB=    26 NVA=    56 NVB=    56

 **** Warning!!: The largest alpha MO coefficient is  0.28393173D+02

 Symmetrizing basis deriv contribution to polar:
 IMax=3 JMax=2 DiffMx= 0.00D+00
 G2DrvN: will do     9 centers at a time, making    1 passes.
 Calling FoFCou, ICntrl=  3107 FMM=F I1Cent=   0 AccDes= 0.00D+00.
 End of G2Drv F.D. properties file   721 does not exist.
 End of G2Drv F.D. properties file   722 does not exist.
 End of G2Drv F.D. properties file   788 does not exist.
          IDoAtm=11111111
          Differentiating once with respect to electric field.
                with respect to dipole field.
          Differentiating once with respect to nuclear coordinates.
 Keep R1 ints in memory in canonical form, NReq=6828452.
          There are    27 degrees of freedom in the 1st order CPHF.  IDoFFX=6 NUNeed=     3.
     25 vectors produced by pass  0 Test12= 5.39D-15 3.70D-09 XBig12= 2.73D+01 2.42D+00.
 AX will form    25 AO Fock derivatives at one time.
     24 vectors produced by pass  1 Test12= 5.39D-15 3.70D-09 XBig12= 2.16D+00 4.31D-01.
     24 vectors produced by pass  2 Test12= 5.39D-15 3.70D-09 XBig12= 3.36D-02 4.24D-02.
     24 vectors produced by pass  3 Test12= 5.39D-15 3.70D-09 XBig12= 1.66D-04 3.24D-03.
     24 vectors produced by pass  4 Test12= 5.39D-15 3.70D-09 XBig12= 5.85D-07 1.47D-04.
     24 vectors produced by pass  5 Test12= 5.39D-15 3.70D-09 XBig12= 1.73D-09 7.11D-06.
      9 vectors produced by pass  6 Test12= 5.39D-15 3.70D-09 XBig12= 4.00D-12 3.56D-07.
      3 vectors produced by pass  7 Test12= 5.39D-15 3.70D-09 XBig12= 8.74D-15 1.68D-08.
 InvSVY:  IOpt=1 It=  1 EMax= 3.55D-15
 Solved reduced A of dimension   157 with    27 vectors.
 Isotropic polarizability for W=    0.000000       42.54 Bohr**3.
 End of Minotr F.D. properties file   721 does not exist.
 End of Minotr F.D. properties file   722 does not exist.
 End of Minotr F.D. properties file   788 does not exist.

 **********************************************************************

            Population analysis using the SCF density.

 **********************************************************************

 Orbital symmetries:
       Occupied  (A) (A) (A) (A) (A) (A) (A) (A) (A) (A) (A) (A)
                 (A) (A) (A) (A) (A) (A) (A) (A) (A) (A) (A) (A)
                 (A) (A)
       Virtual   (A) (A) (A) (A) (A) (A) (A) (A) (A) (A) (A) (A)
                 (A) (A) (A) (A) (A) (A) (A) (A) (A) (A) (A) (A)
                 (A) (A) (A) (A) (A) (A) (A) (A) (A) (A) (A) (A)
                 (A) (A) (A) (A) (A) (A) (A) (A) (A) (A) (A) (A)
                 (A) (A) (A) (A) (A) (A) (A) (A)
 The electronic state is 1-A.
 Alpha  occ. eigenvalues -- -485.46188 -62.74424 -57.27723 -57.27466 -57.27460
 Alpha  occ. eigenvalues --  -10.61073 -10.55770  -8.91810  -6.87251  -6.86265
 Alpha  occ. eigenvalues --   -6.86255  -2.90104  -2.89767  -2.89759  -2.88886
 Alpha  occ. eigenvalues --   -2.88886  -0.91748  -0.81717  -0.70495  -0.54999
 Alpha  occ. eigenvalues --   -0.51490  -0.47207  -0.44244  -0.41363  -0.33333
 Alpha  occ. eigenvalues --   -0.33240
 Alpha virt. eigenvalues --    0.00792   0.02948   0.03932   0.05261   0.06219
 Alpha virt. eigenvalues --    0.07627   0.08362   0.08756   0.09298   0.09533
 Alpha virt. eigenvalues --    0.12726   0.14236   0.15826   0.22160   0.22951
 Alpha virt. eigenvalues --    0.24439   0.27080   0.32800   0.37072   0.48489
 Alpha virt. eigenvalues --    0.51592   0.51878   0.53508   0.55200   0.60087
 Alpha virt. eigenvalues --    0.64516   0.65301   0.66194   0.69159   0.70086
 Alpha virt. eigenvalues --    0.76171   0.83219   0.84165   0.94618   0.97464
 Alpha virt. eigenvalues --    1.01420   1.07084   1.12754   1.16938   1.22275
 Alpha virt. eigenvalues --    1.52652   1.57851   1.63334   1.77067   1.97302
 Alpha virt. eigenvalues --    1.99603   2.04021   2.24087   2.32913   2.36190
 Alpha virt. eigenvalues --    2.37819   2.63223   4.18983   4.39745   8.92362
 Alpha virt. eigenvalues --   77.52347
          Condensed to atoms (all electrons):
               1          2          3          4          5          6
     1  C    5.531515   0.123528  -0.122816   0.378000   0.403499   0.403499
     2  C    0.123528   5.386423   0.273606  -0.048389  -0.047394  -0.047394
     3  Br  -0.122816   0.273606  35.063329   0.010774  -0.005630  -0.005630
     4  H    0.378000  -0.048389   0.010774   0.499314  -0.024912  -0.024913
     5  H    0.403499  -0.047394  -0.005630  -0.024912   0.471099  -0.027048
     6  H    0.403499  -0.047394  -0.005630  -0.024913  -0.027048   0.471098
     7  H   -0.043494   0.390446  -0.048756  -0.001816   0.003825  -0.005107
     8  H   -0.043493   0.390446  -0.048756  -0.001816  -0.005107   0.003825
               7          8
     1  C   -0.043494  -0.043493
     2  C    0.390446   0.390446
     3  Br  -0.048756  -0.048756
     4  H   -0.001816  -0.001816
     5  H    0.003825  -0.005107
     6  H   -0.005107   0.003825
     7  H    0.493534  -0.033901
     8  H   -0.033901   0.493533
 Mulliken charges:
               1
     1  C   -0.630237
     2  C   -0.421272
     3  Br  -0.116121
     4  H    0.213758
     5  H    0.231667
     6  H    0.231669
     7  H    0.245268
     8  H    0.245269
 Sum of Mulliken charges =   0.00000
 Mulliken charges with hydrogens summed into heavy atoms:
               1
     1  C    0.046856
     2  C    0.069265
     3  Br  -0.116121
 APT charges:
               1
     1  C   -0.011463
     2  C    0.352660
     3  Br  -0.303991
     4  H   -0.007304
     5  H    0.015287
     6  H    0.015300
     7  H   -0.030243
     8  H   -0.030247
 Sum of APT charges =   0.00000
 APT charges with hydrogens summed into heavy atoms:
               1
     1  C    0.011820
     2  C    0.292170
     3  Br  -0.303991
 Electronic spatial extent (au):  <R**2>=            377.6345
 Charge=              0.0000 electrons
 Dipole moment (field-independent basis, Debye):
    X=             -2.2072    Y=              0.7080    Z=              0.0000  Tot=              2.3179
 Quadrupole moment (field-independent basis, Debye-Ang):
   XX=            -30.5661   YY=            -32.0856   ZZ=            -32.6336
   XY=             -1.2355   XZ=              0.0000   YZ=              0.0000
 Traceless Quadrupole moment (field-independent basis, Debye-Ang):
   XX=              1.1957   YY=             -0.3238   ZZ=             -0.8719
   XY=             -1.2355   XZ=              0.0000   YZ=              0.0000
 Octapole moment (field-independent basis, Debye-Ang**2):
  XXX=             22.4085  YYY=             -0.2354  ZZZ=              0.0000  XYY=              6.3579
  XXY=             -1.2644  XXZ=              0.0001  XZZ=              6.0743  YZZ=              0.1504
  YYZ=              0.0000  XYZ=              0.0000
 Hexadecapole moment (field-independent basis, Debye-Ang**3):
 XXXX=           -346.9825 YYYY=            -83.9164 ZZZZ=            -52.9326 XXXY=             -8.5862
 XXXZ=             -0.0002 YYYX=             -3.8858 YYYZ=             -0.0001 ZZZX=              0.0000
 ZZZY=              0.0000 XXYY=            -73.5645 XXZZ=            -69.7361 YYZZ=            -20.3234
 XXYZ=             -0.0001 YYXZ=              0.0000 ZZXY=             -0.8120
 N-N= 1.641136383592D+02 E-N=-6.643089051418D+03  KE= 2.632959227633D+03
  Exact polarizability:  53.367  -2.800  38.099   0.001   0.000  36.159
 Approx polarizability:  59.303  -5.553  45.438   0.000   0.000  43.689
 Calling FoFJK, ICntrl=    100127 FMM=F ISym2X=0 I1Cent= 0 IOpClX= 0 NMat=1 NMatS=1 NMatT=0.
 Full mass-weighted force constant matrix:
 Low frequencies ---  -55.2495  -31.2515  -31.1945   -0.0103    0.0092    0.0123
 Low frequencies ---  242.6756  298.4081  592.5753
 Diagonal vibrational polarizability:
        3.2339276       0.3103154       0.3391585
 Harmonic frequencies (cm**-1), IR intensities (KM/Mole), Raman scattering
 activities (A**4/AMU), depolarization ratios for plane and unpolarized
 incident light, reduced masses (AMU), force constants (mDyne/A),
 and normal coordinates:
                      1                      2                      3
                      A                      A                      A
 Frequencies --    242.3547               298.4074               592.5753
 Red. masses --      1.0780                 3.1583                 4.0854
 Frc consts  --      0.0373                 0.1657                 0.8452
 IR Inten    --      0.0091                 1.9686                17.3878
  Atom  AN      X      Y      Z        X      Y      Z        X      Y      Z
     1   6     0.00   0.00   0.01     0.33  -0.04   0.00     0.09   0.03   0.00
     2   6     0.00   0.00  -0.07     0.08   0.18   0.00     0.37  -0.29   0.00
     3  35     0.00   0.00   0.01    -0.08  -0.02   0.00    -0.07   0.04   0.00
     4   1     0.00   0.00   0.61     0.17  -0.38   0.00     0.32   0.53   0.00
     5   1    -0.38   0.30  -0.24     0.55  -0.02   0.01    -0.23   0.00  -0.01
     6   1     0.38  -0.30  -0.24     0.55  -0.02  -0.01    -0.23   0.00   0.01
     7   1     0.01   0.05  -0.11     0.05   0.17   0.01     0.27  -0.25  -0.04
     8   1    -0.01  -0.05  -0.11     0.05   0.17  -0.01     0.27  -0.25   0.04
                      4                      5                      6
                      A                      A                      A
 Frequencies --    781.8825               994.6950              1065.8279
 Red. masses --      1.1093                 1.6237                 1.2141
 Frc consts  --      0.3996                 0.9465                 0.8126
 IR Inten    --      3.6027                15.9004                 0.2271
  Atom  AN      X      Y      Z        X      Y      Z        X      Y      Z
     1   6     0.00   0.00   0.03     0.18   0.03   0.00     0.00   0.00   0.08
     2   6     0.00   0.00   0.09    -0.15  -0.03   0.00     0.00   0.00  -0.11
     3  35     0.00   0.00  -0.01     0.00  -0.01   0.00     0.00   0.00   0.01
     4   1     0.00   0.00  -0.17     0.43   0.59   0.00     0.00   0.00  -0.21
     5   1     0.24   0.31  -0.17    -0.21   0.07  -0.06     0.20   0.27  -0.10
     6   1    -0.24  -0.31  -0.17    -0.21   0.07   0.06    -0.20  -0.27  -0.10
     7   1     0.03   0.48  -0.25    -0.38  -0.08   0.02     0.53  -0.24   0.08
     8   1    -0.03  -0.48  -0.25    -0.38  -0.08  -0.02    -0.53   0.24   0.08
                      7                      8                      9
                      A                      A                      A
 Frequencies --   1101.7683              1285.7552              1318.3698
 Red. masses --      2.2595                 1.2164                 1.2491
 Frc consts  --      1.6160                 1.1848                 1.2792
 IR Inten    --      0.2596                 0.5403                59.2371
  Atom  AN      X      Y      Z        X      Y      Z        X      Y      Z
     1   6     0.03   0.22   0.00     0.00   0.00   0.11     0.04  -0.05   0.00
     2   6    -0.12  -0.22   0.00     0.00   0.00  -0.08    -0.13   0.00   0.00
     3  35     0.00   0.00   0.00     0.00   0.00   0.00     0.00   0.00   0.00
     4   1    -0.20  -0.30   0.00     0.00   0.00  -0.19     0.14   0.17   0.00
     5   1     0.52   0.22   0.05     0.16   0.28  -0.07    -0.07   0.06  -0.08
     6   1     0.52   0.22  -0.05    -0.16  -0.28  -0.07    -0.07   0.06   0.08
     7   1     0.04  -0.22   0.00    -0.56  -0.22   0.05     0.67  -0.01   0.04
     8   1     0.04  -0.22   0.00     0.56   0.22   0.05     0.67  -0.01  -0.04
                     10                     11                     12
                      A                      A                      A
 Frequencies --   1434.8855              1508.0239              1513.5145
 Red. masses --      1.2460                 1.0364                 1.0965
 Frc consts  --      1.5115                 1.3887                 1.4799
 IR Inten    --      7.8300                10.9690                 1.1583
  Atom  AN      X      Y      Z        X      Y      Z        X      Y      Z
     1   6    -0.11  -0.10   0.00     0.00   0.00  -0.05    -0.01  -0.02   0.00
     2   6     0.02   0.00   0.00     0.00   0.00  -0.02     0.03   0.08   0.00
     3  35     0.00   0.00   0.00     0.00   0.00   0.00     0.00   0.00   0.00
     4   1     0.21   0.55   0.00     0.00   0.00   0.70    -0.04  -0.06   0.00
     5   1     0.47   0.22  -0.16     0.50  -0.04   0.05     0.00   0.17  -0.13
     6   1     0.47   0.22   0.16    -0.50   0.04   0.05     0.00   0.17   0.13
     7   1    -0.05   0.08  -0.05    -0.02  -0.04   0.00    -0.02  -0.53   0.41
     8   1    -0.05   0.08   0.05     0.02   0.04   0.00    -0.02  -0.53  -0.41
                     13                     14                     15
                      A                      A                      A
 Frequencies --   1518.2393              3075.4761              3145.8696
 Red. masses --      1.0536                 1.0381                 1.0816
 Frc consts  --      1.4308                 5.7852                 6.3066
 IR Inten    --      3.2463                16.5414                 0.1445
  Atom  AN      X      Y      Z        X      Y      Z        X      Y      Z
     1   6    -0.03   0.04   0.00    -0.05  -0.02   0.00    -0.04   0.06   0.00
     2   6    -0.02   0.03   0.00     0.00   0.00   0.00     0.00  -0.04   0.00
     3  35     0.00   0.00   0.00     0.00   0.00   0.00     0.00   0.00   0.00
     4   1     0.12   0.32   0.00     0.67  -0.32   0.00     0.45  -0.21   0.00
     5   1     0.19  -0.47   0.37    -0.05   0.27   0.38     0.02  -0.23  -0.34
     6   1     0.19  -0.47  -0.37    -0.05   0.27  -0.38     0.02  -0.23   0.34
     7   1     0.05  -0.15   0.13     0.00   0.00   0.01    -0.02   0.25   0.38
     8   1     0.05  -0.15  -0.13     0.00   0.00  -0.01    -0.02   0.25  -0.38
                     16                     17                     18
                      A                      A                      A
 Frequencies --   3157.8157              3169.5421              3216.1674
 Red. masses --      1.0743                 1.1043                 1.1108
 Frc consts  --      6.3115                 6.5365                 6.7696
 IR Inten    --     22.2373                 7.1316                 5.1166
  Atom  AN      X      Y      Z        X      Y      Z        X      Y      Z
     1   6     0.04  -0.04   0.00     0.00   0.00   0.09     0.00   0.00   0.02
     2   6     0.00  -0.05   0.00     0.00   0.00  -0.02     0.00   0.00   0.09
     3  35     0.00   0.00   0.00     0.00   0.00   0.00     0.00   0.00   0.00
     4   1    -0.38   0.17   0.00     0.00   0.00   0.02     0.00   0.00   0.00
     5   1    -0.02   0.19   0.28     0.06  -0.40  -0.55     0.01  -0.10  -0.14
     6   1    -0.02   0.19  -0.28    -0.06   0.40  -0.55    -0.01   0.10  -0.14
     7   1    -0.02   0.30   0.45    -0.01   0.10   0.14     0.02  -0.39  -0.56
     8   1    -0.02   0.30  -0.45     0.01  -0.10   0.14    -0.02   0.39  -0.56

 -------------------
 - Thermochemistry -
 -------------------
 Temperature   298.150 Kelvin.  Pressure   1.00000 Atm.
 Atom     1 has atomic number  6 and mass  12.00000
 Atom     2 has atomic number  6 and mass  12.00000
 Atom     3 has atomic number 35 and mass  78.91834
 Atom     4 has atomic number  1 and mass   1.00783
 Atom     5 has atomic number  1 and mass   1.00783
 Atom     6 has atomic number  1 and mass   1.00783
 Atom     7 has atomic number  1 and mass   1.00783
 Atom     8 has atomic number  1 and mass   1.00783
 Molecular mass:   107.95746 amu.
 Principal axes and moments of inertia in atomic units:
                           1         2         3
     Eigenvalues --    59.63047 476.52950 513.46571
           X            0.99993   0.01173   0.00000
           Y           -0.01173   0.99993   0.00000
           Z            0.00000   0.00000   1.00000
 This molecule is an asymmetric top.
 Rotational symmetry number  1.
 Rotational temperatures (Kelvin)      1.45251     0.18176     0.16868
 Rotational constants (GHZ):          30.26542     3.78726     3.51482
 Zero-point vibrational energy     175977.7 (Joules/Mol)
                                   42.05967 (Kcal/Mol)
 Warning -- explicit consideration of   3 degrees of freedom as
           vibrations may cause significant error
 Vibrational temperatures:    348.69   429.34   852.58  1124.95  1431.14
          (Kelvin)           1533.49  1585.20  1849.91  1896.84  2064.48
                             2169.71  2177.61  2184.41  4424.92  4526.20
                             4543.39  4560.26  4627.34
 
 Zero-point correction=                           0.067026 (Hartree/Particle)
 Thermal correction to Energy=                    0.071160
 Thermal correction to Enthalpy=                  0.072104
 Thermal correction to Gibbs Free Energy=         0.039620
 Sum of electronic and zero-point Energies=          -2650.903408
 Sum of electronic and thermal Energies=             -2650.899274
 Sum of electronic and thermal Enthalpies=           -2650.898330
 Sum of electronic and thermal Free Energies=        -2650.930814
 
                     E (Thermal)             CV                S
                      KCal/Mol        Cal/Mol-Kelvin    Cal/Mol-Kelvin
 Total                   44.653             12.718             68.368
 Electronic               0.000              0.000              0.000
 Translational            0.889              2.981             39.946
 Rotational               0.889              2.981             24.193
 Vibrational             42.876              6.756              4.229
 Vibration     1          0.659              1.775              1.786
 Vibration     2          0.691              1.677              1.426
 Vibration     3          0.950              1.048              0.463
                       Q            Log10(Q)             Ln(Q)
 Total Bot       0.597210D-18        -18.223873        -41.962018
 Total V=0       0.403688D+13         12.606045         29.026492
 Vib (Bot)       0.313265D-30        -30.504088        -70.238259
 Vib (Bot)    1  0.808194D+00         -0.092484         -0.212953
 Vib (Bot)    2  0.637876D+00         -0.195264         -0.449611
 Vib (Bot)    3  0.253907D+00         -0.595326         -1.370788
 Vib (V=0)       0.211753D+01          0.325830          0.750251
 Vib (V=0)    1  0.145036D+01          0.161475          0.371809
 Vib (V=0)    2  0.131048D+01          0.117432          0.270397
 Vib (V=0)    3  0.106078D+01          0.025623          0.059000
 Electronic      0.100000D+01          0.000000          0.000000
 Translational   0.440894D+08          7.644334         17.601730
 Rotational      0.432395D+05          4.635881         10.674511
 ***** Axes restored to original set *****
 -------------------------------------------------------------------
 Center     Atomic                   Forces (Hartrees/Bohr)
 Number     Number              X              Y              Z
 -------------------------------------------------------------------
      1        6           0.000115914    0.000019951    0.000040416
      2        6          -0.000214594    0.000018532    0.000152353
      3       35           0.000345104   -0.000021149   -0.000189652
      4        1          -0.000032169   -0.000020334   -0.000084533
      5        1          -0.000006216   -0.000008779    0.000008669
      6        1          -0.000006305    0.000006931    0.000002649
      7        1          -0.000096567   -0.000066329    0.000050155
      8        1          -0.000105167    0.000071177    0.000019944
 -------------------------------------------------------------------
 Cartesian Forces:  Max     0.000345104 RMS     0.000108441
 FormGI is forming the generalized inverse of G from B-inverse, IUseBI=4.

 GradGradGradGradGradGradGradGradGradGradGradGradGradGradGradGradGradGrad
 Berny optimization.
 Internal  Forces:  Max     0.000408118 RMS     0.000091040
 Search for a local minimum.
 Step number   1 out of a maximum of    2
 All quantities printed in internal units (Hartrees-Bohrs-Radians)
 Second derivative matrix not updated -- analytic derivatives used.
 ITU=  0
     Eigenvalues ---    0.00271   0.04380   0.04530   0.04631   0.05889
     Eigenvalues ---    0.12220   0.12445   0.12867   0.13959   0.17794
     Eigenvalues ---    0.19293   0.22205   0.32729   0.34384   0.34910
     Eigenvalues ---    0.35526   0.35637   0.36238
 Angle between quadratic step and forces=  22.64 degrees.
 Linear search not attempted -- first point.
 Iteration  1 RMS(Cart)=  0.00054072 RMS(Int)=  0.00000017
 Iteration  2 RMS(Cart)=  0.00000030 RMS(Int)=  0.00000005
 Variable       Old X    -DE/DX   Delta X   Delta X   Delta X     New X
                                 (Linear)    (Quad)   (Total)
    R1        2.86228  -0.00004   0.00000  -0.00020  -0.00020   2.86208
    R2        2.07150   0.00000   0.00000   0.00004   0.00004   2.07155
    R3        2.06545  -0.00002   0.00000  -0.00005  -0.00005   2.06540
    R4        2.06544  -0.00002   0.00000  -0.00004  -0.00004   2.06540
    R5        3.69290   0.00041   0.00000   0.00227   0.00227   3.69517
    R6        2.05891   0.00007   0.00000   0.00016   0.00016   2.05908
    R7        2.05891   0.00007   0.00000   0.00017   0.00017   2.05908
    A1        1.90486   0.00008   0.00000   0.00048   0.00048   1.90534
    A2        1.93908   0.00001   0.00000   0.00016   0.00016   1.93924
    A3        1.93909   0.00001   0.00000   0.00015   0.00015   1.93924
    A4        1.89308  -0.00005   0.00000  -0.00043  -0.00043   1.89264
    A5        1.89307  -0.00005   0.00000  -0.00043  -0.00043   1.89264
    A6        1.89354   0.00000   0.00000   0.00004   0.00004   1.89358
    A7        1.94707  -0.00010   0.00000  -0.00074  -0.00074   1.94633
    A8        1.95949  -0.00007   0.00000  -0.00016  -0.00016   1.95933
    A9        1.95950  -0.00007   0.00000  -0.00017  -0.00017   1.95933
   A10        1.84144   0.00010   0.00000   0.00028   0.00028   1.84172
   A11        1.84145   0.00010   0.00000   0.00028   0.00028   1.84172
   A12        1.90757   0.00006   0.00000   0.00058   0.00058   1.90815
    D1        3.14159   0.00000   0.00000   0.00000   0.00000   3.14159
    D2        1.07874  -0.00001   0.00000   0.00025   0.00025   1.07899
    D3       -1.07873   0.00001   0.00000  -0.00026  -0.00026  -1.07899
    D4       -1.05492   0.00000   0.00000  -0.00013  -0.00013  -1.05505
    D5       -3.11778  -0.00001   0.00000   0.00012   0.00012  -3.11766
    D6        1.00795   0.00001   0.00000  -0.00039  -0.00039   1.00756
    D7        1.05492   0.00000   0.00000   0.00013   0.00013   1.05505
    D8       -1.00794  -0.00001   0.00000   0.00038   0.00038  -1.00756
    D9        3.11779   0.00001   0.00000  -0.00013  -0.00013   3.11766
         Item               Value     Threshold  Converged?
 Maximum Force            0.000408     0.000450     YES
 RMS     Force            0.000091     0.000300     YES
 Maximum Displacement     0.001804     0.001800     NO 
 RMS     Displacement     0.000541     0.001200     YES
 Predicted change in Energy=-6.093709D-07
 GradGradGradGradGradGradGradGradGradGradGradGradGradGradGradGradGradGrad

 1\1\GINC-KATANA3\Freq\RM062X\6-31+G(d)\C2H5Br1\Z5358697\19-Mar-2025\0\
 \#N Geom=AllCheck Guess=TCheck SCRF=Check GenChk RM062X/6-31+G(d) Freq
 \\bromoethane\\0,1\C,0.0009139736,-0.7274215241,0.8122180875\C,1.13427
 42108,-0.4451937629,1.7765909849\Br,2.8725801468,-0.5374825437,0.88852
 23172\H,-0.9523497468,-0.6655697625,1.3498999663\H,-0.0132145754,0.001
 1316852,-0.00242179\H,0.0909416554,-1.7277586765,0.3811339084\H,1.1806
 529587,-1.1750470268,2.584204375\H,1.0763013769,0.5570416113,2.1999521
 507\\Version=ES64L-G09RevD.01\State=1-A\HF=-2650.9704341\RMSD=7.765e-1
 0\RMSF=1.084e-04\ZeroPoint=0.0670264\Thermal=0.0711598\Dipole=-0.84355
 49,0.0258336,0.3455421\DipoleDeriv=-0.109296,-0.0180186,-0.0336845,0.0
 110323,0.0630723,-0.0139742,0.0963674,-0.0061182,0.0118348,0.7830889,-
 0.0021917,-0.1983462,-0.0148477,0.0902689,0.0092502,-0.2549299,0.00585
 44,0.1846225,-0.5202542,-0.00641,0.0641162,0.0080914,-0.1781951,-0.004
 0741,0.1291957,-0.0001572,-0.2135232,-0.1409743,-0.0009649,0.0600016,-
 0.0057798,0.0929128,-0.0118546,0.038282,-0.0131602,0.0261494,0.0726654
 ,-0.0287264,0.010593,0.0019592,-0.0091623,0.0878788,-0.0458161,0.06321
 21,-0.017641,0.068967,0.0453388,0.0040453,-0.007019,-0.0658207,-0.0636
 413,-0.0366711,-0.0448496,0.0427539,-0.0764176,-0.0097832,0.0456891,0.
 0057907,0.0305997,0.0641202,0.032657,0.0510343,-0.044911,-0.0777792,0.
 0207561,0.0475855,0.0007728,-0.0236755,-0.067705,0.040915,-0.0558156,0
 .0107145\Polar=52.8043977,0.109045,36.2310732,-4.0227226,0.2968314,38.
 5890653\PG=C01 [X(C2H5Br1)]\NImag=0\\0.52145333,-0.01288793,0.59192800
 ,-0.03819233,-0.00908204,0.56412175,-0.14587618,-0.02059689,-0.0763405
 8,0.34162575,-0.02073479,-0.09024285,-0.01755821,-0.00102545,0.6054342
 3,-0.07696364,-0.01759467,-0.14351434,0.06817132,-0.01881557,0.5063329
 7,-0.03375597,0.00186455,0.01775755,-0.08850212,0.00483762,0.03791742,
 0.15169755,-0.00332073,0.00092278,0.00210716,0.00459413,-0.02935139,-0
 .00207859,-0.00637109,0.01849318,-0.00562108,0.00069771,0.00533338,0.0
 3682145,-0.00214479,-0.04883774,-0.06505014,0.00436130,0.05523642,-0.2
 4825654,0.01345201,0.11495874,-0.02127859,0.00155541,0.01236351,-0.003
 54891,-0.00077183,-0.00218591,0.27114364,0.01325741,-0.04921814,-0.008
 04671,-0.00496279,-0.00112086,0.00333917,-0.00141871,0.00104634,-0.000
 34822,-0.01412297,0.04717593,0.11408022,-0.00809916,-0.11572200,-0.017
 01559,0.00156883,0.01013129,-0.00510327,-0.00052378,0.00023299,-0.1248
 0795,0.00923152,0.12148390,-0.04724217,-0.00006660,0.00115990,-0.00263
 449,0.01940542,-0.02109999,0.00153667,0.00043082,-0.00037666,0.0016039
 2,-0.02024937,0.02093491,0.05092477,0.00167764,-0.17525652,0.13801069,
 -0.00013689,0.00580199,-0.00638511,0.00045697,0.00006864,-0.00044506,-
 0.00030097,0.00182846,-0.00352831,-0.00008690,0.18451295,-0.00180174,0
 .13658373,-0.19943561,0.00081673,0.01474951,-0.01676311,0.00019833,-0.
 00043204,0.00120178,-0.00081521,0.00985110,-0.01097196,0.00439135,-0.1
 4952123,0.21558352,-0.04961434,0.02515831,0.01119532,0.00014419,-0.026
 86118,-0.01096070,0.00162498,-0.00041337,-0.00026488,-0.00126285,0.027
 01765,0.01020152,-0.00113262,-0.00050748,0.00024078,0.05340716,0.02229
 235,-0.28218633,-0.09773050,0.00062723,-0.00444917,-0.00203549,-0.0001
 9352,0.00052182,0.00070587,0.00010799,0.00024123,0.00093414,0.00231838
 ,-0.01844405,-0.00930909,-0.02424186,0.30210662,0.00910375,-0.09660803
 ,-0.09014375,0.00293843,-0.02101117,-0.00929145,0.00026573,0.00075848,
 0.00066092,0.00057291,-0.01433550,-0.00651850,-0.00234132,0.02313703,0
 .01141782,-0.00733970,0.10804582,0.09551766,0.00033301,0.01820378,-0.0
 1993724,-0.04152316,0.00693997,-0.01177615,-0.01371074,-0.01263261,0.0
 2200820,0.00077629,0.00015774,0.00084985,-0.00369868,-0.00180832,-0.00
 358292,0.00066458,-0.00041028,0.00078602,0.05581612,-0.00029291,0.0066
 0028,-0.00716514,0.00822768,-0.18652458,0.14293890,0.00244181,0.004038
 34,-0.00500786,0.00050305,0.00012350,0.00057399,-0.00160371,0.00083297
 ,-0.00178450,0.00060418,0.00068282,0.00008699,-0.01114882,0.19234098,-
 0.00135460,0.01405088,-0.01358084,-0.01524228,0.14361939,-0.20575416,0
 .00614896,0.00469852,-0.00761849,-0.00014455,0.00011208,0.00060550,-0.
 00378182,-0.00126934,-0.00142230,0.00094701,-0.00000821,0.00034101,0.0
 1381432,-0.15229424,0.21578719,0.00295887,-0.02512724,-0.01060136,-0.0
 4195541,0.01588300,0.00234824,-0.01534144,0.01848469,0.01466902,0.0008
 2303,0.00032104,0.00086030,0.00064260,0.00070594,0.00055267,-0.0038311
 0,-0.00050028,-0.00398582,0.00134259,0.00126871,-0.00038703,0.05536087
 ,0.00000897,-0.00254722,-0.00053524,0.01327297,-0.29954738,-0.09936864
 ,-0.00161763,0.00426031,0.00218106,-0.00042270,-0.00007646,-0.00015723
 ,-0.00014805,0.00065556,-0.00013748,-0.00075624,0.00152707,-0.00007363
 ,0.00069855,-0.01809430,-0.00890907,-0.01103586,0.31382242,0.00074942,
 -0.01994842,-0.00705859,-0.00014948,-0.10040799,-0.09230346,0.00786542
 ,-0.00889105,-0.00620926,0.00005846,0.00019656,0.00075877,0.00111361,0
 .00000133,0.00038987,-0.00401935,-0.00060253,-0.00198371,-0.00216208,0
 .02265187,0.01164208,-0.00345600,0.10700024,0.09476430\\-0.00011591,-0
 .00001995,-0.00004042,0.00021459,-0.00001853,-0.00015235,-0.00034510,0
 .00002115,0.00018965,0.00003217,0.00002033,0.00008453,0.00000622,0.000
 00878,-0.00000867,0.00000631,-0.00000693,-0.00000265,0.00009657,0.0000
 6633,-0.00005015,0.00010517,-0.00007118,-0.00001994\\\@


 MICRO CREDO - NEVER TRUST A COMPUTER BIGGER
               BIGGER THAN YOU CAN LIFT.
 Job cpu time:       0 days  0 hours  0 minutes 33.8 seconds.
 File lengths (MBytes):  RWF=    132 Int=      0 D2E=      0 Chk=      2 Scr=      2
 Normal termination of Gaussian 09 at Wed Mar 19 12:20:21 2025.
