 Entering Gaussian System, Link 0=g09
 Initial command:
 /apps/z_install_tree/linux-rocky8-ivybridge/gcc-12.2.0/gaussian-09-D.01-wczn3gur5lpur3omlkzwa2l5ecyxp5ef/g09/l1.exe "/srv/scratch/z5358697/com/Gau-2881249.inp" -scrdir="/srv/scratch/z5358697/com/"
 Entering Link 1 = /apps/z_install_tree/linux-rocky8-ivybridge/gcc-12.2.0/gaussian-09-D.01-wczn3gur5lpur3omlkzwa2l5ecyxp5ef/g09/l1.exe PID=   2881251.
  
 Copyright (c) 1988,1990,1992,1993,1995,1998,2003,2009,2013,
            Gaussian, Inc.  All Rights Reserved.
  
 This is part of the Gaussian(R) 09 program.  It is based on
 the Gaussian(R) 03 system (copyright 2003, Gaussian, Inc.),
 the Gaussian(R) 98 system (copyright 1998, Gaussian, Inc.),
 the Gaussian(R) 94 system (copyright 1995, Gaussian, Inc.),
 the Gaussian 92(TM) system (copyright 1992, Gaussian, Inc.),
 the Gaussian 90(TM) system (copyright 1990, Gaussian, Inc.),
 the Gaussian 88(TM) system (copyright 1988, Gaussian, Inc.),
 the Gaussian 86(TM) system (copyright 1986, Carnegie Mellon
 University), and the Gaussian 82(TM) system (copyright 1983,
 Carnegie Mellon University). Gaussian is a federally registered
 trademark of Gaussian, Inc.
  
 This software contains proprietary and confidential information,
 including trade secrets, belonging to Gaussian, Inc.
  
 This software is provided under written license and may be
 used, copied, transmitted, or stored only in accord with that
 written license.
  
 The following legend is applicable only to US Government
 contracts under FAR:
  
                    RESTRICTED RIGHTS LEGEND
  
 Use, reproduction and disclosure by the US Government is
 subject to restrictions as set forth in subparagraphs (a)
 and (c) of the Commercial Computer Software - Restricted
 Rights clause in FAR 52.227-19.
  
 Gaussian, Inc.
 340 Quinnipiac St., Bldg. 40, Wallingford CT 06492
  
  
 ---------------------------------------------------------------
 Warning -- This program may not be used in any manner that
 competes with the business of Gaussian, Inc. or will provide
 assistance to any competitor of Gaussian, Inc.  The licensee
 of this program is prohibited from giving any competitor of
 Gaussian, Inc. access to this program.  By using this program,
 the user acknowledges that Gaussian, Inc. is engaged in the
 business of creating and licensing software in the field of
 computational chemistry and represents and warrants to the
 licensee that it is not a competitor of Gaussian, Inc. and that
 it will not use this program in any manner prohibited above.
 ---------------------------------------------------------------
  

 Cite this work as:
 Gaussian 09, Revision D.01,
 M. J. Frisch, G. W. Trucks, H. B. Schlegel, G. E. Scuseria, 
 M. A. Robb, J. R. Cheeseman, G. Scalmani, V. Barone, B. Mennucci, 
 G. A. Petersson, H. Nakatsuji, M. Caricato, X. Li, H. P. Hratchian, 
 A. F. Izmaylov, J. Bloino, G. Zheng, J. L. Sonnenberg, M. Hada, 
 M. Ehara, K. Toyota, R. Fukuda, J. Hasegawa, M. Ishida, T. Nakajima, 
 Y. Honda, O. Kitao, H. Nakai, T. Vreven, J. A. Montgomery, Jr., 
 J. E. Peralta, F. Ogliaro, M. Bearpark, J. J. Heyd, E. Brothers, 
 K. N. Kudin, V. N. Staroverov, T. Keith, R. Kobayashi, J. Normand, 
 K. Raghavachari, A. Rendell, J. C. Burant, S. S. Iyengar, J. Tomasi, 
 M. Cossi, N. Rega, J. M. Millam, M. Klene, J. E. Knox, J. B. Cross, 
 V. Bakken, C. Adamo, J. Jaramillo, R. Gomperts, R. E. Stratmann, 
 O. Yazyev, A. J. Austin, R. Cammi, C. Pomelli, J. W. Ochterski, 
 R. L. Martin, K. Morokuma, V. G. Zakrzewski, G. A. Voth, 
 P. Salvador, J. J. Dannenberg, S. Dapprich, A. D. Daniels, 
 O. Farkas, J. B. Foresman, J. V. Ortiz, J. Cioslowski, 
 and D. J. Fox, Gaussian, Inc., Wallingford CT, 2013.
 
 ******************************************
 Gaussian 09:  ES64L-G09RevD.01 24-Apr-2013
                11-Mar-2025 
 ******************************************
 ---------------------------------
 #m062X/6-31+G(d) OPT Freq=noraman
 ---------------------------------
 1/14=-1,18=20,19=15,26=3,38=1/1,3;
 2/9=110,12=2,17=6,18=5,40=1/2;
 3/5=1,6=6,7=11,11=2,16=1,25=1,30=1,71=1,74=-55/1,2,3;
 4//1;
 5/5=2,38=5/2;
 6/7=2,8=2,9=2,10=2,28=1/1;
 7//1,2,3,16;
 1/14=-1,18=20,19=15,26=3/3(2);
 2/9=110/2;
 99//99;
 2/9=110/2;
 3/5=1,6=6,7=11,11=2,16=1,25=1,30=1,71=1,74=-55/1,2,3;
 4/5=5,16=3,69=1/1;
 5/5=2,38=5/2;
 7//1,2,3,16;
 1/14=-1,18=20,19=15,26=3/3(-5);
 2/9=110/2;
 6/7=2,8=2,9=2,10=2,19=2,28=1/1;
 99/9=1/99;
 ------------
 methanethiol
 ------------
 Symbolic Z-matrix:
 Charge =  0 Multiplicity = 1
 C                     0.2788    0.8226    0.6632 
 S                    -0.4279    2.3668    0.0544 
 H                    -0.0942    0.6141    1.669 
 H                     1.3683    0.9008    0.6963 
 H                    -0.0007   -0.0001    0.0007 
 H                     0.1845    2.3556   -1.1387 
 

 GradGradGradGradGradGradGradGradGradGradGradGradGradGradGradGradGradGrad
 Berny optimization.
 Initialization pass.
                           ----------------------------
                           !    Initial Parameters    !
                           ! (Angstroms and Degrees)  !
 --------------------------                            --------------------------
 ! Name  Definition              Value          Derivative Info.                !
 --------------------------------------------------------------------------------
 ! R1    R(1,2)                  1.8041         estimate D2E/DX2                !
 ! R2    R(1,3)                  1.0928         estimate D2E/DX2                !
 ! R3    R(1,4)                  1.0928         estimate D2E/DX2                !
 ! R4    R(1,5)                  1.0926         estimate D2E/DX2                !
 ! R5    R(2,6)                  1.3411         estimate D2E/DX2                !
 ! A1    A(2,1,3)              109.889          estimate D2E/DX2                !
 ! A2    A(2,1,4)              109.8473         estimate D2E/DX2                !
 ! A3    A(2,1,5)              109.857          estimate D2E/DX2                !
 ! A4    A(3,1,4)              109.0301         estimate D2E/DX2                !
 ! A5    A(3,1,5)              109.092          estimate D2E/DX2                !
 ! A6    A(4,1,5)              109.1034         estimate D2E/DX2                !
 ! A7    A(1,2,6)               96.5569         estimate D2E/DX2                !
 ! D1    D(3,1,2,6)           -179.9978         estimate D2E/DX2                !
 ! D2    D(4,1,2,6)             60.0532         estimate D2E/DX2                !
 ! D3    D(5,1,2,6)            -59.9663         estimate D2E/DX2                !
 --------------------------------------------------------------------------------
 Trust Radius=3.00D-01 FncErr=1.00D-07 GrdErr=1.00D-06
 Number of steps in this run=     25 maximum allowed number of steps=    100.
 GradGradGradGradGradGradGradGradGradGradGradGradGradGradGradGradGradGrad

                          Input orientation:                          
 ---------------------------------------------------------------------
 Center     Atomic      Atomic             Coordinates (Angstroms)
 Number     Number       Type             X           Y           Z
 ---------------------------------------------------------------------
      1          6           0        0.278800    0.822600    0.663200
      2         16           0       -0.427900    2.366800    0.054400
      3          1           0       -0.094200    0.614100    1.669000
      4          1           0        1.368300    0.900800    0.696300
      5          1           0       -0.000700   -0.000100    0.000700
      6          1           0        0.184500    2.355600   -1.138700
 ---------------------------------------------------------------------
                    Distance matrix (angstroms):
                    1          2          3          4          5
     1  C    0.000000
     2  S    1.804055   0.000000
     3  H    1.092811   2.406293   0.000000
     4  H    1.092804   2.405728   1.779676   0.000000
     5  H    1.092640   2.405743   1.780227   1.780349   0.000000
     6  H    2.367662   1.341136   3.315671   2.623938   2.623329
                    6
     6  H    0.000000
 Stoichiometry    CH4S
 Framework group  C1[X(CH4S)]
 Deg. of freedom    12
 Full point group                 C1      NOp   1
 Largest Abelian subgroup         C1      NOp   1
 Largest concise Abelian subgroup C1      NOp   1
                         Standard orientation:                         
 ---------------------------------------------------------------------
 Center     Atomic      Atomic             Coordinates (Angstroms)
 Number     Number       Type             X           Y           Z
 ---------------------------------------------------------------------
      1          6           0        1.143689    0.013573   -0.000104
      2         16           0       -0.657469   -0.088627   -0.000023
      3          1           0        1.573080   -0.991344   -0.000501
      4          1           0        1.485104    0.546595    0.890707
      5          1           0        1.485039    0.548425   -0.889641
      6          1           0       -0.885847    1.232921    0.000425
 ---------------------------------------------------------------------
 Rotational constants (GHZ):    102.8072012     13.0935516     12.5345433
 Standard basis: 6-31+G(d) (6D, 7F)
 There are    50 symmetry adapted cartesian basis functions of A   symmetry.
 There are    50 symmetry adapted basis functions of A   symmetry.
    50 basis functions,   104 primitive gaussians,    50 cartesian basis functions
    13 alpha electrons       13 beta electrons
       nuclear repulsion energy        56.5425532050 Hartrees.
 NAtoms=    6 NActive=    6 NUniq=    6 SFac= 1.00D+00 NAtFMM=   60 NAOKFM=F Big=F
 Integral buffers will be    131072 words long.
 Raffenetti 2 integral format.
 Two-electron integral symmetry is turned on.
 One-electron integrals computed using PRISM.
 NBasis=    50 RedAO= T EigKep=  9.90D-04  NBF=    50
 NBsUse=    50 1.00D-06 EigRej= -1.00D+00 NBFU=    50
 ExpMin= 4.05D-02 ExpMax= 2.19D+04 ExpMxC= 3.30D+03 IAcc=2 IRadAn=         4 AccDes= 0.00D+00
 Harris functional with IExCor= 1009 and IRadAn=       4 diagonalized for initial guess.
 HarFok:  IExCor= 1009 AccDes= 0.00D+00 IRadAn=         4 IDoV= 1 UseB2=F ITyADJ=14
 ICtDFT=  3500011 ScaDFX=  1.000000  1.000000  1.000000  1.000000
 FoFCou: FMM=F IPFlag=           0 FMFlag=      100000 FMFlg1=           0
         NFxFlg=           0 DoJE=T BraDBF=F KetDBF=T FulRan=T
         wScrn=  0.000000 ICntrl=     500 IOpCl=  0 I1Cent=   200000004 NGrid=           0
         NMat0=    1 NMatS0=      1 NMatT0=    0 NMatD0=    1 NMtDS0=    0 NMtDT0=    0
 Petite list used in FoFCou.
 Keep R1 ints in memory in canonical form, NReq=1709995.
 Requested convergence on RMS density matrix=1.00D-08 within 128 cycles.
 Requested convergence on MAX density matrix=1.00D-06.
 Requested convergence on             energy=1.00D-06.
 No special actions if energy rises.
 SCF Done:  E(RM062X) =  -438.628659686     A.U. after   10 cycles
            NFock= 10  Conv=0.74D-08     -V/T= 2.0033

 **********************************************************************

            Population analysis using the SCF density.

 **********************************************************************

 Orbital symmetries:
       Occupied  (A) (A) (A) (A) (A) (A) (A) (A) (A) (A) (A) (A)
                 (A)
       Virtual   (A) (A) (A) (A) (A) (A) (A) (A) (A) (A) (A) (A)
                 (A) (A) (A) (A) (A) (A) (A) (A) (A) (A) (A) (A)
                 (A) (A) (A) (A) (A) (A) (A) (A) (A) (A) (A) (A)
                 (A)
 The electronic state is 1-A.
 Alpha  occ. eigenvalues --  -89.91692 -10.57697  -8.26464  -6.18551  -6.18310
 Alpha  occ. eigenvalues --   -6.17831  -0.87982  -0.73164  -0.51989  -0.49997
 Alpha  occ. eigenvalues --   -0.45973  -0.38969  -0.29244
 Alpha virt. eigenvalues --    0.01581   0.03533   0.05876   0.06537   0.07243
 Alpha virt. eigenvalues --    0.09154   0.10002   0.11795   0.15199   0.16382
 Alpha virt. eigenvalues --    0.20883   0.21395   0.33901   0.50452   0.50985
 Alpha virt. eigenvalues --    0.54140   0.54751   0.63361   0.65082   0.69248
 Alpha virt. eigenvalues --    0.81477   0.82710   0.88952   0.90661   1.00116
 Alpha virt. eigenvalues --    1.01296   1.01771   1.16116   1.25308   1.32392
 Alpha virt. eigenvalues --    1.75203   1.75634   2.20316   2.30295   2.30325
 Alpha virt. eigenvalues --    3.96716   4.24912
          Condensed to atoms (all electrons):
               1          2          3          4          5          6
     1  C    5.587055   0.087057   0.379820   0.375575   0.375550  -0.012897
     2  S    0.087057  15.820224  -0.038977  -0.049391  -0.049309   0.260006
     3  H    0.379820  -0.038977   0.457477  -0.022764  -0.022683   0.002998
     4  H    0.375575  -0.049391  -0.022764   0.496166  -0.033457  -0.004072
     5  H    0.375550  -0.049309  -0.022683  -0.033457   0.496011  -0.004079
     6  H   -0.012897   0.260006   0.002998  -0.004072  -0.004079   0.656314
 Mulliken charges:
               1
     1  C   -0.792161
     2  S   -0.029610
     3  H    0.244130
     4  H    0.237943
     5  H    0.237968
     6  H    0.101730
 Sum of Mulliken charges =   0.00000
 Mulliken charges with hydrogens summed into heavy atoms:
               1
     1  C   -0.072121
     2  S    0.072121
 Electronic spatial extent (au):  <R**2>=            144.1030
 Charge=              0.0000 electrons
 Dipole moment (field-independent basis, Debye):
    X=              1.4637    Y=              1.0555    Z=              0.0006  Tot=              1.8046
 Quadrupole moment (field-independent basis, Debye-Ang):
   XX=            -20.5504   YY=            -19.4570   ZZ=            -22.9356
   XY=             -1.6050   XZ=             -0.0004   YZ=              0.0001
 Traceless Quadrupole moment (field-independent basis, Debye-Ang):
   XX=              0.4306   YY=              1.5240   ZZ=             -1.9546
   XY=             -1.6050   XZ=             -0.0004   YZ=              0.0001
 Octapole moment (field-independent basis, Debye-Ang**2):
  XXX=             -0.2174  YYY=              0.8089  ZZZ=              0.0026  XYY=              0.2358
  XXY=              1.2878  XXZ=              0.0015  XZZ=              2.6809  YZZ=              1.3618
  YYZ=             -0.0020  XYZ=             -0.0025
 Hexadecapole moment (field-independent basis, Debye-Ang**3):
 XXXX=           -135.3466 YYYY=            -36.4574 ZZZZ=            -38.2841 XXXY=             -3.5836
 XXXZ=             -0.0012 YYYX=             -3.5787 YYYZ=             -0.0002 ZZZX=              0.0018
 ZZZY=              0.0003 XXYY=            -27.2603 XXZZ=            -29.7670 YYZZ=            -12.7549
 XXYZ=             -0.0015 YYXZ=             -0.0035 ZZXY=              0.4204
 N-N= 5.654255320502D+01 E-N=-1.152808960965D+03  KE= 4.371681673132D+02
 Calling FoFJK, ICntrl=      2127 FMM=F ISym2X=0 I1Cent= 0 IOpClX= 0 NMat=1 NMatS=1 NMatT=0.
 ***** Axes restored to original set *****
 -------------------------------------------------------------------
 Center     Atomic                   Forces (Hartrees/Bohr)
 Number     Number              X              Y              Z
 -------------------------------------------------------------------
      1        6           0.007426113   -0.007494937   -0.004500155
      2       16          -0.006452961    0.008406219    0.001782967
      3        1          -0.001205187    0.003040570   -0.001713061
      4        1          -0.000620854   -0.001822151    0.002369346
      5        1           0.000044348   -0.001429712    0.002730682
      6        1           0.000808540   -0.000699990   -0.000669779
 -------------------------------------------------------------------
 Cartesian Forces:  Max     0.008406219 RMS     0.003951817

 GradGradGradGradGradGradGradGradGradGradGradGradGradGradGradGradGradGrad
 Berny optimization.
 FormGI is forming the generalized inverse of G from B-inverse, IUseBI=4.
 Internal  Forces:  Max     0.008440207 RMS     0.003611972
 Search for a local minimum.
 Step number   1 out of a maximum of   25
 All quantities printed in internal units (Hartrees-Bohrs-Radians)
 Mixed Optimization -- RFO/linear search
 Second derivative matrix not updated -- first step.
 The second derivative matrix:
                          R1        R2        R3        R4        R5
           R1           0.25800
           R2           0.00000   0.34490
           R3           0.00000   0.00000   0.34491
           R4           0.00000   0.00000   0.00000   0.34509
           R5           0.00000   0.00000   0.00000   0.00000   0.26332
           A1           0.00000   0.00000   0.00000   0.00000   0.00000
           A2           0.00000   0.00000   0.00000   0.00000   0.00000
           A3           0.00000   0.00000   0.00000   0.00000   0.00000
           A4           0.00000   0.00000   0.00000   0.00000   0.00000
           A5           0.00000   0.00000   0.00000   0.00000   0.00000
           A6           0.00000   0.00000   0.00000   0.00000   0.00000
           A7           0.00000   0.00000   0.00000   0.00000   0.00000
           D1           0.00000   0.00000   0.00000   0.00000   0.00000
           D2           0.00000   0.00000   0.00000   0.00000   0.00000
           D3           0.00000   0.00000   0.00000   0.00000   0.00000
                          A1        A2        A3        A4        A5
           A1           0.16000
           A2           0.00000   0.16000
           A3           0.00000   0.00000   0.16000
           A4           0.00000   0.00000   0.00000   0.16000
           A5           0.00000   0.00000   0.00000   0.00000   0.16000
           A6           0.00000   0.00000   0.00000   0.00000   0.00000
           A7           0.00000   0.00000   0.00000   0.00000   0.00000
           D1           0.00000   0.00000   0.00000   0.00000   0.00000
           D2           0.00000   0.00000   0.00000   0.00000   0.00000
           D3           0.00000   0.00000   0.00000   0.00000   0.00000
                          A6        A7        D1        D2        D3
           A6           0.16000
           A7           0.00000   0.16000
           D1           0.00000   0.00000   0.00317
           D2           0.00000   0.00000   0.00000   0.00317
           D3           0.00000   0.00000   0.00000   0.00000   0.00317
 ITU=  0
     Eigenvalues ---    0.00317   0.09890   0.09894   0.16000   0.16000
     Eigenvalues ---    0.16000   0.16000   0.25800   0.26332   0.34490
     Eigenvalues ---    0.34491   0.34509
 RFO step:  Lambda=-1.17961084D-03 EMin= 3.16655913D-03
 Linear search not attempted -- first point.
 Iteration  1 RMS(Cart)=  0.03104675 RMS(Int)=  0.00071219
 Iteration  2 RMS(Cart)=  0.00057431 RMS(Int)=  0.00046630
 Iteration  3 RMS(Cart)=  0.00000006 RMS(Int)=  0.00046630
 Variable       Old X    -DE/DX   Delta X   Delta X   Delta X     New X
                                 (Linear)    (Quad)   (Total)
    R1        3.40917   0.00844   0.00000   0.03257   0.03257   3.44174
    R2        2.06511  -0.00175   0.00000  -0.00505  -0.00505   2.06006
    R3        2.06510  -0.00067   0.00000  -0.00195  -0.00195   2.06315
    R4        2.06479  -0.00059   0.00000  -0.00170  -0.00170   2.06309
    R5        2.53438   0.00096   0.00000   0.00362   0.00362   2.53800
    A1        1.91792  -0.00749   0.00000  -0.05329  -0.05322   1.86471
    A2        1.91720   0.00464   0.00000   0.03230   0.03174   1.94893
    A3        1.91737   0.00464   0.00000   0.03209   0.03152   1.94889
    A4        1.90293  -0.00074   0.00000  -0.01119  -0.01112   1.89181
    A5        1.90401  -0.00083   0.00000  -0.01205  -0.01199   1.89203
    A6        1.90421  -0.00024   0.00000   0.01197   0.01091   1.91512
    A7        1.68524  -0.00201   0.00000  -0.01248  -0.01248   1.67276
    D1       -3.14155   0.00004   0.00000  -0.00061  -0.00062   3.14101
    D2        1.04813   0.00273   0.00000   0.02629   0.02716   1.07529
    D3       -1.04661  -0.00278   0.00000  -0.02875  -0.02961  -1.07622
         Item               Value     Threshold  Converged?
 Maximum Force            0.008440     0.000450     NO 
 RMS     Force            0.003612     0.000300     NO 
 Maximum Displacement     0.051290     0.001800     NO 
 RMS     Displacement     0.030972     0.001200     NO 
 Predicted change in Energy=-6.021170D-04
 GradGradGradGradGradGradGradGradGradGradGradGradGradGradGradGradGradGrad

                          Input orientation:                          
 ---------------------------------------------------------------------
 Center     Atomic      Atomic             Coordinates (Angstroms)
 Number     Number       Type             X           Y           Z
 ---------------------------------------------------------------------
      1          6           0        0.291105    0.816042    0.647691
      2         16           0       -0.438414    2.377811    0.059669
      3          1           0       -0.102040    0.641241    1.649330
      4          1           0        1.379295    0.878022    0.710699
      5          1           0        0.006015   -0.025805    0.013722
      6          1           0        0.172839    2.372488   -1.136211
 ---------------------------------------------------------------------
                    Distance matrix (angstroms):
                    1          2          3          4          5
     1  C    0.000000
     2  S    1.821288   0.000000
     3  H    1.090137   2.378202   0.000000
     4  H    1.091773   2.444846   1.769589   0.000000
     5  H    1.091741   2.444790   1.769700   1.785658   0.000000
     6  H    2.370405   1.343052   3.291202   2.664590   2.664955
                    6
     6  H    0.000000
 Stoichiometry    CH4S
 Framework group  C1[X(CH4S)]
 Deg. of freedom    12
 Full point group                 C1      NOp   1
 Largest Abelian subgroup         C1      NOp   1
 Largest concise Abelian subgroup C1      NOp   1
                         Standard orientation:                         
 ---------------------------------------------------------------------
 Center     Atomic      Atomic             Coordinates (Angstroms)
 Number     Number       Type             X           Y           Z
 ---------------------------------------------------------------------
      1          6           0        1.153838    0.016965   -0.000020
      2         16           0       -0.664533   -0.086067   -0.000003
      3          1           0        1.528166   -1.006889    0.000525
      4          1           0        1.528982    0.521386    0.892613
      5          1           0        1.528950    0.520649   -0.893044
      6          1           0       -0.876597    1.240137    0.000075
 ---------------------------------------------------------------------
 Rotational constants (GHZ):    102.9759789     12.8635783     12.3317905
 Standard basis: 6-31+G(d) (6D, 7F)
 There are    50 symmetry adapted cartesian basis functions of A   symmetry.
 There are    50 symmetry adapted basis functions of A   symmetry.
    50 basis functions,   104 primitive gaussians,    50 cartesian basis functions
    13 alpha electrons       13 beta electrons
       nuclear repulsion energy        56.2043957629 Hartrees.
 NAtoms=    6 NActive=    6 NUniq=    6 SFac= 1.00D+00 NAtFMM=   60 NAOKFM=F Big=F
 Integral buffers will be    131072 words long.
 Raffenetti 2 integral format.
 Two-electron integral symmetry is turned on.
 One-electron integrals computed using PRISM.
 NBasis=    50 RedAO= T EigKep=  1.04D-03  NBF=    50
 NBsUse=    50 1.00D-06 EigRej= -1.00D+00 NBFU=    50
 Initial guess from the checkpoint file:  "/srv/scratch/z5358697/com/Gau-2881251.chk"
 B after Tr=     0.000000    0.000000    0.000000
         Rot=    0.999990    0.000474    0.000001    0.004410 Ang=   0.51 deg.
 ExpMin= 4.05D-02 ExpMax= 2.19D+04 ExpMxC= 3.30D+03 IAcc=2 IRadAn=         4 AccDes= 0.00D+00
 Harris functional with IExCor= 1009 and IRadAn=       4 diagonalized for initial guess.
 HarFok:  IExCor= 1009 AccDes= 0.00D+00 IRadAn=         4 IDoV= 1 UseB2=F ITyADJ=14
 ICtDFT=  3500011 ScaDFX=  1.000000  1.000000  1.000000  1.000000
 FoFCou: FMM=F IPFlag=           0 FMFlag=      100000 FMFlg1=           0
         NFxFlg=           0 DoJE=T BraDBF=F KetDBF=T FulRan=T
         wScrn=  0.000000 ICntrl=     500 IOpCl=  0 I1Cent=   200000004 NGrid=           0
         NMat0=    1 NMatS0=      1 NMatT0=    0 NMatD0=    1 NMtDS0=    0 NMtDT0=    0
 Petite list used in FoFCou.
 Keep R1 ints in memory in canonical form, NReq=1709995.
 Requested convergence on RMS density matrix=1.00D-08 within 128 cycles.
 Requested convergence on MAX density matrix=1.00D-06.
 Requested convergence on             energy=1.00D-06.
 No special actions if energy rises.
 SCF Done:  E(RM062X) =  -438.629225503     A.U. after   10 cycles
            NFock= 10  Conv=0.32D-08     -V/T= 2.0034
 Calling FoFJK, ICntrl=      2127 FMM=F ISym2X=0 I1Cent= 0 IOpClX= 0 NMat=1 NMatS=1 NMatT=0.
 ***** Axes restored to original set *****
 -------------------------------------------------------------------
 Center     Atomic                   Forces (Hartrees/Bohr)
 Number     Number              X              Y              Z
 -------------------------------------------------------------------
      1        6           0.001018939   -0.001499189   -0.000003205
      2       16           0.000696163   -0.000787243   -0.000340116
      3        1          -0.000594474    0.000250488    0.000817883
      4        1          -0.000350423    0.000661765   -0.000060335
      5        1          -0.000421720    0.000597879   -0.000091167
      6        1          -0.000348486    0.000776301   -0.000323060
 -------------------------------------------------------------------
 Cartesian Forces:  Max     0.001499189 RMS     0.000646675

 GradGradGradGradGradGradGradGradGradGradGradGradGradGradGradGradGradGrad
 Berny optimization.
 Using GEDIIS/GDIIS optimizer.
 FormGI is forming the generalized inverse of G from B-inverse, IUseBI=4.
 Internal  Forces:  Max     0.002330285 RMS     0.000763571
 Search for a local minimum.
 Step number   2 out of a maximum of   25
 All quantities printed in internal units (Hartrees-Bohrs-Radians)
 Mixed Optimization -- En-DIIS/RFO-DIIS
 Update second derivatives using D2CorX and points    1    2
 DE= -5.66D-04 DEPred=-6.02D-04 R= 9.40D-01
 TightC=F SS=  1.41D+00  RLast= 9.00D-02 DXNew= 5.0454D-01 2.6993D-01
 Trust test= 9.40D-01 RLast= 9.00D-02 DXMaxT set to 3.00D-01
 The second derivative matrix:
                          R1        R2        R3        R4        R5
           R1           0.25399
           R2          -0.00556   0.34809
           R3           0.00241  -0.00022   0.34462
           R4           0.00226  -0.00024  -0.00025   0.34487
           R5          -0.00113  -0.00042   0.00030   0.00028   0.26312
           A1           0.01397   0.00247  -0.00288  -0.00264   0.00215
           A2          -0.00070  -0.00391   0.00138   0.00131  -0.00051
           A3          -0.00060  -0.00392   0.00137   0.00129  -0.00050
           A4           0.00456  -0.00001  -0.00067  -0.00061   0.00062
           A5           0.00508  -0.00006  -0.00073  -0.00066   0.00068
           A6          -0.02020   0.00503   0.00134   0.00115  -0.00220
           A7          -0.01515   0.00646   0.00013   0.00003  -0.00137
           D1           0.00022  -0.00007  -0.00001  -0.00001   0.00002
           D2           0.01755  -0.00567  -0.00074  -0.00059   0.00178
           D3          -0.01781   0.00576   0.00075   0.00060  -0.00180
                          A1        A2        A3        A4        A5
           A1           0.13751
           A2           0.00700   0.16067
           A3           0.00687   0.00072   0.16078
           A4          -0.00608   0.00250   0.00247   0.15849
           A5          -0.00669   0.00280   0.00277  -0.00165   0.15819
           A6           0.01917  -0.01243  -0.01236   0.00379   0.00407
           A7           0.01021  -0.01005  -0.01003   0.00128   0.00129
           D1          -0.00018   0.00014   0.00014  -0.00003  -0.00003
           D2          -0.01464   0.01115   0.01111  -0.00254  -0.00268
           D3           0.01484  -0.01132  -0.01127   0.00257   0.00272
                          A6        A7        D1        D2        D3
           A6           0.15834
           A7           0.00691   0.17196
           D1          -0.00002  -0.00011   0.00317
           D2          -0.00251  -0.00929   0.00006   0.00894
           D3           0.00256   0.00944  -0.00007  -0.00587   0.00914
 ITU=  1  0
 Use linear search instead of GDIIS.
     Eigenvalues ---    0.00317   0.09197   0.10157   0.14858   0.16000
     Eigenvalues ---    0.16000   0.18924   0.25753   0.26327   0.34455
     Eigenvalues ---    0.34503   0.34942
 RFO step:  Lambda=-4.61115584D-05 EMin= 3.16659064D-03
 Quartic linear search produced a step of -0.03617.
 Iteration  1 RMS(Cart)=  0.00749478 RMS(Int)=  0.00005322
 Iteration  2 RMS(Cart)=  0.00004287 RMS(Int)=  0.00001835
 Iteration  3 RMS(Cart)=  0.00000000 RMS(Int)=  0.00001835
 Variable       Old X    -DE/DX   Delta X   Delta X   Delta X     New X
                                 (Linear)    (Quad)   (Total)
    R1        3.44174   0.00008  -0.00118   0.00273   0.00156   3.44329
    R2        2.06006   0.00092   0.00018   0.00219   0.00238   2.06244
    R3        2.06315  -0.00031   0.00007  -0.00102  -0.00095   2.06220
    R4        2.06309  -0.00029   0.00006  -0.00095  -0.00089   2.06220
    R5        2.53800   0.00011  -0.00013   0.00067   0.00054   2.53854
    A1        1.86471  -0.00046   0.00193  -0.00705  -0.00514   1.85957
    A2        1.94893  -0.00066  -0.00115  -0.00148  -0.00261   1.94632
    A3        1.94889  -0.00065  -0.00114  -0.00143  -0.00256   1.94633
    A4        1.89181   0.00048   0.00040   0.00184   0.00224   1.89405
    A5        1.89203   0.00047   0.00043   0.00163   0.00205   1.89408
    A6        1.91512   0.00085  -0.00039   0.00631   0.00596   1.92108
    A7        1.67276   0.00233   0.00045   0.01310   0.01355   1.68631
    D1        3.14101   0.00001   0.00002   0.00029   0.00032   3.14133
    D2        1.07529   0.00007  -0.00098   0.00322   0.00220   1.07749
    D3       -1.07622  -0.00008   0.00107  -0.00287  -0.00176  -1.07798
         Item               Value     Threshold  Converged?
 Maximum Force            0.002330     0.000450     NO 
 RMS     Force            0.000764     0.000300     NO 
 Maximum Displacement     0.019298     0.001800     NO 
 RMS     Displacement     0.007484     0.001200     NO 
 Predicted change in Energy=-2.384637D-05
 GradGradGradGradGradGradGradGradGradGradGradGradGradGradGradGradGradGrad

                          Input orientation:                          
 ---------------------------------------------------------------------
 Center     Atomic      Atomic             Coordinates (Angstroms)
 Number     Number       Type             X           Y           Z
 ---------------------------------------------------------------------
      1          6           0        0.293323    0.811938    0.648748
      2         16           0       -0.435087    2.374202    0.058121
      3          1           0       -0.104203    0.643015    1.651036
      4          1           0        1.380751    0.876623    0.713482
      5          1           0        0.005227   -0.028678    0.015315
      6          1           0        0.168789    2.382700   -1.141801
 ---------------------------------------------------------------------
                    Distance matrix (angstroms):
                    1          2          3          4          5
     1  C    0.000000
     2  S    1.822112   0.000000
     3  H    1.091395   2.375683   0.000000
     4  H    1.091272   2.443257   1.771629   0.000000
     5  H    1.091271   2.443265   1.771646   1.788596   0.000000
     6  H    2.385135   1.343335   3.301661   2.679402   2.679630
                    6
     6  H    0.000000
 Stoichiometry    CH4S
 Framework group  C1[X(CH4S)]
 Deg. of freedom    12
 Full point group                 C1      NOp   1
 Largest Abelian subgroup         C1      NOp   1
 Largest concise Abelian subgroup C1      NOp   1
                         Standard orientation:                         
 ---------------------------------------------------------------------
 Center     Atomic      Atomic             Coordinates (Angstroms)
 Number     Number       Type             X           Y           Z
 ---------------------------------------------------------------------
      1          6           0        1.155438    0.018931   -0.000004
      2         16           0       -0.663612   -0.086644   -0.000001
      3          1           0        1.526337   -1.007508    0.000269
      4          1           0        1.527146    0.522065    0.894179
      5          1           0        1.527179    0.521631   -0.894417
      6          1           0       -0.895496    1.236527    0.000005
 ---------------------------------------------------------------------
 Rotational constants (GHZ):    102.9252831     12.8530346     12.3245541
 Standard basis: 6-31+G(d) (6D, 7F)
 There are    50 symmetry adapted cartesian basis functions of A   symmetry.
 There are    50 symmetry adapted basis functions of A   symmetry.
    50 basis functions,   104 primitive gaussians,    50 cartesian basis functions
    13 alpha electrons       13 beta electrons
       nuclear repulsion energy        56.1857539447 Hartrees.
 NAtoms=    6 NActive=    6 NUniq=    6 SFac= 1.00D+00 NAtFMM=   60 NAOKFM=F Big=F
 Integral buffers will be    131072 words long.
 Raffenetti 2 integral format.
 Two-electron integral symmetry is turned on.
 One-electron integrals computed using PRISM.
 NBasis=    50 RedAO= T EigKep=  1.04D-03  NBF=    50
 NBsUse=    50 1.00D-06 EigRej= -1.00D+00 NBFU=    50
 Initial guess from the checkpoint file:  "/srv/scratch/z5358697/com/Gau-2881251.chk"
 B after Tr=     0.000000    0.000000    0.000000
         Rot=    1.000000   -0.000056    0.000002   -0.000942 Ang=  -0.11 deg.
 Keep R1 ints in memory in canonical form, NReq=1709995.
 Requested convergence on RMS density matrix=1.00D-08 within 128 cycles.
 Requested convergence on MAX density matrix=1.00D-06.
 Requested convergence on             energy=1.00D-06.
 No special actions if energy rises.
 SCF Done:  E(RM062X) =  -438.629249360     A.U. after    8 cycles
            NFock=  8  Conv=0.78D-08     -V/T= 2.0034
 Calling FoFJK, ICntrl=      2127 FMM=F ISym2X=0 I1Cent= 0 IOpClX= 0 NMat=1 NMatS=1 NMatT=0.
 ***** Axes restored to original set *****
 -------------------------------------------------------------------
 Center     Atomic                   Forces (Hartrees/Bohr)
 Number     Number              X              Y              Z
 -------------------------------------------------------------------
      1        6           0.000281947   -0.000355308   -0.000091150
      2       16          -0.000004250   -0.000117437    0.000162867
      3        1          -0.000152100    0.000217521    0.000014023
      4        1          -0.000107419    0.000162521   -0.000054127
      5        1          -0.000074541    0.000183794   -0.000036525
      6        1           0.000056363   -0.000091091    0.000004912
 -------------------------------------------------------------------
 Cartesian Forces:  Max     0.000355308 RMS     0.000152403

 GradGradGradGradGradGradGradGradGradGradGradGradGradGradGradGradGradGrad
 Berny optimization.
 Using GEDIIS/GDIIS optimizer.
 FormGI is forming the generalized inverse of G from B-inverse, IUseBI=4.
 Internal  Forces:  Max     0.000310268 RMS     0.000166393
 Search for a local minimum.
 Step number   3 out of a maximum of   25
 All quantities printed in internal units (Hartrees-Bohrs-Radians)
 Mixed Optimization -- En-DIIS/RFO-DIIS
 Swapping is turned off.
 Update second derivatives using D2CorX and points    1    2    3
 DE= -2.39D-05 DEPred=-2.38D-05 R= 1.00D+00
 TightC=F SS=  1.41D+00  RLast= 1.69D-02 DXNew= 5.0454D-01 5.0751D-02
 Trust test= 1.00D+00 RLast= 1.69D-02 DXMaxT set to 3.00D-01
 The second derivative matrix:
                          R1        R2        R3        R4        R5
           R1           0.25990
           R2          -0.00126   0.34734
           R3           0.00193   0.00158   0.34348
           R4           0.00189   0.00155  -0.00136   0.34380
           R5          -0.00044  -0.00061   0.00063   0.00060   0.26308
           A1           0.01480   0.00949  -0.00645  -0.00605   0.00338
           A2          -0.00145  -0.00173  -0.00006  -0.00010  -0.00011
           A3          -0.00125  -0.00168  -0.00008  -0.00010  -0.00009
           A4           0.00475  -0.00243   0.00072   0.00073   0.00019
           A5           0.00524  -0.00231   0.00055   0.00057   0.00028
           A6          -0.01955  -0.00115   0.00494   0.00461  -0.00330
           A7           0.00091   0.01019   0.00323   0.00327  -0.00092
           D1           0.00030   0.00002  -0.00003  -0.00003   0.00004
           D2           0.01964  -0.00322  -0.00142  -0.00122   0.00218
           D3          -0.01999   0.00318   0.00147   0.00126  -0.00223
                          A1        A2        A3        A4        A5
           A1           0.12730
           A2           0.00241   0.15885
           A3           0.00232  -0.00109   0.15897
           A4          -0.00187   0.00427   0.00423   0.15682
           A5          -0.00282   0.00444   0.00439  -0.00319   0.15677
           A6           0.03007  -0.00786  -0.00781  -0.00053   0.00008
           A7           0.02568  -0.00650  -0.00626  -0.00346  -0.00313
           D1          -0.00022   0.00011   0.00011  -0.00001  -0.00001
           D2          -0.01585   0.01024   0.01023  -0.00186  -0.00207
           D3           0.01614  -0.01035  -0.01034   0.00186   0.00207
                          A6        A7        D1        D2        D3
           A6           0.14715
           A7          -0.00501   0.19933
           D1           0.00004   0.00017   0.00317
           D2          -0.00070  -0.00168   0.00008   0.00946
           D3           0.00065   0.00146  -0.00009  -0.00641   0.00970
 ITU=  1  1  0
     Eigenvalues ---    0.00317   0.08775   0.10204   0.13238   0.16000
     Eigenvalues ---    0.16486   0.20956   0.26071   0.26316   0.34219
     Eigenvalues ---    0.34501   0.34950
 En-DIIS/RFO-DIIS IScMMF=        0 using points:     3    2
 RFO step:  Lambda=-1.00917441D-06.
 DidBck=F Rises=F RFO-DIIS coefs:    1.02610   -0.02610
 Iteration  1 RMS(Cart)=  0.00137859 RMS(Int)=  0.00000171
 Iteration  2 RMS(Cart)=  0.00000133 RMS(Int)=  0.00000102
 Iteration  3 RMS(Cart)=  0.00000000 RMS(Int)=  0.00000102
 Variable       Old X    -DE/DX   Delta X   Delta X   Delta X     New X
                                 (Linear)    (Quad)   (Total)
    R1        3.44329  -0.00025   0.00004  -0.00083  -0.00079   3.44250
    R2        2.06244   0.00003   0.00006   0.00015   0.00021   2.06265
    R3        2.06220  -0.00010  -0.00002  -0.00033  -0.00035   2.06185
    R4        2.06220  -0.00010  -0.00002  -0.00032  -0.00035   2.06186
    R5        2.53854   0.00001   0.00001   0.00006   0.00008   2.53861
    A1        1.85957  -0.00031  -0.00013  -0.00238  -0.00251   1.85706
    A2        1.94632  -0.00016  -0.00007  -0.00094  -0.00101   1.94531
    A3        1.94633  -0.00015  -0.00007  -0.00093  -0.00100   1.94533
    A4        1.89405   0.00021   0.00006   0.00132   0.00137   1.89542
    A5        1.89408   0.00021   0.00005   0.00129   0.00134   1.89542
    A6        1.92108   0.00021   0.00016   0.00164   0.00180   1.92288
    A7        1.68631  -0.00024   0.00035  -0.00120  -0.00085   1.68546
    D1        3.14133   0.00000   0.00001   0.00022   0.00023   3.14156
    D2        1.07749   0.00002   0.00006   0.00059   0.00065   1.07813
    D3       -1.07798  -0.00002  -0.00005  -0.00018  -0.00022  -1.07820
         Item               Value     Threshold  Converged?
 Maximum Force            0.000310     0.000450     YES
 RMS     Force            0.000166     0.000300     YES
 Maximum Displacement     0.002211     0.001800     NO 
 RMS     Displacement     0.001379     0.001200     NO 
 Predicted change in Energy=-1.263199D-06
 GradGradGradGradGradGradGradGradGradGradGradGradGradGradGradGradGradGrad

                          Input orientation:                          
 ---------------------------------------------------------------------
 Center     Atomic      Atomic             Coordinates (Angstroms)
 Number     Number       Type             X           Y           Z
 ---------------------------------------------------------------------
      1          6           0        0.293818    0.811396    0.648534
      2         16           0       -0.434914    2.373441    0.059017
      3          1           0       -0.104904    0.644185    1.650754
      4          1           0        1.380989    0.877449    0.713063
      5          1           0        0.004847   -0.028215    0.014483
      6          1           0        0.168964    2.381543   -1.140952
 ---------------------------------------------------------------------
                    Distance matrix (angstroms):
                    1          2          3          4          5
     1  C    0.000000
     2  S    1.821693   0.000000
     3  H    1.091505   2.373365   0.000000
     4  H    1.091086   2.441981   1.772442   0.000000
     5  H    1.091087   2.441992   1.772441   1.789415   0.000000
     6  H    2.383948   1.343377   3.299551   2.677437   2.677479
                    6
     6  H    0.000000
 Stoichiometry    CH4S
 Framework group  C1[X(CH4S)]
 Deg. of freedom    12
 Full point group                 C1      NOp   1
 Largest Abelian subgroup         C1      NOp   1
 Largest concise Abelian subgroup C1      NOp   1
                         Standard orientation:                         
 ---------------------------------------------------------------------
 Center     Atomic      Atomic             Coordinates (Angstroms)
 Number     Number       Type             X           Y           Z
 ---------------------------------------------------------------------
      1          6           0        1.155302    0.018992    0.000000
      2         16           0       -0.663329   -0.086590    0.000000
      3          1           0        1.523676   -1.008473    0.000038
      4          1           0        1.525939    0.521606    0.894692
      5          1           0        1.525957    0.521542   -0.894723
      6          1           0       -0.894117    1.236814   -0.000002
 ---------------------------------------------------------------------
 Rotational constants (GHZ):    102.8547978     12.8634708     12.3340260
 Standard basis: 6-31+G(d) (6D, 7F)
 There are    50 symmetry adapted cartesian basis functions of A   symmetry.
 There are    50 symmetry adapted basis functions of A   symmetry.
    50 basis functions,   104 primitive gaussians,    50 cartesian basis functions
    13 alpha electrons       13 beta electrons
       nuclear repulsion energy        56.2004205046 Hartrees.
 NAtoms=    6 NActive=    6 NUniq=    6 SFac= 1.00D+00 NAtFMM=   60 NAOKFM=F Big=F
 Integral buffers will be    131072 words long.
 Raffenetti 2 integral format.
 Two-electron integral symmetry is turned on.
 One-electron integrals computed using PRISM.
 NBasis=    50 RedAO= T EigKep=  1.04D-03  NBF=    50
 NBsUse=    50 1.00D-06 EigRej= -1.00D+00 NBFU=    50
 Initial guess from the checkpoint file:  "/srv/scratch/z5358697/com/Gau-2881251.chk"
 B after Tr=     0.000000    0.000000    0.000000
         Rot=    1.000000   -0.000069   -0.000001    0.000104 Ang=  -0.01 deg.
 Keep R1 ints in memory in canonical form, NReq=1709995.
 Requested convergence on RMS density matrix=1.00D-08 within 128 cycles.
 Requested convergence on MAX density matrix=1.00D-06.
 Requested convergence on             energy=1.00D-06.
 No special actions if energy rises.
 SCF Done:  E(RM062X) =  -438.629250515     A.U. after    8 cycles
            NFock=  8  Conv=0.57D-08     -V/T= 2.0034
 Calling FoFJK, ICntrl=      2127 FMM=F ISym2X=0 I1Cent= 0 IOpClX= 0 NMat=1 NMatS=1 NMatT=0.
 ***** Axes restored to original set *****
 -------------------------------------------------------------------
 Center     Atomic                   Forces (Hartrees/Bohr)
 Number     Number              X              Y              Z
 -------------------------------------------------------------------
      1        6          -0.000008445   -0.000077578    0.000116200
      2       16          -0.000018488    0.000094695   -0.000087160
      3        1           0.000035937   -0.000022526   -0.000041090
      4        1          -0.000018647   -0.000007279    0.000001042
      5        1           0.000008433    0.000011971    0.000014659
      6        1           0.000001211    0.000000717   -0.000003650
 -------------------------------------------------------------------
 Cartesian Forces:  Max     0.000116200 RMS     0.000047628

 GradGradGradGradGradGradGradGradGradGradGradGradGradGradGradGradGradGrad
 Berny optimization.
 Using GEDIIS/GDIIS optimizer.
 FormGI is forming the generalized inverse of G from B-inverse, IUseBI=4.
 Internal  Forces:  Max     0.000125581 RMS     0.000042820
 Search for a local minimum.
 Step number   4 out of a maximum of   25
 All quantities printed in internal units (Hartrees-Bohrs-Radians)
 Mixed Optimization -- En-DIIS/RFO-DIIS
 Swapping is turned off.
 Update second derivatives using D2CorX and points    1    2    3    4
 DE= -1.15D-06 DEPred=-1.26D-06 R= 9.14D-01
 TightC=F SS=  1.41D+00  RLast= 4.17D-03 DXNew= 5.0454D-01 1.2516D-02
 Trust test= 9.14D-01 RLast= 4.17D-03 DXMaxT set to 3.00D-01
 The second derivative matrix:
                          R1        R2        R3        R4        R5
           R1           0.28049
           R2          -0.00945   0.35054
           R3           0.00356   0.00088   0.34172
           R4           0.00337   0.00091  -0.00314   0.34200
           R5          -0.00186  -0.00006   0.00059   0.00057   0.26317
           A1           0.03357   0.00202  -0.00810  -0.00785   0.00224
           A2           0.00306  -0.00360  -0.00213  -0.00220  -0.00033
           A3           0.00299  -0.00346  -0.00219  -0.00226  -0.00029
           A4          -0.00510   0.00153   0.00228   0.00237   0.00076
           A5          -0.00449   0.00161   0.00207   0.00217   0.00085
           A6          -0.02775   0.00219   0.00770   0.00744  -0.00287
           A7           0.00719   0.00760   0.00305   0.00304  -0.00134
           D1           0.00022   0.00005  -0.00003  -0.00003   0.00004
           D2           0.01539  -0.00159  -0.00223  -0.00200   0.00247
           D3          -0.01569   0.00153   0.00230   0.00207  -0.00252
                          A1        A2        A3        A4        A5
           A1           0.13905
           A2           0.00252   0.15673
           A3           0.00215  -0.00331   0.15665
           A4          -0.00689   0.00509   0.00521   0.15862
           A5          -0.00781   0.00522   0.00533  -0.00139   0.15858
           A6           0.02820  -0.00527  -0.00506  -0.00082  -0.00017
           A7           0.03037  -0.00601  -0.00586  -0.00563  -0.00528
           D1          -0.00028   0.00010   0.00010   0.00002   0.00001
           D2          -0.02034   0.00865   0.00869   0.00071   0.00047
           D3           0.02070  -0.00872  -0.00876  -0.00077  -0.00052
                          A6        A7        D1        D2        D3
           A6           0.14428
           A7          -0.00634   0.20088
           D1           0.00005   0.00015   0.00317
           D2           0.00184  -0.00315   0.00010   0.01011
           D3          -0.00196   0.00296  -0.00010  -0.00706   0.01035
 ITU=  1  1  1  0
     Eigenvalues ---    0.00317   0.09192   0.10224   0.13131   0.15901
     Eigenvalues ---    0.16000   0.21358   0.26310   0.29025   0.33992
     Eigenvalues ---    0.34500   0.35260
 En-DIIS/RFO-DIIS IScMMF=        0 using points:     4    3    2
 RFO step:  Lambda=-5.32141080D-08.
 DidBck=F Rises=F RFO-DIIS coefs:    0.86562    0.13815   -0.00377
 Iteration  1 RMS(Cart)=  0.00022188 RMS(Int)=  0.00000008
 Iteration  2 RMS(Cart)=  0.00000003 RMS(Int)=  0.00000008
 Variable       Old X    -DE/DX   Delta X   Delta X   Delta X     New X
                                 (Linear)    (Quad)   (Total)
    R1        3.44250   0.00013   0.00011   0.00028   0.00039   3.44289
    R2        2.06265  -0.00005  -0.00002  -0.00012  -0.00014   2.06251
    R3        2.06185  -0.00002   0.00004  -0.00008  -0.00004   2.06181
    R4        2.06186  -0.00002   0.00004  -0.00009  -0.00004   2.06181
    R5        2.53861  -0.00001  -0.00001  -0.00002  -0.00003   2.53859
    A1        1.85706   0.00008   0.00032   0.00014   0.00046   1.85751
    A2        1.94531  -0.00001   0.00013  -0.00021  -0.00008   1.94523
    A3        1.94533  -0.00001   0.00013  -0.00022  -0.00009   1.94524
    A4        1.89542  -0.00002  -0.00018   0.00012  -0.00005   1.89537
    A5        1.89542  -0.00002  -0.00017   0.00012  -0.00005   1.89537
    A6        1.92288  -0.00001  -0.00022   0.00006  -0.00016   1.92272
    A7        1.68546   0.00003   0.00017  -0.00012   0.00005   1.68551
    D1        3.14156   0.00000  -0.00003   0.00006   0.00003   3.14159
    D2        1.07813  -0.00002  -0.00008  -0.00006  -0.00014   1.07799
    D3       -1.07820   0.00002   0.00002   0.00017   0.00019  -1.07801
         Item               Value     Threshold  Converged?
 Maximum Force            0.000126     0.000450     YES
 RMS     Force            0.000043     0.000300     YES
 Maximum Displacement     0.000519     0.001800     YES
 RMS     Displacement     0.000222     0.001200     YES
 Predicted change in Energy=-5.309018D-08
 Optimization completed.
    -- Stationary point found.
                           ----------------------------
                           !   Optimized Parameters   !
                           ! (Angstroms and Degrees)  !
 --------------------------                            --------------------------
 ! Name  Definition              Value          Derivative Info.                !
 --------------------------------------------------------------------------------
 ! R1    R(1,2)                  1.8217         -DE/DX =    0.0001              !
 ! R2    R(1,3)                  1.0915         -DE/DX =   -0.0001              !
 ! R3    R(1,4)                  1.0911         -DE/DX =    0.0                 !
 ! R4    R(1,5)                  1.0911         -DE/DX =    0.0                 !
 ! R5    R(2,6)                  1.3434         -DE/DX =    0.0                 !
 ! A1    A(2,1,3)              106.4015         -DE/DX =    0.0001              !
 ! A2    A(2,1,4)              111.4583         -DE/DX =    0.0                 !
 ! A3    A(2,1,5)              111.459          -DE/DX =    0.0                 !
 ! A4    A(3,1,4)              108.5997         -DE/DX =    0.0                 !
 ! A5    A(3,1,5)              108.5995         -DE/DX =    0.0                 !
 ! A6    A(4,1,5)              110.1727         -DE/DX =    0.0                 !
 ! A7    A(1,2,6)               96.5697         -DE/DX =    0.0                 !
 ! D1    D(3,1,2,6)            179.998          -DE/DX =    0.0                 !
 ! D2    D(4,1,2,6)             61.7723         -DE/DX =    0.0                 !
 ! D3    D(5,1,2,6)            -61.7762         -DE/DX =    0.0                 !
 --------------------------------------------------------------------------------
 GradGradGradGradGradGradGradGradGradGradGradGradGradGradGradGradGradGrad

                          Input orientation:                          
 ---------------------------------------------------------------------
 Center     Atomic      Atomic             Coordinates (Angstroms)
 Number     Number       Type             X           Y           Z
 ---------------------------------------------------------------------
      1          6           0        0.293818    0.811396    0.648534
      2         16           0       -0.434914    2.373441    0.059017
      3          1           0       -0.104904    0.644185    1.650754
      4          1           0        1.380989    0.877449    0.713063
      5          1           0        0.004847   -0.028215    0.014483
      6          1           0        0.168964    2.381543   -1.140952
 ---------------------------------------------------------------------
                    Distance matrix (angstroms):
                    1          2          3          4          5
     1  C    0.000000
     2  S    1.821693   0.000000
     3  H    1.091505   2.373365   0.000000
     4  H    1.091086   2.441981   1.772442   0.000000
     5  H    1.091087   2.441992   1.772441   1.789415   0.000000
     6  H    2.383948   1.343377   3.299551   2.677437   2.677479
                    6
     6  H    0.000000
 Stoichiometry    CH4S
 Framework group  C1[X(CH4S)]
 Deg. of freedom    12
 Full point group                 C1      NOp   1
 Largest Abelian subgroup         C1      NOp   1
 Largest concise Abelian subgroup C1      NOp   1
                         Standard orientation:                         
 ---------------------------------------------------------------------
 Center     Atomic      Atomic             Coordinates (Angstroms)
 Number     Number       Type             X           Y           Z
 ---------------------------------------------------------------------
      1          6           0        1.155302    0.018992    0.000000
      2         16           0       -0.663329   -0.086590    0.000000
      3          1           0        1.523676   -1.008473    0.000038
      4          1           0        1.525939    0.521606    0.894692
      5          1           0        1.525957    0.521542   -0.894723
      6          1           0       -0.894117    1.236814   -0.000002
 ---------------------------------------------------------------------
 Rotational constants (GHZ):    102.8547978     12.8634708     12.3340260

 **********************************************************************

            Population analysis using the SCF density.

 **********************************************************************

 Orbital symmetries:
       Occupied  (A) (A) (A) (A) (A) (A) (A) (A) (A) (A) (A) (A)
                 (A)
       Virtual   (A) (A) (A) (A) (A) (A) (A) (A) (A) (A) (A) (A)
                 (A) (A) (A) (A) (A) (A) (A) (A) (A) (A) (A) (A)
                 (A) (A) (A) (A) (A) (A) (A) (A) (A) (A) (A) (A)
                 (A)
 The electronic state is 1-A.
 Alpha  occ. eigenvalues --  -89.91811 -10.57758  -8.26549  -6.18635  -6.18393
 Alpha  occ. eigenvalues --   -6.17915  -0.87619  -0.73309  -0.51946  -0.50048
 Alpha  occ. eigenvalues --   -0.45347  -0.39182  -0.29399
 Alpha virt. eigenvalues --    0.01569   0.03484   0.05895   0.06559   0.07238
 Alpha virt. eigenvalues --    0.09124   0.09979   0.11512   0.15173   0.16068
 Alpha virt. eigenvalues --    0.20982   0.21797   0.33843   0.50500   0.50942
 Alpha virt. eigenvalues --    0.54126   0.54728   0.63404   0.64902   0.69406
 Alpha virt. eigenvalues --    0.81430   0.82845   0.88387   0.91659   0.99314
 Alpha virt. eigenvalues --    1.00688   1.02051   1.16165   1.25122   1.32258
 Alpha virt. eigenvalues --    1.74282   1.75708   2.18860   2.30105   2.31117
 Alpha virt. eigenvalues --    3.96464   4.24750
          Condensed to atoms (all electrons):
               1          2          3          4          5          6
     1  C    5.576723   0.095150   0.381000   0.373386   0.373384  -0.011251
     2  S    0.095150  15.813498  -0.043630  -0.045164  -0.045163   0.258355
     3  H    0.381000  -0.043630   0.464704  -0.023403  -0.023404   0.003045
     4  H    0.373386  -0.045164  -0.023403   0.492137  -0.032114  -0.003604
     5  H    0.373384  -0.045163  -0.023404  -0.032114   0.492139  -0.003604
     6  H   -0.011251   0.258355   0.003045  -0.003604  -0.003604   0.654835
 Mulliken charges:
               1
     1  C   -0.788393
     2  S   -0.033046
     3  H    0.241689
     4  H    0.238762
     5  H    0.238762
     6  H    0.102225
 Sum of Mulliken charges =   0.00000
 Mulliken charges with hydrogens summed into heavy atoms:
               1
     1  C   -0.069180
     2  S    0.069180
 Electronic spatial extent (au):  <R**2>=            145.4763
 Charge=              0.0000 electrons
 Dipole moment (field-independent basis, Debye):
    X=              1.4440    Y=              1.0237    Z=              0.0000  Tot=              1.7701
 Quadrupole moment (field-independent basis, Debye-Ang):
   XX=            -20.4771   YY=            -19.5091   ZZ=            -22.9218
   XY=             -1.5172   XZ=              0.0000   YZ=              0.0000
 Traceless Quadrupole moment (field-independent basis, Debye-Ang):
   XX=              0.4922   YY=              1.4602   ZZ=             -1.9525
   XY=             -1.5172   XZ=              0.0000   YZ=              0.0000
 Octapole moment (field-independent basis, Debye-Ang**2):
  XXX=             -0.2702  YYY=              0.7259  ZZZ=             -0.0001  XYY=              0.1130
  XXY=              1.5173  XXZ=              0.0000  XZZ=              2.7760  YZZ=              1.3187
  YYZ=              0.0001  XYZ=              0.0000
 Hexadecapole moment (field-independent basis, Debye-Ang**3):
 XXXX=           -137.0568 YYYY=            -36.4237 ZZZZ=            -38.3118 XXXY=             -2.8396
 XXXZ=             -0.0001 YYYX=             -3.5340 YYYZ=              0.0000 ZZZX=             -0.0001
 ZZZY=              0.0000 XXYY=            -27.7686 XXZZ=            -29.7604 YYZZ=            -12.8212
 XXYZ=              0.0000 YYXZ=              0.0001 ZZXY=              0.4695
 N-N= 5.620042050457D+01 E-N=-1.152104315804D+03  KE= 4.371452656768D+02
 1\1\GINC-KATANA1\FOpt\RM062X\6-31+G(d)\C1H4S1\Z5358697\11-Mar-2025\0\\
 #m062X/6-31+G(d) OPT Freq=noraman\\methanethiol\\0,1\C,0.2938178357,0.
 8113961926,0.6485339867\S,-0.43491429,2.3734414739,0.0590174527\H,-0.1
 049035616,0.6441852056,1.6507539344\H,1.3809887615,0.8774493639,0.7130
 631966\H,0.0048469651,-0.028214816,0.0144832917\H,0.1689642894,2.38154
 25801,-1.1409518621\\Version=ES64L-G09RevD.01\State=1-A\HF=-438.629250
 5\RMSD=5.740e-09\RMSF=4.763e-05\Dipole=0.4202747,-0.5405538,-0.1270835
 \Quadrupole=-0.9490557,-0.3580075,1.3070632,-0.2014775,-0.728734,-1.02
 08127\PG=C01 [X(C1H4S1)]\\@


 ... SUBJECTS WHICH DISCLOSE THEIR FULL POWER, MEANING AND BEAUTY AS SOON
 AS THEY ARE PRESENTED TO THE MIND HAVE VERY LITTLE OF THOSE QUALITIES
 TO DISCLOSE.
                           -- CHARLES DUTTON (1882)
 Job cpu time:       0 days  0 hours  0 minutes 16.6 seconds.
 File lengths (MBytes):  RWF=    132 Int=      0 D2E=      0 Chk=      2 Scr=      2
 Normal termination of Gaussian 09 at Tue Mar 11 10:47:42 2025.
 Link1:  Proceeding to internal job step number  2.
 ---------------------------------------------------------------------
 #N Geom=AllCheck Guess=TCheck SCRF=Check GenChk RM062X/6-31+G(d) Freq
 ---------------------------------------------------------------------
 1/10=4,29=7,30=1,38=1,40=1/1,3;
 2/12=2,40=1/2;
 3/5=1,6=6,7=11,11=2,14=-4,16=1,25=1,30=1,70=2,71=2,74=-55,116=1,140=1/1,2,3;
 4/5=101/1;
 5/5=2,98=1/2;
 8/6=4,10=90,11=11/1;
 11/6=1,8=1,9=11,15=111,16=1/1,2,10;
 10/6=1/2;
 6/7=2,8=2,9=2,10=2,18=1,28=1/1;
 7/8=1,10=1,25=1/1,2,3,16;
 1/10=4,30=1/3;
 99//99;
 Structure from the checkpoint file:  "/srv/scratch/z5358697/com/Gau-2881251.chk"
 ------------
 methanethiol
 ------------
 Charge =  0 Multiplicity = 1
 Redundant internal coordinates found in file.
 C,0,0.2938178357,0.8113961926,0.6485339867
 S,0,-0.43491429,2.3734414739,0.0590174527
 H,0,-0.1049035616,0.6441852056,1.6507539344
 H,0,1.3809887615,0.8774493639,0.7130631966
 H,0,0.0048469651,-0.028214816,0.0144832917
 H,0,0.1689642894,2.3815425801,-1.1409518621
 Recover connectivity data from disk.

 GradGradGradGradGradGradGradGradGradGradGradGradGradGradGradGradGradGrad
 Berny optimization.
 Initialization pass.
                           ----------------------------
                           !    Initial Parameters    !
                           ! (Angstroms and Degrees)  !
 --------------------------                            --------------------------
 ! Name  Definition              Value          Derivative Info.                !
 --------------------------------------------------------------------------------
 ! R1    R(1,2)                  1.8217         calculate D2E/DX2 analytically  !
 ! R2    R(1,3)                  1.0915         calculate D2E/DX2 analytically  !
 ! R3    R(1,4)                  1.0911         calculate D2E/DX2 analytically  !
 ! R4    R(1,5)                  1.0911         calculate D2E/DX2 analytically  !
 ! R5    R(2,6)                  1.3434         calculate D2E/DX2 analytically  !
 ! A1    A(2,1,3)              106.4015         calculate D2E/DX2 analytically  !
 ! A2    A(2,1,4)              111.4583         calculate D2E/DX2 analytically  !
 ! A3    A(2,1,5)              111.459          calculate D2E/DX2 analytically  !
 ! A4    A(3,1,4)              108.5997         calculate D2E/DX2 analytically  !
 ! A5    A(3,1,5)              108.5995         calculate D2E/DX2 analytically  !
 ! A6    A(4,1,5)              110.1727         calculate D2E/DX2 analytically  !
 ! A7    A(1,2,6)               96.5697         calculate D2E/DX2 analytically  !
 ! D1    D(3,1,2,6)            179.998          calculate D2E/DX2 analytically  !
 ! D2    D(4,1,2,6)             61.7723         calculate D2E/DX2 analytically  !
 ! D3    D(5,1,2,6)            -61.7762         calculate D2E/DX2 analytically  !
 --------------------------------------------------------------------------------
 Trust Radius=3.00D-01 FncErr=1.00D-07 GrdErr=1.00D-07
 Number of steps in this run=      2 maximum allowed number of steps=      2.
 GradGradGradGradGradGradGradGradGradGradGradGradGradGradGradGradGradGrad

                          Input orientation:                          
 ---------------------------------------------------------------------
 Center     Atomic      Atomic             Coordinates (Angstroms)
 Number     Number       Type             X           Y           Z
 ---------------------------------------------------------------------
      1          6           0        0.293818    0.811396    0.648534
      2         16           0       -0.434914    2.373441    0.059017
      3          1           0       -0.104904    0.644185    1.650754
      4          1           0        1.380989    0.877449    0.713063
      5          1           0        0.004847   -0.028215    0.014483
      6          1           0        0.168964    2.381543   -1.140952
 ---------------------------------------------------------------------
                    Distance matrix (angstroms):
                    1          2          3          4          5
     1  C    0.000000
     2  S    1.821693   0.000000
     3  H    1.091505   2.373365   0.000000
     4  H    1.091086   2.441981   1.772442   0.000000
     5  H    1.091087   2.441992   1.772441   1.789415   0.000000
     6  H    2.383948   1.343377   3.299551   2.677437   2.677479
                    6
     6  H    0.000000
 Stoichiometry    CH4S
 Framework group  C1[X(CH4S)]
 Deg. of freedom    12
 Full point group                 C1      NOp   1
 Largest Abelian subgroup         C1      NOp   1
 Largest concise Abelian subgroup C1      NOp   1
                         Standard orientation:                         
 ---------------------------------------------------------------------
 Center     Atomic      Atomic             Coordinates (Angstroms)
 Number     Number       Type             X           Y           Z
 ---------------------------------------------------------------------
      1          6           0        1.155302    0.018992    0.000000
      2         16           0       -0.663329   -0.086590    0.000000
      3          1           0        1.523676   -1.008473    0.000038
      4          1           0        1.525939    0.521606    0.894692
      5          1           0        1.525957    0.521542   -0.894723
      6          1           0       -0.894117    1.236814   -0.000002
 ---------------------------------------------------------------------
 Rotational constants (GHZ):    102.8547978     12.8634708     12.3340260
 Standard basis: 6-31+G(d) (6D, 7F)
 There are    50 symmetry adapted cartesian basis functions of A   symmetry.
 There are    50 symmetry adapted basis functions of A   symmetry.
    50 basis functions,   104 primitive gaussians,    50 cartesian basis functions
    13 alpha electrons       13 beta electrons
       nuclear repulsion energy        56.2004205046 Hartrees.
 NAtoms=    6 NActive=    6 NUniq=    6 SFac= 1.00D+00 NAtFMM=   60 NAOKFM=F Big=F
 Integral buffers will be    131072 words long.
 Raffenetti 2 integral format.
 Two-electron integral symmetry is turned on.
 One-electron integrals computed using PRISM.
 NBasis=    50 RedAO= T EigKep=  1.04D-03  NBF=    50
 NBsUse=    50 1.00D-06 EigRej= -1.00D+00 NBFU=    50
 Initial guess from the checkpoint file:  "/srv/scratch/z5358697/com/Gau-2881251.chk"
 B after Tr=     0.000000    0.000000    0.000000
         Rot=    1.000000    0.000000    0.000000    0.000000 Ang=   0.00 deg.
 Keep R1 ints in memory in canonical form, NReq=1709995.
 Requested convergence on RMS density matrix=1.00D-08 within 128 cycles.
 Requested convergence on MAX density matrix=1.00D-06.
 Requested convergence on             energy=1.00D-06.
 No special actions if energy rises.
 SCF Done:  E(RM062X) =  -438.629250515     A.U. after    1 cycles
            NFock=  1  Conv=0.94D-09     -V/T= 2.0034
 DoSCS=F DFT=T ScalE2(SS,OS)=  1.000000  1.000000
 Range of M.O.s used for correlation:     1    50
 NBasis=    50 NAE=    13 NBE=    13 NFC=     0 NFV=     0
 NROrb=     50 NOA=    13 NOB=    13 NVA=    37 NVB=    37

 **** Warning!!: The largest alpha MO coefficient is  0.15726340D+02

 Symmetrizing basis deriv contribution to polar:
 IMax=3 JMax=2 DiffMx= 0.00D+00
 G2DrvN: will do     7 centers at a time, making    1 passes.
 Calling FoFCou, ICntrl=  3107 FMM=F I1Cent=   0 AccDes= 0.00D+00.
 End of G2Drv F.D. properties file   721 does not exist.
 End of G2Drv F.D. properties file   722 does not exist.
 End of G2Drv F.D. properties file   788 does not exist.
          IDoAtm=111111
          Differentiating once with respect to electric field.
                with respect to dipole field.
          Differentiating once with respect to nuclear coordinates.
 Keep R1 ints in memory in canonical form, NReq=1683601.
          There are    21 degrees of freedom in the 1st order CPHF.  IDoFFX=6 NUNeed=     3.
     18 vectors produced by pass  0 Test12= 2.29D-15 4.76D-09 XBig12= 1.71D+01 1.74D+00.
 AX will form    18 AO Fock derivatives at one time.
     18 vectors produced by pass  1 Test12= 2.29D-15 4.76D-09 XBig12= 9.20D-01 4.38D-01.
     18 vectors produced by pass  2 Test12= 2.29D-15 4.76D-09 XBig12= 1.29D-02 3.13D-02.
     18 vectors produced by pass  3 Test12= 2.29D-15 4.76D-09 XBig12= 6.33D-05 2.41D-03.
     18 vectors produced by pass  4 Test12= 2.29D-15 4.76D-09 XBig12= 2.55D-07 1.33D-04.
     18 vectors produced by pass  5 Test12= 2.29D-15 4.76D-09 XBig12= 7.42D-10 6.98D-06.
      4 vectors produced by pass  6 Test12= 2.29D-15 4.76D-09 XBig12= 1.64D-12 3.61D-07.
      3 vectors produced by pass  7 Test12= 2.29D-15 4.76D-09 XBig12= 2.41D-15 1.47D-08.
 InvSVY:  IOpt=1 It=  1 EMax= 4.44D-15
 Solved reduced A of dimension   115 with    21 vectors.
 Isotropic polarizability for W=    0.000000       30.23 Bohr**3.
 End of Minotr F.D. properties file   721 does not exist.
 End of Minotr F.D. properties file   722 does not exist.
 End of Minotr F.D. properties file   788 does not exist.

 **********************************************************************

            Population analysis using the SCF density.

 **********************************************************************

 Orbital symmetries:
       Occupied  (A) (A) (A) (A) (A) (A) (A) (A) (A) (A) (A) (A)
                 (A)
       Virtual   (A) (A) (A) (A) (A) (A) (A) (A) (A) (A) (A) (A)
                 (A) (A) (A) (A) (A) (A) (A) (A) (A) (A) (A) (A)
                 (A) (A) (A) (A) (A) (A) (A) (A) (A) (A) (A) (A)
                 (A)
 The electronic state is 1-A.
 Alpha  occ. eigenvalues --  -89.91811 -10.57758  -8.26549  -6.18635  -6.18393
 Alpha  occ. eigenvalues --   -6.17915  -0.87619  -0.73309  -0.51946  -0.50048
 Alpha  occ. eigenvalues --   -0.45347  -0.39182  -0.29399
 Alpha virt. eigenvalues --    0.01569   0.03484   0.05895   0.06559   0.07238
 Alpha virt. eigenvalues --    0.09124   0.09979   0.11512   0.15173   0.16068
 Alpha virt. eigenvalues --    0.20982   0.21797   0.33843   0.50500   0.50942
 Alpha virt. eigenvalues --    0.54126   0.54728   0.63404   0.64902   0.69406
 Alpha virt. eigenvalues --    0.81430   0.82845   0.88387   0.91659   0.99314
 Alpha virt. eigenvalues --    1.00688   1.02051   1.16165   1.25122   1.32258
 Alpha virt. eigenvalues --    1.74282   1.75708   2.18860   2.30105   2.31117
 Alpha virt. eigenvalues --    3.96464   4.24750
          Condensed to atoms (all electrons):
               1          2          3          4          5          6
     1  C    5.576723   0.095150   0.381000   0.373386   0.373384  -0.011251
     2  S    0.095150  15.813498  -0.043630  -0.045164  -0.045163   0.258355
     3  H    0.381000  -0.043630   0.464704  -0.023403  -0.023404   0.003045
     4  H    0.373386  -0.045164  -0.023403   0.492137  -0.032114  -0.003604
     5  H    0.373384  -0.045163  -0.023404  -0.032114   0.492139  -0.003604
     6  H   -0.011251   0.258355   0.003045  -0.003604  -0.003604   0.654835
 Mulliken charges:
               1
     1  C   -0.788393
     2  S   -0.033046
     3  H    0.241689
     4  H    0.238762
     5  H    0.238762
     6  H    0.102225
 Sum of Mulliken charges =   0.00000
 Mulliken charges with hydrogens summed into heavy atoms:
               1
     1  C   -0.069180
     2  S    0.069180
 APT charges:
               1
     1  C    0.097771
     2  S   -0.085933
     3  H    0.024062
     4  H   -0.018793
     5  H   -0.018794
     6  H    0.001686
 Sum of APT charges =   0.00000
 APT charges with hydrogens summed into heavy atoms:
               1
     1  C    0.084246
     2  S   -0.084246
 Electronic spatial extent (au):  <R**2>=            145.4763
 Charge=              0.0000 electrons
 Dipole moment (field-independent basis, Debye):
    X=              1.4440    Y=              1.0237    Z=              0.0000  Tot=              1.7701
 Quadrupole moment (field-independent basis, Debye-Ang):
   XX=            -20.4771   YY=            -19.5091   ZZ=            -22.9218
   XY=             -1.5172   XZ=              0.0000   YZ=              0.0000
 Traceless Quadrupole moment (field-independent basis, Debye-Ang):
   XX=              0.4922   YY=              1.4602   ZZ=             -1.9525
   XY=             -1.5172   XZ=              0.0000   YZ=              0.0000
 Octapole moment (field-independent basis, Debye-Ang**2):
  XXX=             -0.2702  YYY=              0.7259  ZZZ=             -0.0001  XYY=              0.1130
  XXY=              1.5173  XXZ=              0.0000  XZZ=              2.7760  YZZ=              1.3187
  YYZ=              0.0001  XYZ=              0.0000
 Hexadecapole moment (field-independent basis, Debye-Ang**3):
 XXXX=           -137.0568 YYYY=            -36.4237 ZZZZ=            -38.3118 XXXY=             -2.8396
 XXXZ=             -0.0001 YYYX=             -3.5340 YYYZ=              0.0000 ZZZX=             -0.0001
 ZZZY=              0.0000 XXYY=            -27.7686 XXZZ=            -29.7604 YYZZ=            -12.8212
 XXYZ=              0.0000 YYXZ=              0.0001 ZZXY=              0.4695
 N-N= 5.620042050457D+01 E-N=-1.152104315765D+03  KE= 4.371452656621D+02
  Exact polarizability:  35.891  -0.921  27.403   0.000   0.000  27.381
 Approx polarizability:  37.099  -1.691  31.316   0.000   0.000  29.020
 Calling FoFJK, ICntrl=    100127 FMM=F ISym2X=0 I1Cent= 0 IOpClX= 0 NMat=1 NMatS=1 NMatT=0.
 Full mass-weighted force constant matrix:
 Low frequencies --- -325.2074    0.0038    0.0040    0.0057    7.4512   14.9851
 Low frequencies ---  149.9334  739.0318  800.7275
 ******    1 imaginary frequencies (negative Signs) ****** 
 Diagonal vibrational polarizability:
        0.5049262       0.5390938      18.8130788
 Harmonic frequencies (cm**-1), IR intensities (KM/Mole), Raman scattering
 activities (A**4/AMU), depolarization ratios for plane and unpolarized
 incident light, reduced masses (AMU), force constants (mDyne/A),
 and normal coordinates:
                      1                      2                      3
                      A                      A                      A
 Frequencies --   -172.4609               739.0276               800.6948
 Red. masses --      1.0297                 3.3922                 1.1962
 Frc consts  --      0.0180                 1.0916                 0.4518
 IR Inten    --     20.5045                 2.4767                 1.4249
  Atom  AN      X      Y      Z        X      Y      Z        X      Y      Z
     1   6     0.00   0.00   0.00     0.36  -0.02   0.00     0.12   0.04   0.00
     2  16     0.00   0.00   0.03    -0.18  -0.01   0.00    -0.03   0.00   0.00
     3   1     0.00   0.00  -0.37     0.69   0.11   0.00    -0.34  -0.13   0.00
     4   1     0.04  -0.29   0.15     0.11   0.18  -0.01     0.31  -0.16   0.03
     5   1    -0.04   0.29   0.15     0.11   0.18   0.01     0.31  -0.16  -0.03
     6   1     0.00   0.00  -0.80     0.51   0.11   0.00    -0.77  -0.12   0.00
                      4                      5                      6
                      A                      A                      A
 Frequencies --    988.0889              1110.1409              1395.9203
 Red. masses --      1.1809                 1.2344                 1.1561
 Frc consts  --      0.6793                 0.8963                 1.3272
 IR Inten    --      6.1971                23.6128                 7.5221
  Atom  AN      X      Y      Z        X      Y      Z        X      Y      Z
     1   6     0.00   0.00   0.12    -0.01   0.13   0.00     0.12   0.00   0.00
     2  16     0.00   0.00  -0.02    -0.02  -0.04   0.00     0.01   0.00   0.00
     3   1     0.00   0.00  -0.25    -0.54  -0.07   0.00    -0.57  -0.23   0.00
     4   1     0.64   0.09  -0.20     0.31  -0.20   0.06    -0.51   0.13   0.16
     5   1    -0.64  -0.09  -0.20     0.31  -0.20  -0.06    -0.51   0.13  -0.16
     6   1     0.00   0.00   0.02     0.64   0.08   0.00     0.05   0.01   0.00
                      7                      8                      9
                      A                      A                      A
 Frequencies --   1501.0507              1512.4574              2748.7805
 Red. masses --      1.0514                 1.0486                 1.0388
 Frc consts  --      1.3958                 1.4132                 4.6244
 IR Inten    --      6.3604                 9.5525                14.6881
  Atom  AN      X      Y      Z        X      Y      Z        X      Y      Z
     1   6     0.00   0.00  -0.06     0.01   0.06   0.00     0.00   0.00   0.00
     2  16     0.00   0.00   0.00     0.00   0.00   0.00    -0.01   0.03   0.00
     3   1     0.00   0.00   0.73     0.31   0.15   0.00    -0.01   0.01   0.00
     4   1     0.28  -0.38   0.06    -0.20  -0.50   0.38     0.00   0.00   0.00
     5   1    -0.28   0.38   0.06    -0.20  -0.50  -0.38     0.00   0.00   0.00
     6   1     0.00   0.00  -0.01    -0.04   0.00   0.00     0.17  -0.99   0.00
                     10                     11                     12
                      A                      A                      A
 Frequencies --   3098.0880              3187.8388              3192.0346
 Red. masses --      1.0307                 1.1083                 1.1041
 Frc consts  --      5.8286                 6.6358                 6.6282
 IR Inten    --     23.4756                 5.2307                 4.6037
  Atom  AN      X      Y      Z        X      Y      Z        X      Y      Z
     1   6    -0.05  -0.01   0.00     0.00   0.00   0.10     0.00   0.09   0.00
     2  16     0.00   0.00   0.00     0.00   0.00   0.00     0.00   0.00   0.00
     3   1     0.16  -0.50   0.00     0.00   0.00   0.02     0.28  -0.80   0.00
     4   1     0.19   0.28   0.50    -0.23  -0.33  -0.58    -0.12  -0.15  -0.31
     5   1     0.19   0.28  -0.50     0.23   0.33  -0.58    -0.12  -0.15   0.31
     6   1     0.00   0.00   0.00     0.00   0.00   0.00     0.01  -0.02   0.00

 -------------------
 - Thermochemistry -
 -------------------
 Temperature   298.150 Kelvin.  Pressure   1.00000 Atm.
 Atom     1 has atomic number  6 and mass  12.00000
 Atom     2 has atomic number 16 and mass  31.97207
 Atom     3 has atomic number  1 and mass   1.00783
 Atom     4 has atomic number  1 and mass   1.00783
 Atom     5 has atomic number  1 and mass   1.00783
 Atom     6 has atomic number  1 and mass   1.00783
 Molecular mass:    48.00337 amu.
 Principal axes and moments of inertia in atomic units:
                           1         2         3
     Eigenvalues --    17.54650 140.29971 146.32215
           X            0.99962  -0.02752   0.00000
           Y            0.02752   0.99962   0.00000
           Z            0.00000   0.00000   1.00000
 This molecule is an asymmetric top.
 Rotational symmetry number  1.
 Rotational temperatures (Kelvin)      4.93625     0.61735     0.59194
 Rotational constants (GHZ):         102.85480    12.86347    12.33403
    1 imaginary frequencies ignored.
 Zero-point vibrational energy     121266.2 (Joules/Mol)
                                   28.98331 (Kcal/Mol)
 Vibrational temperatures:   1063.29  1152.02  1421.64  1597.24  2008.42
          (Kelvin)           2159.67  2176.09  3954.88  4457.45  4586.58
                             4592.62
 
 Zero-point correction=                           0.046188 (Hartree/Particle)
 Thermal correction to Energy=                    0.049276
 Thermal correction to Enthalpy=                  0.050220
 Thermal correction to Gibbs Free Energy=         0.022323
 Sum of electronic and zero-point Energies=           -438.583063
 Sum of electronic and thermal Energies=              -438.579974
 Sum of electronic and thermal Enthalpies=            -438.579030
 Sum of electronic and thermal Free Energies=         -438.606927
 
                     E (Thermal)             CV                S
                      KCal/Mol        Cal/Mol-Kelvin    Cal/Mol-Kelvin
 Total                   30.921              8.284             58.715
 Electronic               0.000              0.000              0.000
 Translational            0.889              2.981             37.530
 Rotational               0.889              2.981             20.516
 Vibrational             29.144              2.322              0.669
                       Q            Log10(Q)             Ln(Q)
 Total Bot       0.539681D-10        -10.267863        -23.642628
 Total V=0       0.948479D+11         10.977028         25.275541
 Vib (Bot)       0.607644D-21        -21.216351        -48.852453
 Vib (V=0)       0.106792D+01          0.028540          0.065716
 Electronic      0.100000D+01          0.000000          0.000000
 Translational   0.130726D+08          7.116363         16.386031
 Rotational      0.679399D+04          3.832125          8.823794
 ***** Axes restored to original set *****
 -------------------------------------------------------------------
 Center     Atomic                   Forces (Hartrees/Bohr)
 Number     Number              X              Y              Z
 -------------------------------------------------------------------
      1        6          -0.000008445   -0.000077576    0.000116201
      2       16          -0.000018488    0.000094695   -0.000087161
      3        1           0.000035937   -0.000022527   -0.000041091
      4        1          -0.000018646   -0.000007279    0.000001042
      5        1           0.000008432    0.000011971    0.000014658
      6        1           0.000001209    0.000000716   -0.000003650
 -------------------------------------------------------------------
 Cartesian Forces:  Max     0.000116201 RMS     0.000047628
 FormGI is forming the generalized inverse of G from B-inverse, IUseBI=4.

 GradGradGradGradGradGradGradGradGradGradGradGradGradGradGradGradGradGrad
 Berny optimization.
 Internal  Forces:  Max     0.000125581 RMS     0.000042820
 Search for a local minimum.
 Step number   1 out of a maximum of    2
 All quantities printed in internal units (Hartrees-Bohrs-Radians)
 Second derivative matrix not updated -- analytic derivatives used.
 The second derivative matrix:
                          R1        R2        R3        R4        R5
           R1           0.22386
           R2           0.00355   0.35493
           R3           0.00456   0.00206   0.35222
           R4           0.00456   0.00206   0.00244   0.35222
           R5          -0.00011  -0.00147   0.00035   0.00035   0.27909
           A1           0.01599   0.00148  -0.00471  -0.00471   0.00270
           A2           0.02167  -0.00548  -0.00436  -0.00443  -0.00079
           A3           0.02167  -0.00548  -0.00443  -0.00436  -0.00079
           A4          -0.02014   0.00703   0.00826  -0.00365  -0.00045
           A5          -0.02014   0.00703  -0.00365   0.00826  -0.00045
           A6          -0.02012  -0.00363   0.00874   0.00874  -0.00013
           A7           0.02661   0.00313  -0.00076  -0.00076  -0.00149
           D1           0.00000   0.00000   0.00480  -0.00480   0.00000
           D2           0.00279  -0.00637   0.00007   0.00486  -0.00066
           D3          -0.00279   0.00637  -0.00486  -0.00007   0.00066
                          A1        A2        A3        A4        A5
           A1           0.11128
           A2          -0.01929   0.10923
           A3          -0.01929  -0.02396   0.10923
           A4          -0.03555  -0.03215   0.00025   0.06744
           A5          -0.03555   0.00025  -0.03215   0.00079   0.06744
           A6           0.00037  -0.03628  -0.03628   0.00115   0.00115
           A7           0.03616  -0.01194  -0.01194  -0.00666  -0.00666
           D1           0.00000   0.01066  -0.01066   0.02041  -0.02041
           D2          -0.01389   0.00152   0.01375  -0.02184  -0.00002
           D3           0.01389  -0.01375  -0.00152   0.00002   0.02184
                          A6        A7        D1        D2        D3
           A6           0.06881
           A7           0.00220   0.19780
           D1           0.00000   0.00000   0.01882
           D2           0.01817  -0.00731  -0.01158   0.02230
           D3          -0.01817   0.00731  -0.01158  -0.01250   0.02230
 ITU=  0
     Eigenvalues ---   -0.00269   0.08053   0.08385   0.11325   0.12512
     Eigenvalues ---    0.14649   0.20754   0.26090   0.27913   0.35059
     Eigenvalues ---    0.35306   0.35918
 Eigenvalue     1 is  -2.69D-03 should be greater than     0.000000 Eigenvector:
                          D1        D2        D3        A4        A5
   1                    0.58840   0.57160   0.57160   0.01042  -0.01042
                          A2        A3        R4        R3        A1
   1                    0.00780  -0.00780   0.00060  -0.00060   0.00000
 Angle between quadratic step and forces=  27.44 degrees.
 Linear search not attempted -- first point.
 Iteration  1 RMS(Cart)=  0.00026922 RMS(Int)=  0.00000005
 Iteration  2 RMS(Cart)=  0.00000004 RMS(Int)=  0.00000002
 Variable       Old X    -DE/DX   Delta X   Delta X   Delta X     New X
                                 (Linear)    (Quad)   (Total)
    R1        3.44250   0.00013   0.00000   0.00057   0.00057   3.44307
    R2        2.06265  -0.00005   0.00000  -0.00016  -0.00016   2.06248
    R3        2.06185  -0.00002   0.00000  -0.00005  -0.00005   2.06181
    R4        2.06186  -0.00002   0.00000  -0.00005  -0.00005   2.06181
    R5        2.53861  -0.00001   0.00000  -0.00003  -0.00003   2.53858
    A1        1.85706   0.00008   0.00000   0.00051   0.00051   1.85757
    A2        1.94531  -0.00001   0.00000  -0.00018  -0.00018   1.94513
    A3        1.94533  -0.00001   0.00000  -0.00020  -0.00020   1.94513
    A4        1.89542  -0.00002   0.00000   0.00001   0.00001   1.89543
    A5        1.89542  -0.00002   0.00000   0.00001   0.00001   1.89543
    A6        1.92288  -0.00001   0.00000  -0.00012  -0.00012   1.92276
    A7        1.68546   0.00003   0.00000  -0.00006  -0.00006   1.68540
    D1        3.14156   0.00000   0.00000   0.00004   0.00004  -3.14159
    D2        1.07813  -0.00002   0.00000  -0.00018  -0.00018   1.07795
    D3       -1.07820   0.00002   0.00000   0.00025   0.00025  -1.07794
         Item               Value     Threshold  Converged?
 Maximum Force            0.000126     0.000450     YES
 RMS     Force            0.000043     0.000300     YES
 Maximum Displacement     0.000630     0.001800     YES
 RMS     Displacement     0.000269     0.001200     YES
 Predicted change in Energy=-6.622793D-08
 Optimization completed.
    -- Stationary point found.
                           ----------------------------
                           !   Optimized Parameters   !
                           ! (Angstroms and Degrees)  !
 --------------------------                            --------------------------
 ! Name  Definition              Value          Derivative Info.                !
 --------------------------------------------------------------------------------
 ! R1    R(1,2)                  1.8217         -DE/DX =    0.0001              !
 ! R2    R(1,3)                  1.0915         -DE/DX =   -0.0001              !
 ! R3    R(1,4)                  1.0911         -DE/DX =    0.0                 !
 ! R4    R(1,5)                  1.0911         -DE/DX =    0.0                 !
 ! R5    R(2,6)                  1.3434         -DE/DX =    0.0                 !
 ! A1    A(2,1,3)              106.4015         -DE/DX =    0.0001              !
 ! A2    A(2,1,4)              111.4583         -DE/DX =    0.0                 !
 ! A3    A(2,1,5)              111.459          -DE/DX =    0.0                 !
 ! A4    A(3,1,4)              108.5997         -DE/DX =    0.0                 !
 ! A5    A(3,1,5)              108.5995         -DE/DX =    0.0                 !
 ! A6    A(4,1,5)              110.1727         -DE/DX =    0.0                 !
 ! A7    A(1,2,6)               96.5697         -DE/DX =    0.0                 !
 ! D1    D(3,1,2,6)           -180.002          -DE/DX =    0.0                 !
 ! D2    D(4,1,2,6)             61.7723         -DE/DX =    0.0                 !
 ! D3    D(5,1,2,6)            -61.7762         -DE/DX =    0.0                 !
 --------------------------------------------------------------------------------
 GradGradGradGradGradGradGradGradGradGradGradGradGradGradGradGradGradGrad

 1\1\GINC-KATANA1\Freq\RM062X\6-31+G(d)\C1H4S1\Z5358697\11-Mar-2025\0\\
 #N Geom=AllCheck Guess=TCheck SCRF=Check GenChk RM062X/6-31+G(d) Freq\
 \methanethiol\\0,1\C,0.2938178357,0.8113961926,0.6485339867\S,-0.43491
 429,2.3734414739,0.0590174527\H,-0.1049035616,0.6441852056,1.650753934
 4\H,1.3809887615,0.8774493639,0.7130631966\H,0.0048469651,-0.028214816
 ,0.0144832917\H,0.1689642894,2.3815425801,-1.1409518621\\Version=ES64L
 -G09RevD.01\State=1-A\HF=-438.6292505\RMSD=9.391e-10\RMSF=4.763e-05\Ze
 roPoint=0.0461878\Thermal=0.0492762\Dipole=0.4202747,-0.5405537,-0.127
 0835\DipoleDeriv=0.0376842,-0.0180864,0.0157917,-0.1048368,0.2154276,-
 0.0289294,0.1282581,-0.1998217,0.0402024,-0.1101595,-0.1575811,-0.1251
 891,-0.1188709,-0.1042668,0.0096679,-0.1753761,0.0859253,-0.0433715,0.
 0679004,0.0102515,0.0521211,0.0198039,0.0467063,0.0315101,0.039739,0.0
 503277,-0.0424208,-0.0970496,0.0640469,-0.0345668,0.0608448,-0.0343982
 ,0.0507361,-0.0342205,0.0408007,0.0750682,0.0559914,0.0333845,-0.04522
 18,0.0295049,-0.1414903,-0.023317,-0.0363935,-0.0273217,0.0291173,0.04
 56331,0.0679845,0.1370648,0.1135541,0.0180212,-0.0396678,0.077993,0.05
 00898,-0.0585956\Polar=28.1991222,-2.2269231,33.316732,1.2743984,-3.30
 86444,29.1593738\PG=C01 [X(C1H4S1)]\NImag=1\\0.54452545,0.05576769,0.4
 3244435,-0.03058248,0.06290011,0.54439350,-0.06308066,0.04459607,0.003
 31744,0.12682815,0.05707988,-0.12757546,0.01140384,-0.08655845,0.18046
 369,-0.01286622,0.03599363,-0.05336335,-0.10285382,-0.04057071,0.27282
 924,-0.08622896,-0.01696025,0.09666606,0.00408554,0.00221906,-0.011656
 51,0.08994857,-0.01769765,-0.05046438,0.03764295,-0.00856247,-0.005084
 13,0.02297600,0.01452221,0.05628949,0.09762232,0.03619002,-0.28754354,
 0.00232039,0.00173821,-0.00719554,-0.10464303,-0.04144613,0.30625370,-
 0.32992308,-0.02593109,-0.01422849,-0.00427662,0.00407864,-0.00102917,
 -0.00980512,-0.00122592,-0.00138934,0.34954152,-0.02036260,-0.04475157
 ,-0.00387886,0.02726255,-0.00909601,0.00447072,-0.00486414,-0.00054670
 ,-0.00133415,0.02405324,0.05286540,-0.01649824,-0.00703080,-0.04989059
 ,-0.00977121,0.00602483,-0.00119920,0.03098485,0.00181076,0.00366925,0
 .01595346,0.00115891,0.04748370,-0.07120363,-0.05971485,-0.04426797,0.
 00209422,0.01368628,0.00588918,0.00326949,0.01028646,0.00736147,-0.006
 12412,-0.02491949,-0.02009703,0.07227999,-0.06458174,-0.20814203,-0.13
 252846,0.00195717,-0.02218530,-0.00595040,0.00191065,0.00582570,0.0034
 9585,-0.00071985,0.00029568,-0.00109077,0.06201312,0.22291498,-0.04290
 805,-0.12799388,-0.14521617,-0.00021893,0.01505975,0.00552027,-0.00943
 749,-0.02331552,-0.01577772,0.00078863,0.00036969,0.00002338,0.0511752
 9,0.13623616,0.15469155,0.00591088,0.00224244,-0.01090455,-0.06565063,
 0.00949459,0.12251654,-0.00126951,0.00267737,-0.00127181,0.00058743,-0
 .00116956,-0.00057184,-0.00031595,-0.00057935,0.00060054,0.06073779,-0
 .01020559,-0.00151091,0.02446042,0.02130512,-0.01652279,-0.01691923,0.
 00317248,-0.00601999,0.00135619,-0.00025502,0.00123320,-0.00087293,-0.
 00135151,0.00129097,-0.00035620,-0.01266548,0.02152952,0.00523266,-0.0
 0005908,-0.00837986,0.10720613,0.00634407,-0.21659141,-0.00191388,0.00
 233194,0.00059385,-0.00009509,-0.00078631,-0.00008653,-0.00006094,-0.0
 0016238,0.00075869,-0.11036887,-0.00766825,0.22370526\\0.00000845,0.00
 007758,-0.00011620,0.00001849,-0.00009470,0.00008716,-0.00003594,0.000
 02253,0.00004109,0.00001865,0.00000728,-0.00000104,-0.00000843,-0.0000
 1197,-0.00001466,-0.00000121,-0.00000072,0.00000365\\\@


 I DO NOT KNOW WHAT I MAY APPEAR TO THE WORLD; BUT TO MYSELF
 I SEEM TO HAVE BEEN ONLY LIKE A BOY PLAYING ON THE SEASHORE,
 AND DIVERTING MYSELF IN NOW AND THEN FINDING A SMOOTHER PEBBLE
 OR A PRETTIER SHELL THAN ORDINARY, WHILST THE GREAT OCEAN OF
 TRUTH LAY ALL UNDISCOVERED BEFORE ME.
                                          -- NEWTON (1642-1726)
 Job cpu time:       0 days  0 hours  0 minutes 11.1 seconds.
 File lengths (MBytes):  RWF=    132 Int=      0 D2E=      0 Chk=      2 Scr=      2
 Normal termination of Gaussian 09 at Tue Mar 11 10:47:57 2025.
