 Entering Gaussian System, Link 0=g09
 Initial command:
 /apps/z_install_tree/linux-rocky8-ivybridge/gcc-12.2.0/gaussian-09-D.01-wczn3gur5lpur3omlkzwa2l5ecyxp5ef/g09/l1.exe "/srv/scratch/z5358697/gauss/Gau-1714155.inp" -scrdir="/srv/scratch/z5358697/gauss/"
 Entering Link 1 = /apps/z_install_tree/linux-rocky8-ivybridge/gcc-12.2.0/gaussian-09-D.01-wczn3gur5lpur3omlkzwa2l5ecyxp5ef/g09/l1.exe PID=   1714157.
  
 Copyright (c) 1988,1990,1992,1993,1995,1998,2003,2009,2013,
            Gaussian, Inc.  All Rights Reserved.
  
 This is part of the Gaussian(R) 09 program.  It is based on
 the Gaussian(R) 03 system (copyright 2003, Gaussian, Inc.),
 the Gaussian(R) 98 system (copyright 1998, Gaussian, Inc.),
 the Gaussian(R) 94 system (copyright 1995, Gaussian, Inc.),
 the Gaussian 92(TM) system (copyright 1992, Gaussian, Inc.),
 the Gaussian 90(TM) system (copyright 1990, Gaussian, Inc.),
 the Gaussian 88(TM) system (copyright 1988, Gaussian, Inc.),
 the Gaussian 86(TM) system (copyright 1986, Carnegie Mellon
 University), and the Gaussian 82(TM) system (copyright 1983,
 Carnegie Mellon University). Gaussian is a federally registered
 trademark of Gaussian, Inc.
  
 This software contains proprietary and confidential information,
 including trade secrets, belonging to Gaussian, Inc.
  
 This software is provided under written license and may be
 used, copied, transmitted, or stored only in accord with that
 written license.
  
 The following legend is applicable only to US Government
 contracts under FAR:
  
                    RESTRICTED RIGHTS LEGEND
  
 Use, reproduction and disclosure by the US Government is
 subject to restrictions as set forth in subparagraphs (a)
 and (c) of the Commercial Computer Software - Restricted
 Rights clause in FAR 52.227-19.
  
 Gaussian, Inc.
 340 Quinnipiac St., Bldg. 40, Wallingford CT 06492
  
  
 ---------------------------------------------------------------
 Warning -- This program may not be used in any manner that
 competes with the business of Gaussian, Inc. or will provide
 assistance to any competitor of Gaussian, Inc.  The licensee
 of this program is prohibited from giving any competitor of
 Gaussian, Inc. access to this program.  By using this program,
 the user acknowledges that Gaussian, Inc. is engaged in the
 business of creating and licensing software in the field of
 computational chemistry and represents and warrants to the
 licensee that it is not a competitor of Gaussian, Inc. and that
 it will not use this program in any manner prohibited above.
 ---------------------------------------------------------------
  

 Cite this work as:
 Gaussian 09, Revision D.01,
 M. J. Frisch, G. W. Trucks, H. B. Schlegel, G. E. Scuseria, 
 M. A. Robb, J. R. Cheeseman, G. Scalmani, V. Barone, B. Mennucci, 
 G. A. Petersson, H. Nakatsuji, M. Caricato, X. Li, H. P. Hratchian, 
 A. F. Izmaylov, J. Bloino, G. Zheng, J. L. Sonnenberg, M. Hada, 
 M. Ehara, K. Toyota, R. Fukuda, J. Hasegawa, M. Ishida, T. Nakajima, 
 Y. Honda, O. Kitao, H. Nakai, T. Vreven, J. A. Montgomery, Jr., 
 J. E. Peralta, F. Ogliaro, M. Bearpark, J. J. Heyd, E. Brothers, 
 K. N. Kudin, V. N. Staroverov, T. Keith, R. Kobayashi, J. Normand, 
 K. Raghavachari, A. Rendell, J. C. Burant, S. S. Iyengar, J. Tomasi, 
 M. Cossi, N. Rega, J. M. Millam, M. Klene, J. E. Knox, J. B. Cross, 
 V. Bakken, C. Adamo, J. Jaramillo, R. Gomperts, R. E. Stratmann, 
 O. Yazyev, A. J. Austin, R. Cammi, C. Pomelli, J. W. Ochterski, 
 R. L. Martin, K. Morokuma, V. G. Zakrzewski, G. A. Voth, 
 P. Salvador, J. J. Dannenberg, S. Dapprich, A. D. Daniels, 
 O. Farkas, J. B. Foresman, J. V. Ortiz, J. Cioslowski, 
 and D. J. Fox, Gaussian, Inc., Wallingford CT, 2013.
 
 ******************************************
 Gaussian 09:  ES64L-G09RevD.01 24-Apr-2013
                20-Mar-2025 
 ******************************************
 ---------------------------------
 #m062X/6-31+G(d) OPT Freq=noraman
 ---------------------------------
 1/14=-1,18=20,19=15,26=3,38=1/1,3;
 2/9=110,12=2,17=6,18=5,40=1/2;
 3/5=1,6=6,7=11,11=2,16=1,25=1,30=1,71=1,74=-55/1,2,3;
 4//1;
 5/5=2,38=5/2;
 6/7=2,8=2,9=2,10=2,28=1/1;
 7//1,2,3,16;
 1/14=-1,18=20,19=15,26=3/3(2);
 2/9=110/2;
 99//99;
 2/9=110/2;
 3/5=1,6=6,7=11,11=2,16=1,25=1,30=1,71=1,74=-55/1,2,3;
 4/5=5,16=3,69=1/1;
 5/5=2,38=5/2;
 7//1,2,3,16;
 1/14=-1,18=20,19=15,26=3/3(-5);
 2/9=110/2;
 6/7=2,8=2,9=2,10=2,19=2,28=1/1;
 99/9=1/99;
 ---------------
 2-chloropropane
 ---------------
 Symbolic Z-matrix:
 Charge =  0 Multiplicity = 1
 C                     0.8645   -0.5428    0.3972 
 C                     1.0062   -0.3025    1.8932 
 C                     1.1975    1.1739    2.2084 
 Cl                    2.3974   -1.2326    2.5189 
 H                     0.7274   -1.608     0.1816 
 H                    -0.0071   -0.0099    0.0023 
 H                     1.7466   -0.1958   -0.1522 
 H                     0.1164   -0.6755    2.4103 
 H                     1.2984    1.3354    3.2871 
 H                     0.3356    1.7559    1.8651 
 H                     2.091     1.5778    1.7197 
 

 GradGradGradGradGradGradGradGradGradGradGradGradGradGradGradGradGradGrad
 Berny optimization.
 Initialization pass.
                           ----------------------------
                           !    Initial Parameters    !
                           ! (Angstroms and Degrees)  !
 --------------------------                            --------------------------
 ! Name  Definition              Value          Derivative Info.                !
 --------------------------------------------------------------------------------
 ! R1    R(1,2)                  1.5218         estimate D2E/DX2                !
 ! R2    R(1,5)                  1.0954         estimate D2E/DX2                !
 ! R3    R(1,6)                  1.0953         estimate D2E/DX2                !
 ! R4    R(1,7)                  1.0956         estimate D2E/DX2                !
 ! R5    R(2,3)                  1.5217         estimate D2E/DX2                !
 ! R6    R(2,4)                  1.7866         estimate D2E/DX2                !
 ! R7    R(2,8)                  1.0947         estimate D2E/DX2                !
 ! R8    R(3,9)                  1.0954         estimate D2E/DX2                !
 ! R9    R(3,10)                 1.0952         estimate D2E/DX2                !
 ! R10   R(3,11)                 1.0956         estimate D2E/DX2                !
 ! A1    A(2,1,5)              111.0198         estimate D2E/DX2                !
 ! A2    A(2,1,6)              110.592          estimate D2E/DX2                !
 ! A3    A(2,1,7)              111.5911         estimate D2E/DX2                !
 ! A4    A(5,1,6)              107.6117         estimate D2E/DX2                !
 ! A5    A(5,1,7)              108.0626         estimate D2E/DX2                !
 ! A6    A(6,1,7)              107.8068         estimate D2E/DX2                !
 ! A7    A(1,2,3)              111.6248         estimate D2E/DX2                !
 ! A8    A(1,2,4)              109.547          estimate D2E/DX2                !
 ! A9    A(1,2,8)              109.5657         estimate D2E/DX2                !
 ! A10   A(3,2,4)              109.5513         estimate D2E/DX2                !
 ! A11   A(3,2,8)              109.5685         estimate D2E/DX2                !
 ! A12   A(4,2,8)              106.8656         estimate D2E/DX2                !
 ! A13   A(2,3,9)              111.0143         estimate D2E/DX2                !
 ! A14   A(2,3,10)             110.5924         estimate D2E/DX2                !
 ! A15   A(2,3,11)             111.5804         estimate D2E/DX2                !
 ! A16   A(9,3,10)             107.6276         estimate D2E/DX2                !
 ! A17   A(9,3,11)             108.0468         estimate D2E/DX2                !
 ! A18   A(10,3,11)            107.8236         estimate D2E/DX2                !
 ! D1    D(5,1,2,3)            179.9991         estimate D2E/DX2                !
 ! D2    D(5,1,2,4)             58.482          estimate D2E/DX2                !
 ! D3    D(5,1,2,8)            -58.4493         estimate D2E/DX2                !
 ! D4    D(6,1,2,3)            -60.619          estimate D2E/DX2                !
 ! D5    D(6,1,2,4)            177.8639         estimate D2E/DX2                !
 ! D6    D(6,1,2,8)             60.9325         estimate D2E/DX2                !
 ! D7    D(7,1,2,3)             59.3823         estimate D2E/DX2                !
 ! D8    D(7,1,2,4)            -62.1347         estimate D2E/DX2                !
 ! D9    D(7,1,2,8)           -179.0661         estimate D2E/DX2                !
 ! D10   D(1,2,3,9)           -179.9967         estimate D2E/DX2                !
 ! D11   D(1,2,3,10)            60.6047         estimate D2E/DX2                !
 ! D12   D(1,2,3,11)           -59.4111         estimate D2E/DX2                !
 ! D13   D(4,2,3,9)            -58.4821         estimate D2E/DX2                !
 ! D14   D(4,2,3,10)          -177.8807         estimate D2E/DX2                !
 ! D15   D(4,2,3,11)            62.1035         estimate D2E/DX2                !
 ! D16   D(8,2,3,9)             58.4534         estimate D2E/DX2                !
 ! D17   D(8,2,3,10)           -60.9452         estimate D2E/DX2                !
 ! D18   D(8,2,3,11)           179.039          estimate D2E/DX2                !
 --------------------------------------------------------------------------------
 Trust Radius=3.00D-01 FncErr=1.00D-07 GrdErr=1.00D-06
 Number of steps in this run=     56 maximum allowed number of steps=    100.
 GradGradGradGradGradGradGradGradGradGradGradGradGradGradGradGradGradGrad

                          Input orientation:                          
 ---------------------------------------------------------------------
 Center     Atomic      Atomic             Coordinates (Angstroms)
 Number     Number       Type             X           Y           Z
 ---------------------------------------------------------------------
      1          6           0        0.864500   -0.542800    0.397200
      2          6           0        1.006200   -0.302500    1.893200
      3          6           0        1.197500    1.173900    2.208400
      4         17           0        2.397400   -1.232600    2.518900
      5          1           0        0.727400   -1.608000    0.181600
      6          1           0       -0.007100   -0.009900    0.002300
      7          1           0        1.746600   -0.195800   -0.152200
      8          1           0        0.116400   -0.675500    2.410300
      9          1           0        1.298400    1.335400    3.287100
     10          1           0        0.335600    1.755900    1.865100
     11          1           0        2.091000    1.577800    1.719700
 ---------------------------------------------------------------------
                    Distance matrix (angstroms):
                    1          2          3          4          5
     1  C    0.000000
     2  C    1.521788   0.000000
     3  C    2.517617   1.521744   0.000000
     4  Cl   2.706883   1.786624   2.706919   0.000000
     5  H    1.095414   2.170630   3.473885   2.897032   0.000000
     6  H    1.095269   2.165155   2.778367   3.689159   1.767926
     7  H    1.095605   2.177898   2.783886   2.938243   1.773274
     8  H    2.151705   1.094653   2.151702   2.350556   2.491983
     9  H    3.473820   2.170496   1.095380   2.896991   4.316686
    10  H    2.778217   2.165065   1.095194   3.689120   3.781997
    11  H    2.783928   2.177710   1.095584   2.937848   3.791369
                    6          7          8          9         10
     6  H    0.000000
     7  H    1.770280   0.000000
     8  H    2.501348   3.074747   0.000000
     9  H    3.782073   3.791338   2.491911   0.000000
    10  H    2.589501   3.141585   2.501399   1.768018   0.000000
    11  H    3.142018   2.601591   3.074628   1.773053   1.770393
                   11
    11  H    0.000000
 Stoichiometry    C3H7Cl
 Framework group  C1[X(C3H7Cl)]
 Deg. of freedom    27
 Full point group                 C1      NOp   1
 Largest Abelian subgroup         C1      NOp   1
 Largest concise Abelian subgroup C1      NOp   1
                         Standard orientation:                         
 ---------------------------------------------------------------------
 Center     Atomic      Atomic             Coordinates (Angstroms)
 Number     Number       Type             X           Y           Z
 ---------------------------------------------------------------------
      1          6           0       -1.055549   -1.258783   -0.120019
      2          6           0       -0.384028    0.000041    0.409377
      3          6           0       -1.055528    1.258833   -0.119995
      4         17           0        1.340084   -0.000034   -0.059090
      5          1           0       -0.564678   -2.158363    0.266935
      6          1           0       -2.105417   -1.294786    0.189975
      7          1           0       -1.027733   -1.300733   -1.214466
      8          1           0       -0.415825    0.000007    1.503568
      9          1           0       -0.564578    2.158323    0.266973
     10          1           0       -2.105392    1.294715    0.189761
     11          1           0       -1.027167    1.300858   -1.214405
 ---------------------------------------------------------------------
 Rotational constants (GHZ):      8.1317763      4.5908453      3.2322544
 Standard basis: 6-31+G(d) (6D, 7F)
 There are    94 symmetry adapted cartesian basis functions of A   symmetry.
 There are    94 symmetry adapted basis functions of A   symmetry.
    94 basis functions,   180 primitive gaussians,    94 cartesian basis functions
    21 alpha electrons       21 beta electrons
       nuclear repulsion energy       166.5575312331 Hartrees.
 NAtoms=   11 NActive=   11 NUniq=   11 SFac= 1.00D+00 NAtFMM=   60 NAOKFM=F Big=F
 Integral buffers will be    131072 words long.
 Raffenetti 2 integral format.
 Two-electron integral symmetry is turned on.
 One-electron integrals computed using PRISM.
 NBasis=    94 RedAO= T EigKep=  1.03D-04  NBF=    94
 NBsUse=    94 1.00D-06 EigRej= -1.00D+00 NBFU=    94
 ExpMin= 4.38D-02 ExpMax= 2.52D+04 ExpMxC= 3.78D+03 IAcc=2 IRadAn=         4 AccDes= 0.00D+00
 Harris functional with IExCor= 1009 and IRadAn=       4 diagonalized for initial guess.
 HarFok:  IExCor= 1009 AccDes= 0.00D+00 IRadAn=         4 IDoV= 1 UseB2=F ITyADJ=14
 ICtDFT=  3500011 ScaDFX=  1.000000  1.000000  1.000000  1.000000
 FoFCou: FMM=F IPFlag=           0 FMFlag=      100000 FMFlg1=           0
         NFxFlg=           0 DoJE=T BraDBF=F KetDBF=T FulRan=T
         wScrn=  0.000000 ICntrl=     500 IOpCl=  0 I1Cent=   200000004 NGrid=           0
         NMat0=    1 NMatS0=      1 NMatT0=    0 NMatD0=    1 NMtDS0=    0 NMtDT0=    0
 Petite list used in FoFCou.
 Keep R1 ints in memory in canonical form, NReq=10932382.
 Requested convergence on RMS density matrix=1.00D-08 within 128 cycles.
 Requested convergence on MAX density matrix=1.00D-06.
 Requested convergence on             energy=1.00D-06.
 No special actions if energy rises.
 SCF Done:  E(RM062X) =  -578.641988258     A.U. after   12 cycles
            NFock= 12  Conv=0.24D-08     -V/T= 2.0040

 **********************************************************************

            Population analysis using the SCF density.

 **********************************************************************

 Orbital symmetries:
       Occupied  (A) (A) (A) (A) (A) (A) (A) (A) (A) (A) (A) (A)
                 (A) (A) (A) (A) (A) (A) (A) (A) (A)
       Virtual   (A) (A) (A) (A) (A) (A) (A) (A) (A) (A) (A) (A)
                 (A) (A) (A) (A) (A) (A) (A) (A) (A) (A) (A) (A)
                 (A) (A) (A) (A) (A) (A) (A) (A) (A) (A) (A) (A)
                 (A) (A) (A) (A) (A) (A) (A) (A) (A) (A) (A) (A)
                 (A) (A) (A) (A) (A) (A) (A) (A) (A) (A) (A) (A)
                 (A) (A) (A) (A) (A) (A) (A) (A) (A) (A) (A) (A)
                 (A)
 The electronic state is 1-A.
 Alpha  occ. eigenvalues -- -102.65088 -10.61604 -10.55217 -10.55216  -9.79839
 Alpha  occ. eigenvalues --   -7.52222  -7.51579  -7.51577  -0.97067  -0.85334
 Alpha  occ. eigenvalues --   -0.79511  -0.67253  -0.55335  -0.52361  -0.50180
 Alpha  occ. eigenvalues --   -0.46582  -0.43734  -0.42505  -0.42238  -0.35645
 Alpha  occ. eigenvalues --   -0.35593
 Alpha virt. eigenvalues --    0.02384   0.04008   0.04287   0.04912   0.05820
 Alpha virt. eigenvalues --    0.07242   0.08150   0.08968   0.09652   0.11053
 Alpha virt. eigenvalues --    0.12548   0.13542   0.13564   0.14203   0.15177
 Alpha virt. eigenvalues --    0.16566   0.18635   0.22510   0.24888   0.26842
 Alpha virt. eigenvalues --    0.27525   0.27777   0.30186   0.32887   0.35517
 Alpha virt. eigenvalues --    0.42999   0.60301   0.63133   0.63632   0.64810
 Alpha virt. eigenvalues --    0.65398   0.67494   0.70034   0.71882   0.72837
 Alpha virt. eigenvalues --    0.75914   0.78165   0.82268   0.86857   0.96062
 Alpha virt. eigenvalues --    0.97146   0.98096   1.01528   1.02509   1.04777
 Alpha virt. eigenvalues --    1.07173   1.08899   1.10847   1.15589   1.18305
 Alpha virt. eigenvalues --    1.18989   1.26916   1.44204   1.52056   1.57570
 Alpha virt. eigenvalues --    1.63938   1.81374   1.95631   1.95765   2.01828
 Alpha virt. eigenvalues --    2.07501   2.15506   2.28498   2.31153   2.31432
 Alpha virt. eigenvalues --    2.45091   2.45918   2.59835   2.70615   4.18704
 Alpha virt. eigenvalues --    4.32668   4.41816   4.52117
          Condensed to atoms (all electrons):
               1          2          3          4          5          6
     1  C    5.537606   0.223571  -0.181194  -0.083918   0.391029   0.389544
     2  C    0.223571   5.664341   0.223621   0.132909  -0.057356  -0.050978
     3  C   -0.181194   0.223621   5.537520  -0.083946   0.019888  -0.009098
     4  Cl  -0.083918   0.132909  -0.083946  17.090754  -0.003813   0.012016
     5  H    0.391029  -0.057356   0.019888  -0.003813   0.474205  -0.023967
     6  H    0.389544  -0.050978  -0.009098   0.012016  -0.023967   0.497181
     7  H    0.383047  -0.000860  -0.025688  -0.013452  -0.024643  -0.028181
     8  H   -0.062421   0.432857  -0.062398  -0.060642  -0.003835  -0.002575
     9  H    0.019892  -0.057381   0.391048  -0.003810  -0.000117   0.000036
    10  H   -0.009073  -0.050981   0.389532   0.012014   0.000036   0.001272
    11  H   -0.025719  -0.000869   0.383080  -0.013453  -0.000043  -0.000046
               7          8          9         10         11
     1  C    0.383047  -0.062421   0.019892  -0.009073  -0.025719
     2  C   -0.000860   0.432857  -0.057381  -0.050981  -0.000869
     3  C   -0.025688  -0.062398   0.391048   0.389532   0.383080
     4  Cl  -0.013452  -0.060642  -0.003810   0.012014  -0.013453
     5  H   -0.024643  -0.003835  -0.000117   0.000036  -0.000043
     6  H   -0.028181  -0.002575   0.000036   0.001272  -0.000046
     7  H    0.468947   0.003698  -0.000043  -0.000047   0.002325
     8  H    0.003698   0.506400  -0.003839  -0.002573   0.003699
     9  H   -0.000043  -0.003839   0.474212  -0.023950  -0.024668
    10  H   -0.000047  -0.002573  -0.023950   0.497124  -0.028161
    11  H    0.002325   0.003699  -0.024668  -0.028161   0.468950
 Mulliken charges:
               1
     1  C   -0.582364
     2  C   -0.458875
     3  C   -0.582366
     4  Cl   0.015340
     5  H    0.228615
     6  H    0.214795
     7  H    0.234896
     8  H    0.251628
     9  H    0.228619
    10  H    0.214806
    11  H    0.234904
 Sum of Mulliken charges =   0.00000
 Mulliken charges with hydrogens summed into heavy atoms:
               1
     1  C    0.095943
     2  C   -0.207246
     3  C    0.095964
     4  Cl   0.015340
 Electronic spatial extent (au):  <R**2>=            425.9102
 Charge=              0.0000 electrons
 Dipole moment (field-independent basis, Debye):
    X=             -2.2008    Y=              0.0001    Z=              0.4780  Tot=              2.2521
 Quadrupole moment (field-independent basis, Debye-Ang):
   XX=            -34.5721   YY=            -33.1143   ZZ=            -33.0089
   XY=              0.0003   XZ=             -0.3107   YZ=             -0.0002
 Traceless Quadrupole moment (field-independent basis, Debye-Ang):
   XX=             -1.0070   YY=              0.4508   ZZ=              0.5562
   XY=              0.0003   XZ=             -0.3107   YZ=             -0.0002
 Octapole moment (field-independent basis, Debye-Ang**2):
  XXX=              3.1293  YYY=             -0.0003  ZZZ=              0.3968  XYY=              0.8408
  XXY=             -0.0003  XXZ=             -0.2816  XZZ=              0.5512  YZZ=              0.0000
  YYZ=              0.6824  XYZ=             -0.0004
 Hexadecapole moment (field-independent basis, Debye-Ang**3):
 XXXX=           -293.1366 YYYY=           -208.9855 ZZZZ=            -64.7361 XXXY=             -0.0025
 XXXZ=             -6.4033 YYYX=              0.0015 YYYZ=             -0.0018 ZZZX=              0.6166
 ZZZY=              0.0001 XXYY=            -88.8098 XXZZ=            -64.0717 YYZZ=            -47.0660
 XXYZ=              0.0013 YYXZ=              0.1708 ZZXY=              0.0009
 N-N= 1.665575312331D+02 E-N=-1.700391377702D+03  KE= 5.763479657664D+02
 Calling FoFJK, ICntrl=      2127 FMM=F ISym2X=0 I1Cent= 0 IOpClX= 0 NMat=1 NMatS=1 NMatT=0.
 ***** Axes restored to original set *****
 -------------------------------------------------------------------
 Center     Atomic                   Forces (Hartrees/Bohr)
 Number     Number              X              Y              Z
 -------------------------------------------------------------------
      1        6          -0.000589021   -0.005190124   -0.003283047
      2        6          -0.008265792    0.010819323   -0.008780710
      3        6           0.001066757    0.002916043    0.005336892
      4       17           0.005369978   -0.004923250    0.003685849
      5        1           0.000700034    0.000917037    0.000353183
      6        1          -0.000647156    0.001239868    0.001996177
      7        1           0.000560219    0.000141050    0.002286938
      8        1           0.002566935   -0.001496757    0.000946594
      9        1           0.000416396   -0.000394881   -0.001019375
     10        1          -0.001250788   -0.001719704   -0.001169646
     11        1           0.000072440   -0.002308606   -0.000352856
 -------------------------------------------------------------------
 Cartesian Forces:  Max     0.010819323 RMS     0.003654522

 GradGradGradGradGradGradGradGradGradGradGradGradGradGradGradGradGradGrad
 Berny optimization.
 FormGI is forming the generalized inverse of G from B-inverse, IUseBI=4.
 Internal  Forces:  Max     0.008038369 RMS     0.001753091
 Search for a local minimum.
 Step number   1 out of a maximum of   56
 All quantities printed in internal units (Hartrees-Bohrs-Radians)
 Mixed Optimization -- RFO/linear search
 Second derivative matrix not updated -- first step.
 ITU=  0
     Eigenvalues ---    0.00478   0.00478   0.04450   0.05194   0.05526
     Eigenvalues ---    0.05529   0.05644   0.05644   0.09247   0.16000
     Eigenvalues ---    0.16000   0.16000   0.16000   0.16000   0.16000
     Eigenvalues ---    0.16686   0.23231   0.27199   0.30195   0.30199
     Eigenvalues ---    0.34173   0.34175   0.34194   0.34198   0.34211
     Eigenvalues ---    0.34219   0.34280
 RFO step:  Lambda=-8.60868325D-04 EMin= 4.77732824D-03
 Linear search not attempted -- first point.
 Iteration  1 RMS(Cart)=  0.00851729 RMS(Int)=  0.00015439
 Iteration  2 RMS(Cart)=  0.00021003 RMS(Int)=  0.00009529
 Iteration  3 RMS(Cart)=  0.00000003 RMS(Int)=  0.00009529
 Variable       Old X    -DE/DX   Delta X   Delta X   Delta X     New X
                                 (Linear)    (Quad)   (Total)
    R1        2.87576  -0.00088   0.00000  -0.00289  -0.00289   2.87287
    R2        2.07003  -0.00105   0.00000  -0.00306  -0.00306   2.06697
    R3        2.06976   0.00040   0.00000   0.00117   0.00117   2.07092
    R4        2.07039  -0.00065   0.00000  -0.00190  -0.00190   2.06849
    R5        2.87568  -0.00085   0.00000  -0.00279  -0.00279   2.87289
    R6        3.37623   0.00804   0.00000   0.02946   0.02946   3.40569
    R7        2.06859  -0.00113   0.00000  -0.00329  -0.00329   2.06530
    R8        2.06997  -0.00102   0.00000  -0.00299  -0.00299   2.06698
    R9        2.06962   0.00044   0.00000   0.00128   0.00128   2.07089
   R10        2.07035  -0.00064   0.00000  -0.00186  -0.00186   2.06850
    A1        1.93766   0.00091   0.00000   0.00787   0.00792   1.94558
    A2        1.93019  -0.00283   0.00000  -0.01752  -0.01763   1.91256
    A3        1.94763  -0.00280   0.00000  -0.01971  -0.01982   1.92781
    A4        1.87818   0.00151   0.00000   0.01391   0.01397   1.89214
    A5        1.88605   0.00098   0.00000   0.00588   0.00592   1.89196
    A6        1.88158   0.00250   0.00000   0.01132   0.01104   1.89263
    A7        1.94822   0.00250   0.00000   0.01845   0.01829   1.96651
    A8        1.91196  -0.00053   0.00000  -0.00089  -0.00093   1.91103
    A9        1.91228  -0.00029   0.00000   0.00510   0.00492   1.91720
   A10        1.91203  -0.00054   0.00000  -0.00096  -0.00100   1.91103
   A11        1.91233  -0.00028   0.00000   0.00510   0.00491   1.91724
   A12        1.86516  -0.00103   0.00000  -0.02887  -0.02885   1.83630
   A13        1.93756   0.00092   0.00000   0.00796   0.00800   1.94557
   A14        1.93020  -0.00282   0.00000  -0.01754  -0.01765   1.91255
   A15        1.94745  -0.00278   0.00000  -0.01954  -0.01966   1.92778
   A16        1.87846   0.00149   0.00000   0.01369   0.01374   1.89220
   A17        1.88577   0.00098   0.00000   0.00609   0.00613   1.89190
   A18        1.88188   0.00248   0.00000   0.01108   0.01080   1.89268
    D1        3.14158  -0.00038   0.00000  -0.00682  -0.00684   3.13473
    D2        1.02070  -0.00099   0.00000  -0.01717  -0.01718   1.00353
    D3       -1.02013   0.00072   0.00000   0.01529   0.01533  -1.00481
    D4       -1.05800   0.00026   0.00000   0.00426   0.00414  -1.05386
    D5        3.10431  -0.00036   0.00000  -0.00609  -0.00619   3.09812
    D6        1.06347   0.00136   0.00000   0.02637   0.02631   1.08979
    D7        1.03642  -0.00035   0.00000  -0.00631  -0.00625   1.03017
    D8       -1.08446  -0.00096   0.00000  -0.01665  -0.01658  -1.10103
    D9       -3.12529   0.00075   0.00000   0.01581   0.01592  -3.10937
   D10       -3.14154   0.00036   0.00000   0.00670   0.00672  -3.13481
   D11        1.05775  -0.00026   0.00000  -0.00415  -0.00403   1.05372
   D12       -1.03692   0.00036   0.00000   0.00662   0.00656  -1.03036
   D13       -1.02071   0.00099   0.00000   0.01709   0.01710  -1.00361
   D14       -3.10460   0.00036   0.00000   0.00624   0.00634  -3.09826
   D15        1.08391   0.00098   0.00000   0.01701   0.01694   1.10085
   D16        1.02020  -0.00073   0.00000  -0.01541  -0.01545   1.00475
   D17       -1.06369  -0.00136   0.00000  -0.02626  -0.02621  -1.08990
   D18        3.12482  -0.00074   0.00000  -0.01549  -0.01561   3.10921
         Item               Value     Threshold  Converged?
 Maximum Force            0.008038     0.000450     NO 
 RMS     Force            0.001753     0.000300     NO 
 Maximum Displacement     0.020007     0.001800     NO 
 RMS     Displacement     0.008596     0.001200     NO 
 Predicted change in Energy=-4.341020D-04
 GradGradGradGradGradGradGradGradGradGradGradGradGradGradGradGradGradGrad

                          Input orientation:                          
 ---------------------------------------------------------------------
 Center     Atomic      Atomic             Coordinates (Angstroms)
 Number     Number       Type             X           Y           Z
 ---------------------------------------------------------------------
      1          6           0        0.861504   -0.545735    0.391468
      2          6           0        1.002958   -0.291913    1.883696
      3          6           0        1.196295    1.179823    2.212057
      4         17           0        2.395261   -1.239265    2.525561
      5          1           0        0.730445   -1.610267    0.177035
      6          1           0       -0.011451   -0.005398    0.008125
      7          1           0        1.749309   -0.192441   -0.142504
      8          1           0        0.126470   -0.677633    2.410422
      9          1           0        1.302615    1.339190    3.288949
     10          1           0        0.329454    1.751306    1.861447
     11          1           0        2.091040    1.568233    1.715344
 ---------------------------------------------------------------------
                    Distance matrix (angstroms):
                    1          2          3          4          5
     1  C    0.000000
     2  C    1.520256   0.000000
     3  C    2.530649   1.520266   0.000000
     4  Cl   2.718041   1.802213   2.718049   0.000000
     5  H    1.093795   2.173709   3.484672   2.902555   0.000000
     6  H    1.095886   2.151484   2.778618   3.694885   1.776104
     7  H    1.094597   2.161578   2.780808   2.937969   1.774943
     8  H    2.152637   1.092910   2.152678   2.340107   2.494516
     9  H    3.484669   2.173713   1.093800   2.902597   4.325585
    10  H    2.778545   2.151475   1.095870   3.694877   3.781297
    11  H    2.780875   2.161575   1.094602   2.937864   3.784240
                    6          7          8          9         10
     6  H    0.000000
     7  H    1.777063   0.000000
     8  H    2.498390   3.063731   0.000000
     9  H    3.781335   3.784217   2.494535   0.000000
    10  H    2.576243   3.132085   2.498464   1.776131   0.000000
    11  H    3.132312   2.582315   3.063753   1.774910   1.777089
                   11
    11  H    0.000000
 Stoichiometry    C3H7Cl
 Framework group  C1[X(C3H7Cl)]
 Deg. of freedom    27
 Full point group                 C1      NOp   1
 Largest Abelian subgroup         C1      NOp   1
 Largest concise Abelian subgroup C1      NOp   1
                         Standard orientation:                         
 ---------------------------------------------------------------------
 Center     Atomic      Atomic             Coordinates (Angstroms)
 Number     Number       Type             X           Y           Z
 ---------------------------------------------------------------------
      1          6           0       -1.058700   -1.265316   -0.119028
      2          6           0       -0.396564   -0.000002    0.402252
      3          6           0       -1.058696    1.265332   -0.119015
      4         17           0        1.346071   -0.000005   -0.057311
      5          1           0       -0.563141   -2.162791    0.262217
      6          1           0       -2.107606   -1.288151    0.197581
      7          1           0       -1.026575   -1.291108   -1.212849
      8          1           0       -0.404937   -0.000036    1.495129
      9          1           0       -0.563170    2.162795    0.262315
     10          1           0       -2.107623    1.288092    0.197475
     11          1           0       -1.026392    1.291206   -1.212834
 ---------------------------------------------------------------------
 Rotational constants (GHZ):      8.1012296      4.5606350      3.2077968
 Standard basis: 6-31+G(d) (6D, 7F)
 There are    94 symmetry adapted cartesian basis functions of A   symmetry.
 There are    94 symmetry adapted basis functions of A   symmetry.
    94 basis functions,   180 primitive gaussians,    94 cartesian basis functions
    21 alpha electrons       21 beta electrons
       nuclear repulsion energy       166.1624723154 Hartrees.
 NAtoms=   11 NActive=   11 NUniq=   11 SFac= 1.00D+00 NAtFMM=   60 NAOKFM=F Big=F
 Integral buffers will be    131072 words long.
 Raffenetti 2 integral format.
 Two-electron integral symmetry is turned on.
 One-electron integrals computed using PRISM.
 NBasis=    94 RedAO= T EigKep=  1.06D-04  NBF=    94
 NBsUse=    94 1.00D-06 EigRej= -1.00D+00 NBFU=    94
 Initial guess from the checkpoint file:  "/srv/scratch/z5358697/gauss/Gau-1714157.chk"
 B after Tr=     0.000000    0.000000    0.000000
         Rot=    1.000000   -0.000003    0.000284   -0.000010 Ang=  -0.03 deg.
 ExpMin= 4.38D-02 ExpMax= 2.52D+04 ExpMxC= 3.78D+03 IAcc=2 IRadAn=         4 AccDes= 0.00D+00
 Harris functional with IExCor= 1009 and IRadAn=       4 diagonalized for initial guess.
 HarFok:  IExCor= 1009 AccDes= 0.00D+00 IRadAn=         4 IDoV= 1 UseB2=F ITyADJ=14
 ICtDFT=  3500011 ScaDFX=  1.000000  1.000000  1.000000  1.000000
 FoFCou: FMM=F IPFlag=           0 FMFlag=      100000 FMFlg1=           0
         NFxFlg=           0 DoJE=T BraDBF=F KetDBF=T FulRan=T
         wScrn=  0.000000 ICntrl=     500 IOpCl=  0 I1Cent=   200000004 NGrid=           0
         NMat0=    1 NMatS0=      1 NMatT0=    0 NMatD0=    1 NMtDS0=    0 NMtDT0=    0
 Petite list used in FoFCou.
 Keep R1 ints in memory in canonical form, NReq=10932382.
 Requested convergence on RMS density matrix=1.00D-08 within 128 cycles.
 Requested convergence on MAX density matrix=1.00D-06.
 Requested convergence on             energy=1.00D-06.
 No special actions if energy rises.
 SCF Done:  E(RM062X) =  -578.642512557     A.U. after   10 cycles
            NFock= 10  Conv=0.35D-08     -V/T= 2.0040
 Calling FoFJK, ICntrl=      2127 FMM=F ISym2X=0 I1Cent= 0 IOpClX= 0 NMat=1 NMatS=1 NMatT=0.
 ***** Axes restored to original set *****
 -------------------------------------------------------------------
 Center     Atomic                   Forces (Hartrees/Bohr)
 Number     Number              X              Y              Z
 -------------------------------------------------------------------
      1        6           0.000532428   -0.000731347   -0.000525069
      2        6          -0.005054004    0.003138032   -0.002044502
      3        6           0.000760556    0.000353401    0.000642401
      4       17           0.002901908   -0.001943174    0.001308859
      5        1           0.000136454    0.000496187    0.000522449
      6        1           0.000069859    0.000216793    0.000351704
      7        1           0.000124177    0.000083605    0.000061257
      8        1           0.000549017   -0.000701005    0.000567355
      9        1          -0.000063353   -0.000501865   -0.000533615
     10        1          -0.000043746   -0.000334725   -0.000239176
     11        1           0.000086704   -0.000075902   -0.000111662
 -------------------------------------------------------------------
 Cartesian Forces:  Max     0.005054004 RMS     0.001328956

 GradGradGradGradGradGradGradGradGradGradGradGradGradGradGradGradGradGrad
 Berny optimization.
 Using GEDIIS/GDIIS optimizer.
 FormGI is forming the generalized inverse of G from B-inverse, IUseBI=4.
 GSVD:  received Info=                   1 from GESDD.
 Internal  Forces:  Max     0.003732517 RMS     0.000627056
 Search for a local minimum.
 Step number   2 out of a maximum of   56
 All quantities printed in internal units (Hartrees-Bohrs-Radians)
 Mixed Optimization -- En-DIIS/RFO-DIIS
 Update second derivatives using D2CorX and points    1    2
 DE= -5.24D-04 DEPred=-4.34D-04 R= 1.21D+00
 TightC=F SS=  1.41D+00  RLast= 9.03D-02 DXNew= 5.0454D-01 2.7082D-01
 Trust test= 1.21D+00 RLast= 9.03D-02 DXMaxT set to 3.00D-01
 ITU=  1  0
 Use linear search instead of GDIIS.
     Eigenvalues ---    0.00477   0.00478   0.03749   0.05356   0.05596
     Eigenvalues ---    0.05618   0.05779   0.05839   0.09508   0.14570
     Eigenvalues ---    0.16000   0.16000   0.16000   0.16000   0.16930
     Eigenvalues ---    0.16998   0.22708   0.24191   0.30154   0.30197
     Eigenvalues ---    0.34075   0.34174   0.34195   0.34197   0.34215
     Eigenvalues ---    0.34236   0.34465
 RFO step:  Lambda=-8.98085639D-05 EMin= 4.77479824D-03
 Quartic linear search produced a step of  0.28290.
 Iteration  1 RMS(Cart)=  0.00450292 RMS(Int)=  0.00005331
 Iteration  2 RMS(Cart)=  0.00004312 RMS(Int)=  0.00004276
 Iteration  3 RMS(Cart)=  0.00000000 RMS(Int)=  0.00004276
 Variable       Old X    -DE/DX   Delta X   Delta X   Delta X     New X
                                 (Linear)    (Quad)   (Total)
    R1        2.87287  -0.00049  -0.00082  -0.00158  -0.00240   2.87047
    R2        2.06697  -0.00060  -0.00087  -0.00171  -0.00257   2.06440
    R3        2.07092  -0.00007   0.00033  -0.00047  -0.00014   2.07078
    R4        2.06849   0.00010  -0.00054   0.00070   0.00017   2.06865
    R5        2.87289  -0.00050  -0.00079  -0.00162  -0.00241   2.87047
    R6        3.40569   0.00373   0.00833   0.01230   0.02063   3.42632
    R7        2.06530   0.00008  -0.00093   0.00088  -0.00005   2.06525
    R8        2.06698  -0.00060  -0.00084  -0.00173  -0.00257   2.06441
    R9        2.07089  -0.00006   0.00036  -0.00046  -0.00010   2.07079
   R10        2.06850   0.00009  -0.00053   0.00068   0.00016   2.06866
    A1        1.94558  -0.00048   0.00224  -0.00508  -0.00283   1.94275
    A2        1.91256  -0.00045  -0.00499  -0.00057  -0.00560   1.90696
    A3        1.92781   0.00000  -0.00561   0.00355  -0.00209   1.92571
    A4        1.89214   0.00048   0.00395   0.00129   0.00525   1.89740
    A5        1.89196   0.00027   0.00167   0.00141   0.00309   1.89506
    A6        1.89263   0.00021   0.00312  -0.00052   0.00251   1.89514
    A7        1.96651  -0.00010   0.00518  -0.00320   0.00187   1.96839
    A8        1.91103  -0.00014  -0.00026  -0.00509  -0.00536   1.90567
    A9        1.91720   0.00032   0.00139   0.00773   0.00900   1.92620
   A10        1.91103  -0.00014  -0.00028  -0.00508  -0.00537   1.90566
   A11        1.91724   0.00032   0.00139   0.00768   0.00894   1.92619
   A12        1.83630  -0.00028  -0.00816  -0.00204  -0.01016   1.82615
   A13        1.94557  -0.00048   0.00226  -0.00509  -0.00281   1.94276
   A14        1.91255  -0.00044  -0.00499  -0.00055  -0.00559   1.90697
   A15        1.92778   0.00000  -0.00556   0.00353  -0.00207   1.92572
   A16        1.89220   0.00047   0.00389   0.00128   0.00518   1.89738
   A17        1.89190   0.00028   0.00173   0.00144   0.00318   1.89508
   A18        1.89268   0.00021   0.00306  -0.00053   0.00244   1.89512
    D1        3.13473  -0.00028  -0.00194  -0.00365  -0.00560   3.12913
    D2        1.00353   0.00006  -0.00486   0.00867   0.00380   1.00733
    D3       -1.00481   0.00030   0.00434   0.00967   0.01403  -0.99077
    D4       -1.05386  -0.00029   0.00117  -0.00565  -0.00452  -1.05838
    D5        3.09812   0.00006  -0.00175   0.00667   0.00488   3.10301
    D6        1.08979   0.00029   0.00744   0.00767   0.01511   1.10490
    D7        1.03017  -0.00031  -0.00177  -0.00445  -0.00621   1.02396
    D8       -1.10103   0.00004  -0.00469   0.00787   0.00319  -1.09784
    D9       -3.10937   0.00027   0.00450   0.00886   0.01342  -3.09595
   D10       -3.13481   0.00028   0.00190   0.00371   0.00564  -3.12918
   D11        1.05372   0.00029  -0.00114   0.00572   0.00463   1.05835
   D12       -1.03036   0.00031   0.00186   0.00454   0.00639  -1.02397
   D13       -1.00361  -0.00007   0.00484  -0.00861  -0.00376  -1.00737
   D14       -3.09826  -0.00006   0.00179  -0.00660  -0.00477  -3.10303
   D15        1.10085  -0.00004   0.00479  -0.00778  -0.00301   1.09784
   D16        1.00475  -0.00030  -0.00437  -0.00963  -0.01403   0.99072
   D17       -1.08990  -0.00029  -0.00741  -0.00762  -0.01504  -1.10494
   D18        3.10921  -0.00027  -0.00442  -0.00881  -0.01328   3.09593
         Item               Value     Threshold  Converged?
 Maximum Force            0.003733     0.000450     NO 
 RMS     Force            0.000627     0.000300     NO 
 Maximum Displacement     0.013649     0.001800     NO 
 RMS     Displacement     0.004516     0.001200     NO 
 Predicted change in Energy=-7.160678D-05
 GradGradGradGradGradGradGradGradGradGradGradGradGradGradGradGradGradGrad

                          Input orientation:                          
 ---------------------------------------------------------------------
 Center     Atomic      Atomic             Coordinates (Angstroms)
 Number     Number       Type             X           Y           Z
 ---------------------------------------------------------------------
      1          6           0        0.860825   -0.544332    0.390635
      2          6           0        0.995735   -0.288570    1.881844
      3          6           0        1.195545    1.180839    2.210847
      4         17           0        2.399248   -1.239377    2.524932
      5          1           0        0.730892   -1.608457    0.180478
      6          1           0       -0.010841   -0.001449    0.008175
      7          1           0        1.751688   -0.190630   -0.138129
      8          1           0        0.127379   -0.683071    2.415439
      9          1           0        1.302100    1.335839    3.286970
     10          1           0        0.329261    1.751415    1.857565
     11          1           0        2.092068    1.563692    1.712844
 ---------------------------------------------------------------------
                    Distance matrix (angstroms):
                    1          2          3          4          5
     1  C    0.000000
     2  C    1.518987   0.000000
     3  C    2.530104   1.518990   0.000000
     4  Cl   2.721224   1.813131   2.721212   0.000000
     5  H    1.092434   2.169537   3.481160   2.901051   0.000000
     6  H    1.095809   2.146222   2.775777   3.697981   1.778295
     7  H    1.094684   2.159015   2.776312   2.934467   1.775886
     8  H    2.158014   1.092885   2.158008   2.341549   2.493115
     9  H    3.481167   2.169549   1.092437   2.901064   4.318039
    10  H    2.775770   2.146233   1.095816   3.697980   3.776595
    11  H    2.776322   2.159023   1.094686   2.934457   3.776702
                    6          7          8          9         10
     6  H    0.000000
     7  H    1.778680   0.000000
     8  H    2.505721   3.066201   0.000000
     9  H    3.776593   3.776710   2.493097   0.000000
    10  H    2.570689   3.126920   2.505734   1.778291   0.000000
    11  H    3.126946   2.572859   3.066201   1.775905   1.778672
                   11
    11  H    0.000000
 Stoichiometry    C3H7Cl
 Framework group  C1[X(C3H7Cl)]
 Deg. of freedom    27
 Full point group                 C1      NOp   1
 Largest Abelian subgroup         C1      NOp   1
 Largest concise Abelian subgroup C1      NOp   1
                         Standard orientation:                         
 ---------------------------------------------------------------------
 Center     Atomic      Atomic             Coordinates (Angstroms)
 Number     Number       Type             X           Y           Z
 ---------------------------------------------------------------------
      1          6           0       -1.059725   -1.265047   -0.120318
      2          6           0       -0.404124   -0.000003    0.406154
      3          6           0       -1.059699    1.265057   -0.120319
      4         17           0        1.348754   -0.000006   -0.057377
      5          1           0       -0.562326   -2.159015    0.262863
      6          1           0       -2.109620   -1.285334    0.192901
      7          1           0       -1.021514   -1.286420   -1.214126
      8          1           0       -0.400656    0.000005    1.499034
      9          1           0       -0.562316    2.159024    0.262895
     10          1           0       -2.109610    1.285355    0.192873
     11          1           0       -1.021484    1.286439   -1.214129
 ---------------------------------------------------------------------
 Rotational constants (GHZ):      8.1048624      4.5429715      3.2020639
 Standard basis: 6-31+G(d) (6D, 7F)
 There are    94 symmetry adapted cartesian basis functions of A   symmetry.
 There are    94 symmetry adapted basis functions of A   symmetry.
    94 basis functions,   180 primitive gaussians,    94 cartesian basis functions
    21 alpha electrons       21 beta electrons
       nuclear repulsion energy       165.9865381194 Hartrees.
 NAtoms=   11 NActive=   11 NUniq=   11 SFac= 1.00D+00 NAtFMM=   60 NAOKFM=F Big=F
 Integral buffers will be    131072 words long.
 Raffenetti 2 integral format.
 Two-electron integral symmetry is turned on.
 One-electron integrals computed using PRISM.
 NBasis=    94 RedAO= T EigKep=  1.05D-04  NBF=    94
 NBsUse=    94 1.00D-06 EigRej= -1.00D+00 NBFU=    94
 Initial guess from the checkpoint file:  "/srv/scratch/z5358697/gauss/Gau-1714157.chk"
 B after Tr=     0.000000    0.000000    0.000000
         Rot=    1.000000    0.000004    0.000401    0.000001 Ang=   0.05 deg.
 Keep R1 ints in memory in canonical form, NReq=10932382.
 Requested convergence on RMS density matrix=1.00D-08 within 128 cycles.
 Requested convergence on MAX density matrix=1.00D-06.
 Requested convergence on             energy=1.00D-06.
 No special actions if energy rises.
 SCF Done:  E(RM062X) =  -578.642589851     A.U. after    9 cycles
            NFock=  9  Conv=0.35D-08     -V/T= 2.0040
 Calling FoFJK, ICntrl=      2127 FMM=F ISym2X=0 I1Cent= 0 IOpClX= 0 NMat=1 NMatS=1 NMatT=0.
 ***** Axes restored to original set *****
 -------------------------------------------------------------------
 Center     Atomic                   Forces (Hartrees/Bohr)
 Number     Number              X              Y              Z
 -------------------------------------------------------------------
      1        6           0.000217850    0.000129546    0.000388117
      2        6          -0.000834321    0.000419298   -0.000238968
      3        6           0.000107273   -0.000406466   -0.000184382
      4       17           0.000655242   -0.000389956    0.000247955
      5        1          -0.000121798   -0.000136795   -0.000138538
      6        1           0.000031074   -0.000081269   -0.000265401
      7        1          -0.000137788   -0.000028387   -0.000071094
      8        1           0.000163397    0.000009675   -0.000040286
      9        1          -0.000064397    0.000147104    0.000159540
     10        1           0.000097335    0.000245879    0.000084107
     11        1          -0.000113867    0.000091371    0.000058949
 -------------------------------------------------------------------
 Cartesian Forces:  Max     0.000834321 RMS     0.000265976

 GradGradGradGradGradGradGradGradGradGradGradGradGradGradGradGradGradGrad
 Berny optimization.
 Using GEDIIS/GDIIS optimizer.
 FormGI is forming the generalized inverse of G from B-inverse, IUseBI=4.
 Internal  Forces:  Max     0.000801085 RMS     0.000174311
 Search for a local minimum.
 Step number   3 out of a maximum of   56
 All quantities printed in internal units (Hartrees-Bohrs-Radians)
 Mixed Optimization -- En-DIIS/RFO-DIIS
 Swapping is turned off.
 Update second derivatives using D2CorX and points    1    2    3
 DE= -7.73D-05 DEPred=-7.16D-05 R= 1.08D+00
 TightC=F SS=  1.41D+00  RLast= 4.93D-02 DXNew= 5.0454D-01 1.4798D-01
 Trust test= 1.08D+00 RLast= 4.93D-02 DXMaxT set to 3.00D-01
 ITU=  1  1  0
     Eigenvalues ---    0.00472   0.00478   0.03487   0.05404   0.05624
     Eigenvalues ---    0.05647   0.05823   0.05883   0.09602   0.15846
     Eigenvalues ---    0.16000   0.16000   0.16000   0.16436   0.16890
     Eigenvalues ---    0.17014   0.20173   0.24007   0.30197   0.30308
     Eigenvalues ---    0.34174   0.34183   0.34196   0.34214   0.34234
     Eigenvalues ---    0.34250   0.34715
 En-DIIS/RFO-DIIS IScMMF=        0 using points:     3    2
 RFO step:  Lambda=-3.20965692D-06.
 DidBck=F Rises=F RFO-DIIS coefs:    1.08828   -0.08828
 Iteration  1 RMS(Cart)=  0.00213800 RMS(Int)=  0.00000346
 Iteration  2 RMS(Cart)=  0.00000236 RMS(Int)=  0.00000259
 Iteration  3 RMS(Cart)=  0.00000000 RMS(Int)=  0.00000259
 Variable       Old X    -DE/DX   Delta X   Delta X   Delta X     New X
                                 (Linear)    (Quad)   (Total)
    R1        2.87047   0.00011  -0.00021   0.00042   0.00021   2.87068
    R2        2.06440   0.00017  -0.00023   0.00060   0.00037   2.06477
    R3        2.07078   0.00003  -0.00001   0.00012   0.00010   2.07088
    R4        2.06865  -0.00009   0.00001  -0.00032  -0.00030   2.06835
    R5        2.87047   0.00010  -0.00021   0.00042   0.00020   2.87068
    R6        3.42632   0.00080   0.00182   0.00288   0.00470   3.43102
    R7        2.06525  -0.00015   0.00000  -0.00054  -0.00055   2.06471
    R8        2.06441   0.00017  -0.00023   0.00059   0.00036   2.06477
    R9        2.07079   0.00002  -0.00001   0.00010   0.00010   2.07089
   R10        2.06866  -0.00009   0.00001  -0.00032  -0.00031   2.06835
    A1        1.94275   0.00007  -0.00025   0.00074   0.00048   1.94323
    A2        1.90696   0.00034  -0.00049   0.00213   0.00164   1.90860
    A3        1.92571   0.00011  -0.00018   0.00052   0.00034   1.92605
    A4        1.89740  -0.00023   0.00046  -0.00166  -0.00120   1.89620
    A5        1.89506  -0.00009   0.00027  -0.00049  -0.00022   1.89484
    A6        1.89514  -0.00022   0.00022  -0.00134  -0.00112   1.89402
    A7        1.96839   0.00030   0.00017   0.00173   0.00189   1.97028
    A8        1.90567  -0.00012  -0.00047  -0.00073  -0.00120   1.90447
    A9        1.92620  -0.00007   0.00079  -0.00005   0.00074   1.92694
   A10        1.90566  -0.00012  -0.00047  -0.00072  -0.00119   1.90446
   A11        1.92619  -0.00007   0.00079  -0.00003   0.00075   1.92693
   A12        1.82615   0.00006  -0.00090  -0.00039  -0.00128   1.82487
   A13        1.94276   0.00007  -0.00025   0.00073   0.00048   1.94323
   A14        1.90697   0.00034  -0.00049   0.00213   0.00163   1.90860
   A15        1.92572   0.00011  -0.00018   0.00052   0.00034   1.92605
   A16        1.89738  -0.00023   0.00046  -0.00165  -0.00119   1.89619
   A17        1.89508  -0.00009   0.00028  -0.00051  -0.00023   1.89485
   A18        1.89512  -0.00022   0.00022  -0.00133  -0.00111   1.89400
    D1        3.12913  -0.00001  -0.00049   0.00194   0.00144   3.13057
    D2        1.00733   0.00002   0.00034   0.00222   0.00255   1.00988
    D3       -0.99077   0.00006   0.00124   0.00312   0.00436  -0.98641
    D4       -1.05838  -0.00003  -0.00040   0.00172   0.00132  -1.05706
    D5        3.10301   0.00000   0.00043   0.00200   0.00243   3.10544
    D6        1.10490   0.00004   0.00133   0.00291   0.00424   1.10915
    D7        1.02396  -0.00003  -0.00055   0.00171   0.00116   1.02512
    D8       -1.09784   0.00001   0.00028   0.00199   0.00228  -1.09556
    D9       -3.09595   0.00005   0.00119   0.00290   0.00409  -3.09186
   D10       -3.12918   0.00002   0.00050  -0.00191  -0.00141  -3.13059
   D11        1.05835   0.00003   0.00041  -0.00170  -0.00129   1.05705
   D12       -1.02397   0.00003   0.00056  -0.00172  -0.00115  -1.02512
   D13       -1.00737  -0.00002  -0.00033  -0.00219  -0.00253  -1.00990
   D14       -3.10303   0.00000  -0.00042  -0.00199  -0.00241  -3.10544
   D15        1.09784  -0.00001  -0.00027  -0.00200  -0.00227   1.09557
   D16        0.99072  -0.00006  -0.00124  -0.00308  -0.00432   0.98640
   D17       -1.10494  -0.00004  -0.00133  -0.00288  -0.00421  -1.10915
   D18        3.09593  -0.00005  -0.00117  -0.00289  -0.00407   3.09186
         Item               Value     Threshold  Converged?
 Maximum Force            0.000801     0.000450     NO 
 RMS     Force            0.000174     0.000300     YES
 Maximum Displacement     0.005598     0.001800     NO 
 RMS     Displacement     0.002138     0.001200     NO 
 Predicted change in Energy=-4.134393D-06
 GradGradGradGradGradGradGradGradGradGradGradGradGradGradGradGradGradGrad

                          Input orientation:                          
 ---------------------------------------------------------------------
 Center     Atomic      Atomic             Coordinates (Angstroms)
 Number     Number       Type             X           Y           Z
 ---------------------------------------------------------------------
      1          6           0        0.860245   -0.545041    0.390184
      2          6           0        0.995093   -0.287825    1.881261
      3          6           0        1.195192    1.181342    2.211668
      4         17           0        2.401911   -1.238801    2.523894
      5          1           0        0.728693   -1.609282    0.180602
      6          1           0       -0.010251   -0.001945    0.005212
      7          1           0        1.751418   -0.193197   -0.138965
      8          1           0        0.128593   -0.683969    2.416063
      9          1           0        1.300124    1.336055    3.288187
     10          1           0        0.330466    1.754172    1.858061
     11          1           0        2.092415    1.564391    1.715434
 ---------------------------------------------------------------------
                    Distance matrix (angstroms):
                    1          2          3          4          5
     1  C    0.000000
     2  C    1.519097   0.000000
     3  C    2.531875   1.519098   0.000000
     4  Cl   2.722271   1.815618   2.722268   0.000000
     5  H    1.092630   2.170129   3.482877   2.903090   0.000000
     6  H    1.095864   2.147557   2.778795   3.700283   1.777733
     7  H    1.094524   2.159235   2.779248   2.933811   1.775778
     8  H    2.158426   1.092596   2.158424   2.342528   2.492712
     9  H    3.482878   2.170131   1.092630   2.903095   4.319564
    10  H    2.778796   2.147562   1.095867   3.700285   3.779588
    11  H    2.779250   2.159240   1.094524   2.933816   3.779900
                    6          7          8          9         10
     6  H    0.000000
     7  H    1.777876   0.000000
     8  H    2.509310   3.066364   0.000000
     9  H    3.779582   3.779901   2.492705   0.000000
    10  H    2.575477   3.130410   2.509313   1.777728   0.000000
    11  H    3.130410   2.577633   3.066365   1.775785   1.777870
                   11
    11  H    0.000000
 Stoichiometry    C3H7Cl
 Framework group  C1[X(C3H7Cl)]
 Deg. of freedom    27
 Full point group                 C1      NOp   1
 Largest Abelian subgroup         C1      NOp   1
 Largest concise Abelian subgroup C1      NOp   1
                         Standard orientation:                         
 ---------------------------------------------------------------------
 Center     Atomic      Atomic             Coordinates (Angstroms)
 Number     Number       Type             X           Y           Z
 ---------------------------------------------------------------------
      1          6           0       -1.059760   -1.265938   -0.120359
      2          6           0       -0.405943   -0.000001    0.406504
      3          6           0       -1.059758    1.265937   -0.120360
      4         17           0        1.349428    0.000000   -0.057329
      5          1           0       -0.563498   -2.159782    0.265138
      6          1           0       -2.110785   -1.287738    0.189137
      7          1           0       -1.018819   -1.288816   -1.213878
      8          1           0       -0.401286    0.000002    1.499090
      9          1           0       -0.563506    2.159782    0.265147
     10          1           0       -2.110788    1.287739    0.189132
     11          1           0       -1.018825    1.288817   -1.213879
 ---------------------------------------------------------------------
 Rotational constants (GHZ):      8.0935596      4.5393978      3.1985994
 Standard basis: 6-31+G(d) (6D, 7F)
 There are    94 symmetry adapted cartesian basis functions of A   symmetry.
 There are    94 symmetry adapted basis functions of A   symmetry.
    94 basis functions,   180 primitive gaussians,    94 cartesian basis functions
    21 alpha electrons       21 beta electrons
       nuclear repulsion energy       165.9050605482 Hartrees.
 NAtoms=   11 NActive=   11 NUniq=   11 SFac= 1.00D+00 NAtFMM=   60 NAOKFM=F Big=F
 Integral buffers will be    131072 words long.
 Raffenetti 2 integral format.
 Two-electron integral symmetry is turned on.
 One-electron integrals computed using PRISM.
 NBasis=    94 RedAO= T EigKep=  1.06D-04  NBF=    94
 NBsUse=    94 1.00D-06 EigRej= -1.00D+00 NBFU=    94
 Initial guess from the checkpoint file:  "/srv/scratch/z5358697/gauss/Gau-1714157.chk"
 B after Tr=     0.000000    0.000000    0.000000
         Rot=    1.000000    0.000000    0.000212   -0.000003 Ang=   0.02 deg.
 Keep R1 ints in memory in canonical form, NReq=10932382.
 Requested convergence on RMS density matrix=1.00D-08 within 128 cycles.
 Requested convergence on MAX density matrix=1.00D-06.
 Requested convergence on             energy=1.00D-06.
 No special actions if energy rises.
 SCF Done:  E(RM062X) =  -578.642594646     A.U. after    8 cycles
            NFock=  8  Conv=0.35D-08     -V/T= 2.0040
 Calling FoFJK, ICntrl=      2127 FMM=F ISym2X=0 I1Cent= 0 IOpClX= 0 NMat=1 NMatS=1 NMatT=0.
 ***** Axes restored to original set *****
 -------------------------------------------------------------------
 Center     Atomic                   Forces (Hartrees/Bohr)
 Number     Number              X              Y              Z
 -------------------------------------------------------------------
      1        6           0.000121288    0.000107034    0.000296233
      2        6          -0.000142197    0.000094050   -0.000061585
      3        6           0.000038271   -0.000303226   -0.000139940
      4       17           0.000037474    0.000014814   -0.000021168
      5        1          -0.000039001   -0.000035148   -0.000014050
      6        1          -0.000005345   -0.000020156   -0.000074149
      7        1          -0.000009240   -0.000005736   -0.000063925
      8        1           0.000007729   -0.000003921    0.000001994
      9        1          -0.000027402    0.000018127    0.000042427
     10        1           0.000013387    0.000070797    0.000023659
     11        1           0.000005036    0.000063365    0.000010503
 -------------------------------------------------------------------
 Cartesian Forces:  Max     0.000303226 RMS     0.000093387

 GradGradGradGradGradGradGradGradGradGradGradGradGradGradGradGradGradGrad
 Berny optimization.
 Using GEDIIS/GDIIS optimizer.
 FormGI is forming the generalized inverse of G from B-inverse, IUseBI=4.
 GSVD:  received Info=                   1 from GESDD.
 Internal  Forces:  Max     0.000156203 RMS     0.000048961
 Search for a local minimum.
 Step number   4 out of a maximum of   56
 All quantities printed in internal units (Hartrees-Bohrs-Radians)
 Mixed Optimization -- En-DIIS/RFO-DIIS
 Swapping is turned off.
 Update second derivatives using D2CorX and points    1    2    3    4
 DE= -4.80D-06 DEPred=-4.13D-06 R= 1.16D+00
 TightC=F SS=  1.41D+00  RLast= 1.40D-02 DXNew= 5.0454D-01 4.1940D-02
 Trust test= 1.16D+00 RLast= 1.40D-02 DXMaxT set to 3.00D-01
 ITU=  1  1  1  0
     Eigenvalues ---    0.00455   0.00478   0.03296   0.05426   0.05618
     Eigenvalues ---    0.05630   0.05812   0.05880   0.09631   0.15196
     Eigenvalues ---    0.15966   0.16000   0.16000   0.16000   0.16902
     Eigenvalues ---    0.16939   0.18976   0.24130   0.30197   0.32412
     Eigenvalues ---    0.34108   0.34174   0.34196   0.34214   0.34238
     Eigenvalues ---    0.34274   0.35206
 En-DIIS/RFO-DIIS IScMMF=        0 using points:     4    3    2
 RFO step:  Lambda=-2.69318506D-07.
 DidBck=F Rises=F RFO-DIIS coefs:    1.16096   -0.16266    0.00170
 Iteration  1 RMS(Cart)=  0.00072246 RMS(Int)=  0.00000039
 Iteration  2 RMS(Cart)=  0.00000038 RMS(Int)=  0.00000016
 Variable       Old X    -DE/DX   Delta X   Delta X   Delta X     New X
                                 (Linear)    (Quad)   (Total)
    R1        2.87068  -0.00016   0.00004  -0.00063  -0.00059   2.87009
    R2        2.06477   0.00004   0.00006   0.00009   0.00015   2.06492
    R3        2.07088   0.00002   0.00002   0.00007   0.00008   2.07097
    R4        2.06835   0.00002  -0.00005   0.00009   0.00004   2.06839
    R5        2.87068  -0.00016   0.00004  -0.00063  -0.00059   2.87009
    R6        3.43102   0.00001   0.00072  -0.00021   0.00051   3.43153
    R7        2.06471   0.00000  -0.00009   0.00001  -0.00007   2.06463
    R8        2.06477   0.00004   0.00006   0.00009   0.00015   2.06492
    R9        2.07089   0.00002   0.00002   0.00006   0.00008   2.07097
   R10        2.06835   0.00002  -0.00005   0.00009   0.00004   2.06839
    A1        1.94323  -0.00002   0.00008  -0.00022  -0.00014   1.94310
    A2        1.90860   0.00009   0.00027   0.00033   0.00060   1.90920
    A3        1.92605   0.00008   0.00006   0.00052   0.00057   1.92662
    A4        1.89620  -0.00005  -0.00020  -0.00038  -0.00058   1.89562
    A5        1.89484  -0.00003  -0.00004  -0.00007  -0.00011   1.89473
    A6        1.89402  -0.00007  -0.00019  -0.00019  -0.00038   1.89364
    A7        1.97028   0.00004   0.00030   0.00002   0.00032   1.97059
    A8        1.90447  -0.00003  -0.00018  -0.00038  -0.00056   1.90391
    A9        1.92694   0.00000   0.00010   0.00026   0.00036   1.92730
   A10        1.90446  -0.00003  -0.00018  -0.00038  -0.00056   1.90391
   A11        1.92693   0.00000   0.00010   0.00026   0.00037   1.92730
   A12        1.82487   0.00002  -0.00019   0.00021   0.00002   1.82489
   A13        1.94323  -0.00002   0.00008  -0.00022  -0.00014   1.94310
   A14        1.90860   0.00009   0.00027   0.00033   0.00060   1.90920
   A15        1.92605   0.00008   0.00006   0.00051   0.00057   1.92662
   A16        1.89619  -0.00005  -0.00020  -0.00037  -0.00057   1.89562
   A17        1.89485  -0.00003  -0.00004  -0.00008  -0.00012   1.89473
   A18        1.89400  -0.00007  -0.00018  -0.00019  -0.00037   1.89363
    D1        3.13057  -0.00001   0.00024   0.00032   0.00056   3.13113
    D2        1.00988   0.00003   0.00040   0.00105   0.00146   1.01134
    D3       -0.98641   0.00002   0.00068   0.00087   0.00155  -0.98486
    D4       -1.05706  -0.00003   0.00022  -0.00007   0.00015  -1.05691
    D5        3.10544   0.00001   0.00038   0.00066   0.00104   3.10648
    D6        1.10915   0.00000   0.00066   0.00048   0.00114   1.11028
    D7        1.02512  -0.00002   0.00020   0.00021   0.00041   1.02553
    D8       -1.09556   0.00002   0.00036   0.00094   0.00130  -1.09426
    D9       -3.09186   0.00001   0.00063   0.00076   0.00140  -3.09046
   D10       -3.13059   0.00001  -0.00024  -0.00031  -0.00055  -3.13113
   D11        1.05705   0.00003  -0.00022   0.00007  -0.00014   1.05691
   D12       -1.02512   0.00001  -0.00020  -0.00021  -0.00041  -1.02553
   D13       -1.00990  -0.00003  -0.00040  -0.00105  -0.00145  -1.01134
   D14       -3.10544  -0.00001  -0.00038  -0.00066  -0.00104  -3.10648
   D15        1.09557  -0.00002  -0.00036  -0.00095  -0.00131   1.09426
   D16        0.98640  -0.00002  -0.00067  -0.00086  -0.00154   0.98486
   D17       -1.10915   0.00000  -0.00065  -0.00048  -0.00113  -1.11028
   D18        3.09186  -0.00001  -0.00063  -0.00077  -0.00140   3.09047
         Item               Value     Threshold  Converged?
 Maximum Force            0.000156     0.000450     YES
 RMS     Force            0.000049     0.000300     YES
 Maximum Displacement     0.001584     0.001800     YES
 RMS     Displacement     0.000722     0.001200     YES
 Predicted change in Energy=-3.940870D-07
 Optimization completed.
    -- Stationary point found.
                           ----------------------------
                           !   Optimized Parameters   !
                           ! (Angstroms and Degrees)  !
 --------------------------                            --------------------------
 ! Name  Definition              Value          Derivative Info.                !
 --------------------------------------------------------------------------------
 ! R1    R(1,2)                  1.5191         -DE/DX =   -0.0002              !
 ! R2    R(1,5)                  1.0926         -DE/DX =    0.0                 !
 ! R3    R(1,6)                  1.0959         -DE/DX =    0.0                 !
 ! R4    R(1,7)                  1.0945         -DE/DX =    0.0                 !
 ! R5    R(2,3)                  1.5191         -DE/DX =   -0.0002              !
 ! R6    R(2,4)                  1.8156         -DE/DX =    0.0                 !
 ! R7    R(2,8)                  1.0926         -DE/DX =    0.0                 !
 ! R8    R(3,9)                  1.0926         -DE/DX =    0.0                 !
 ! R9    R(3,10)                 1.0959         -DE/DX =    0.0                 !
 ! R10   R(3,11)                 1.0945         -DE/DX =    0.0                 !
 ! A1    A(2,1,5)              111.339          -DE/DX =    0.0                 !
 ! A2    A(2,1,6)              109.3547         -DE/DX =    0.0001              !
 ! A3    A(2,1,7)              110.3545         -DE/DX =    0.0001              !
 ! A4    A(5,1,6)              108.6441         -DE/DX =   -0.0001              !
 ! A5    A(5,1,7)              108.5664         -DE/DX =    0.0                 !
 ! A6    A(6,1,7)              108.5191         -DE/DX =   -0.0001              !
 ! A7    A(1,2,3)              112.8885         -DE/DX =    0.0                 !
 ! A8    A(1,2,4)              109.118          -DE/DX =    0.0                 !
 ! A9    A(1,2,8)              110.4054         -DE/DX =    0.0                 !
 ! A10   A(3,2,4)              109.1178         -DE/DX =    0.0                 !
 ! A11   A(3,2,8)              110.4051         -DE/DX =    0.0                 !
 ! A12   A(4,2,8)              104.5571         -DE/DX =    0.0                 !
 ! A13   A(2,3,9)              111.3391         -DE/DX =    0.0                 !
 ! A14   A(2,3,10)             109.3548         -DE/DX =    0.0001              !
 ! A15   A(2,3,11)             110.3548         -DE/DX =    0.0001              !
 ! A16   A(9,3,10)             108.6435         -DE/DX =   -0.0001              !
 ! A17   A(9,3,11)             108.5671         -DE/DX =    0.0                 !
 ! A18   A(10,3,11)            108.5185         -DE/DX =   -0.0001              !
 ! D1    D(5,1,2,3)            179.3685         -DE/DX =    0.0                 !
 ! D2    D(5,1,2,4)             57.862          -DE/DX =    0.0                 !
 ! D3    D(5,1,2,8)            -56.5173         -DE/DX =    0.0                 !
 ! D4    D(6,1,2,3)            -60.5648         -DE/DX =    0.0                 !
 ! D5    D(6,1,2,4)            177.9287         -DE/DX =    0.0                 !
 ! D6    D(6,1,2,8)             63.5493         -DE/DX =    0.0                 !
 ! D7    D(7,1,2,3)             58.7353         -DE/DX =    0.0                 !
 ! D8    D(7,1,2,4)            -62.7712         -DE/DX =    0.0                 !
 ! D9    D(7,1,2,8)           -177.1505         -DE/DX =    0.0                 !
 ! D10   D(1,2,3,9)           -179.3693         -DE/DX =    0.0                 !
 ! D11   D(1,2,3,10)            60.5646         -DE/DX =    0.0                 !
 ! D12   D(1,2,3,11)           -58.735          -DE/DX =    0.0                 !
 ! D13   D(4,2,3,9)            -57.8628         -DE/DX =    0.0                 !
 ! D14   D(4,2,3,10)          -177.9288         -DE/DX =    0.0                 !
 ! D15   D(4,2,3,11)            62.7716         -DE/DX =    0.0                 !
 ! D16   D(8,2,3,9)             56.5163         -DE/DX =    0.0                 !
 ! D17   D(8,2,3,10)           -63.5497         -DE/DX =    0.0                 !
 ! D18   D(8,2,3,11)           177.1507         -DE/DX =    0.0                 !
 --------------------------------------------------------------------------------
 GradGradGradGradGradGradGradGradGradGradGradGradGradGradGradGradGradGrad

                          Input orientation:                          
 ---------------------------------------------------------------------
 Center     Atomic      Atomic             Coordinates (Angstroms)
 Number     Number       Type             X           Y           Z
 ---------------------------------------------------------------------
      1          6           0        0.860245   -0.545041    0.390184
      2          6           0        0.995093   -0.287825    1.881261
      3          6           0        1.195192    1.181342    2.211668
      4         17           0        2.401911   -1.238801    2.523894
      5          1           0        0.728693   -1.609282    0.180602
      6          1           0       -0.010251   -0.001945    0.005212
      7          1           0        1.751418   -0.193197   -0.138965
      8          1           0        0.128593   -0.683969    2.416063
      9          1           0        1.300124    1.336055    3.288187
     10          1           0        0.330466    1.754172    1.858061
     11          1           0        2.092415    1.564391    1.715434
 ---------------------------------------------------------------------
                    Distance matrix (angstroms):
                    1          2          3          4          5
     1  C    0.000000
     2  C    1.519097   0.000000
     3  C    2.531875   1.519098   0.000000
     4  Cl   2.722271   1.815618   2.722268   0.000000
     5  H    1.092630   2.170129   3.482877   2.903090   0.000000
     6  H    1.095864   2.147557   2.778795   3.700283   1.777733
     7  H    1.094524   2.159235   2.779248   2.933811   1.775778
     8  H    2.158426   1.092596   2.158424   2.342528   2.492712
     9  H    3.482878   2.170131   1.092630   2.903095   4.319564
    10  H    2.778796   2.147562   1.095867   3.700285   3.779588
    11  H    2.779250   2.159240   1.094524   2.933816   3.779900
                    6          7          8          9         10
     6  H    0.000000
     7  H    1.777876   0.000000
     8  H    2.509310   3.066364   0.000000
     9  H    3.779582   3.779901   2.492705   0.000000
    10  H    2.575477   3.130410   2.509313   1.777728   0.000000
    11  H    3.130410   2.577633   3.066365   1.775785   1.777870
                   11
    11  H    0.000000
 Stoichiometry    C3H7Cl
 Framework group  C1[X(C3H7Cl)]
 Deg. of freedom    27
 Full point group                 C1      NOp   1
 Largest Abelian subgroup         C1      NOp   1
 Largest concise Abelian subgroup C1      NOp   1
                         Standard orientation:                         
 ---------------------------------------------------------------------
 Center     Atomic      Atomic             Coordinates (Angstroms)
 Number     Number       Type             X           Y           Z
 ---------------------------------------------------------------------
      1          6           0       -1.059760   -1.265938   -0.120359
      2          6           0       -0.405943   -0.000001    0.406504
      3          6           0       -1.059758    1.265937   -0.120360
      4         17           0        1.349428    0.000000   -0.057329
      5          1           0       -0.563498   -2.159782    0.265138
      6          1           0       -2.110785   -1.287738    0.189137
      7          1           0       -1.018819   -1.288816   -1.213878
      8          1           0       -0.401286    0.000002    1.499090
      9          1           0       -0.563506    2.159782    0.265147
     10          1           0       -2.110788    1.287739    0.189132
     11          1           0       -1.018825    1.288817   -1.213879
 ---------------------------------------------------------------------
 Rotational constants (GHZ):      8.0935596      4.5393978      3.1985994

 **********************************************************************

            Population analysis using the SCF density.

 **********************************************************************

 Orbital symmetries:
       Occupied  (A) (A) (A) (A) (A) (A) (A) (A) (A) (A) (A) (A)
                 (A) (A) (A) (A) (A) (A) (A) (A) (A)
       Virtual   (A) (A) (A) (A) (A) (A) (A) (A) (A) (A) (A) (A)
                 (A) (A) (A) (A) (A) (A) (A) (A) (A) (A) (A) (A)
                 (A) (A) (A) (A) (A) (A) (A) (A) (A) (A) (A) (A)
                 (A) (A) (A) (A) (A) (A) (A) (A) (A) (A) (A) (A)
                 (A) (A) (A) (A) (A) (A) (A) (A) (A) (A) (A) (A)
                 (A) (A) (A) (A) (A) (A) (A) (A) (A) (A) (A) (A)
                 (A)
 The electronic state is 1-A.
 Alpha  occ. eigenvalues -- -102.64848 -10.61752 -10.55335 -10.55334  -9.79570
 Alpha  occ. eigenvalues --   -7.51948  -7.51313  -7.51311  -0.96559  -0.85373
 Alpha  occ. eigenvalues --   -0.79721  -0.67242  -0.55326  -0.52598  -0.50020
 Alpha  occ. eigenvalues --   -0.46821  -0.43614  -0.42942  -0.41843  -0.35551
 Alpha  occ. eigenvalues --   -0.35547
 Alpha virt. eigenvalues --    0.02364   0.03994   0.04193   0.04933   0.05537
 Alpha virt. eigenvalues --    0.07133   0.08116   0.08959   0.09628   0.11027
 Alpha virt. eigenvalues --    0.12583   0.13480   0.13565   0.13949   0.15174
 Alpha virt. eigenvalues --    0.16513   0.18373   0.22374   0.24845   0.27013
 Alpha virt. eigenvalues --    0.27679   0.27769   0.30230   0.32703   0.35389
 Alpha virt. eigenvalues --    0.42873   0.60272   0.62996   0.63505   0.64923
 Alpha virt. eigenvalues --    0.65526   0.67529   0.70160   0.71955   0.72663
 Alpha virt. eigenvalues --    0.75933   0.78348   0.81843   0.86683   0.96248
 Alpha virt. eigenvalues --    0.97347   0.98021   1.01608   1.02547   1.04606
 Alpha virt. eigenvalues --    1.06551   1.08738   1.10970   1.15047   1.18108
 Alpha virt. eigenvalues --    1.18827   1.26233   1.44311   1.50861   1.58045
 Alpha virt. eigenvalues --    1.63854   1.80652   1.95010   1.96905   2.01422
 Alpha virt. eigenvalues --    2.09202   2.14982   2.27212   2.30950   2.32312
 Alpha virt. eigenvalues --    2.44007   2.45636   2.60908   2.70406   4.18543
 Alpha virt. eigenvalues --    4.32745   4.42033   4.51351
          Condensed to atoms (all electrons):
               1          2          3          4          5          6
     1  C    5.528079   0.215768  -0.174386  -0.083469   0.392219   0.388318
     2  C    0.215768   5.675121   0.215766   0.145252  -0.056478  -0.049847
     3  C   -0.174386   0.215766   5.528083  -0.083469   0.019037  -0.010066
     4  Cl  -0.083469   0.145252  -0.083469  17.100053  -0.003860   0.011568
     5  H    0.392219  -0.056478   0.019037  -0.003860   0.469150  -0.022983
     6  H    0.388318  -0.049847  -0.010066   0.011568  -0.022983   0.497915
     7  H    0.386335  -0.007392  -0.024556  -0.012889  -0.024266  -0.027648
     8  H   -0.058883   0.425783  -0.058884  -0.061670  -0.003822  -0.002685
     9  H    0.019037  -0.056476   0.392218  -0.003860  -0.000112   0.000031
    10  H   -0.010067  -0.049847   0.388318   0.011568   0.000031   0.001464
    11  H   -0.024556  -0.007392   0.386334  -0.012889  -0.000047  -0.000068
               7          8          9         10         11
     1  C    0.386335  -0.058883   0.019037  -0.010067  -0.024556
     2  C   -0.007392   0.425783  -0.056476  -0.049847  -0.007392
     3  C   -0.024556  -0.058884   0.392218   0.388318   0.386334
     4  Cl  -0.012889  -0.061670  -0.003860   0.011568  -0.012889
     5  H   -0.024266  -0.003822  -0.000112   0.000031  -0.000047
     6  H   -0.027648  -0.002685   0.000031   0.001464  -0.000068
     7  H    0.469073   0.003845  -0.000047  -0.000068   0.002537
     8  H    0.003845   0.506008  -0.003822  -0.002685   0.003845
     9  H   -0.000047  -0.003822   0.469149  -0.022983  -0.024265
    10  H   -0.000068  -0.002685  -0.022983   0.497917  -0.027648
    11  H    0.002537   0.003845  -0.024265  -0.027648   0.469072
 Mulliken charges:
               1
     1  C   -0.578396
     2  C   -0.450257
     3  C   -0.578395
     4  Cl  -0.006337
     5  H    0.231130
     6  H    0.214000
     7  H    0.235077
     8  H    0.252972
     9  H    0.231130
    10  H    0.213999
    11  H    0.235077
 Sum of Mulliken charges =   0.00000
 Mulliken charges with hydrogens summed into heavy atoms:
               1
     1  C    0.101811
     2  C   -0.197285
     3  C    0.101811
     4  Cl  -0.006337
 Electronic spatial extent (au):  <R**2>=            428.5699
 Charge=              0.0000 electrons
 Dipole moment (field-independent basis, Debye):
    X=             -2.3212    Y=              0.0000    Z=              0.4929  Tot=              2.3730
 Quadrupole moment (field-independent basis, Debye-Ang):
   XX=            -34.7128   YY=            -33.0287   ZZ=            -33.0302
   XY=              0.0000   XZ=             -0.3195   YZ=              0.0000
 Traceless Quadrupole moment (field-independent basis, Debye-Ang):
   XX=             -1.1223   YY=              0.5618   ZZ=              0.5604
   XY=              0.0000   XZ=             -0.3195   YZ=              0.0000
 Octapole moment (field-independent basis, Debye-Ang**2):
  XXX=              2.6891  YYY=              0.0000  ZZZ=              0.4066  XYY=              0.9046
  XXY=              0.0000  XXZ=             -0.1382  XZZ=              0.5133  YZZ=              0.0000
  YYZ=              0.8057  XYZ=              0.0000
 Hexadecapole moment (field-independent basis, Debye-Ang**3):
 XXXX=           -296.6279 YYYY=           -208.4710 ZZZZ=            -64.5719 XXXY=              0.0001
 XXXZ=             -6.4981 YYYX=             -0.0001 YYYZ=              0.0001 ZZZX=              0.6730
 ZZZY=              0.0000 XXYY=            -89.8556 XXZZ=            -64.8051 YYZZ=            -47.1639
 XXYZ=             -0.0001 YYXZ=              0.0043 ZZXY=              0.0000
 N-N= 1.659050605482D+02 E-N=-1.699097866586D+03  KE= 5.763338905345D+02
 1\1\GINC-KATANA2\FOpt\RM062X\6-31+G(d)\C3H7Cl1\Z5358697\20-Mar-2025\0\
 \#m062X/6-31+G(d) OPT Freq=noraman\\2-chloropropane\\0,1\C,0.860244546
 2,-0.5450406465,0.3901835262\C,0.9950932386,-0.2878251234,1.8812611087
 \C,1.195192314,1.1813417193,2.2116675394\Cl,2.4019107462,-1.2388009253
 ,2.5238938465\H,0.7286932681,-1.6092824644,0.1806018341\H,-0.010250515
 9,-0.0019445487,0.0052124442\H,1.75141835,-0.1931972911,-0.138965217\H
 ,0.1285931191,-0.6839686715,2.4160634039\H,1.3001239787,1.3360550463,3
 .2881865914\H,0.3304660535,1.7541723875,1.858060938\H,2.0924149016,1.5
 643905177,1.7154339846\\Version=ES64L-G09RevD.01\State=1-A\HF=-578.642
 5946\RMSD=3.518e-09\RMSF=9.339e-05\Dipole=-0.6942056,0.5118049,-0.3574
 292\Quadrupole=0.2028811,-0.1991115,-0.0037696,0.4012854,-0.3408462,0.
 5108396\PG=C01 [X(C3H7Cl1)]\\@


 THE SCIENTIFIC THEORIST IS NOT TO BE ENVIED. FOR NATURE, OR MORE
 PRECISELY EXPERIMENT, IS AN INEXORABLE AND NOT VERY FRIENDLY JUDGE OF HIS
 WORK.  IT NEVER SAYS "YES" TO A THEORY. IN THE MOST FAVORABLE CASES
 IT SAYS "MAYBE", AND IN THE GREAT MAJORITY OF CASES SIMPLY "NO"...
 PROBABLY EVERY THEORY WILL SOME DAY EXPERIENCE ITS "NO" - MOST
 THEORIES, SOON AFTER CONCEPTION.  -- A.EINSTEIN, NOV 11, 1922.
 Job cpu time:       0 days  0 hours  0 minutes 45.9 seconds.
 File lengths (MBytes):  RWF=    132 Int=      0 D2E=      0 Chk=      2 Scr=      2
 Normal termination of Gaussian 09 at Thu Mar 20 15:49:00 2025.
 Link1:  Proceeding to internal job step number  2.
 ---------------------------------------------------------------------
 #N Geom=AllCheck Guess=TCheck SCRF=Check GenChk RM062X/6-31+G(d) Freq
 ---------------------------------------------------------------------
 1/10=4,29=7,30=1,38=1,40=1/1,3;
 2/12=2,40=1/2;
 3/5=1,6=6,7=11,11=2,14=-4,16=1,25=1,30=1,70=2,71=2,74=-55,116=1,140=1/1,2,3;
 4/5=101/1;
 5/5=2,98=1/2;
 8/6=4,10=90,11=11/1;
 11/6=1,8=1,9=11,15=111,16=1/1,2,10;
 10/6=1/2;
 6/7=2,8=2,9=2,10=2,18=1,28=1/1;
 7/8=1,10=1,25=1/1,2,3,16;
 1/10=4,30=1/3;
 99//99;
[...]
 -------------------
 Temperature   298.150 Kelvin.  Pressure   1.00000 Atm.
 Atom     1 has atomic number  6 and mass  12.00000
 Atom     2 has atomic number  6 and mass  12.00000
 Atom     3 has atomic number  6 and mass  12.00000
 Atom     4 has atomic number 17 and mass  34.96885
 Atom     5 has atomic number  1 and mass   1.00783
 Atom     6 has atomic number  1 and mass   1.00783
 Atom     7 has atomic number  1 and mass   1.00783
 Atom     8 has atomic number  1 and mass   1.00783
 Atom     9 has atomic number  1 and mass   1.00783
 Atom    10 has atomic number  1 and mass   1.00783
 Atom    11 has atomic number  1 and mass   1.00783
 Molecular mass:    78.02363 amu.
 Principal axes and moments of inertia in atomic units:
                           1         2         3
     Eigenvalues --   222.98485 397.57283 564.22858
           X            0.99996   0.00000   0.00878
           Y            0.00000   1.00000   0.00000
           Z           -0.00878   0.00000   0.99996
 This molecule is an asymmetric top.
 Rotational symmetry number  1.
 Rotational temperatures (Kelvin)      0.38843     0.21786     0.15351
 Rotational constants (GHZ):           8.09356     4.53940     3.19860
 Zero-point vibrational energy     251617.1 (Joules/Mol)
                                   60.13794 (Kcal/Mol)
 Warning -- explicit consideration of   5 degrees of freedom as
           vibrations may cause significant error
 Vibrational temperatures:    323.90   380.66   471.46   493.13   616.15
          (Kelvin)            934.45  1324.78  1360.63  1388.34  1575.81
                             1681.91  1724.52  1887.22  1967.66  2055.24
                             2073.49  2162.67  2166.68  2181.17  2197.32
                             4425.43  4430.57  4502.23  4533.29  4543.87
                             4558.99  4563.52
 
 Zero-point correction=                           0.095836 (Hartree/Particle)
 Thermal correction to Energy=                    0.101080
 Thermal correction to Enthalpy=                  0.102024
 Thermal correction to Gibbs Free Energy=         0.067682
 Sum of electronic and zero-point Energies=           -578.546759
 Sum of electronic and thermal Energies=              -578.541514
 Sum of electronic and thermal Enthalpies=            -578.540570
 Sum of electronic and thermal Free Energies=         -578.574912
 
                     E (Thermal)             CV                S
                      KCal/Mol        Cal/Mol-Kelvin    Cal/Mol-Kelvin
 Total                   63.429             17.832             72.279
 Electronic               0.000              0.000              0.000
 Translational            0.889              2.981             38.978
 Rotational               0.889              2.981             25.417
 Vibrational             61.651             11.870              7.883
 Vibration     1          0.650              1.803              1.918
 Vibration     2          0.671              1.738              1.631
 Vibration     3          0.711              1.620              1.272
 Vibration     4          0.722              1.590              1.199
 Vibration     5          0.790              1.409              0.864
                       Q            Log10(Q)             Ln(Q)
 Total Bot       0.738469D-31        -31.131668        -71.683315
 Total V=0       0.890623D+13         12.949694         29.817772
 Vib (Bot)       0.340500D-43        -43.467882       -100.088498
 Vib (Bot)    1  0.876743D+00         -0.057128         -0.131541
 Vib (Bot)    2  0.732475D+00         -0.135207         -0.311326
 Vib (Bot)    3  0.571022D+00         -0.243347         -0.560328
 Vib (Bot)    4  0.540824D+00         -0.266944         -0.614662
 Vib (Bot)    5  0.407418D+00         -0.389959         -0.897915
 Vib (V=0)       0.410657D+01          0.613480          1.412589
 Vib (V=0)    1  0.150930D+01          0.178774          0.411643
 Vib (V=0)    2  0.138686D+01          0.142032          0.327042
 Vib (V=0)    3  0.125899D+01          0.100022          0.230310
 Vib (V=0)    4  0.123654D+01          0.092208          0.212317
 Vib (V=0)    5  0.114497D+01          0.058795          0.135381
 Electronic      0.100000D+01          0.000000          0.000000
 Translational   0.270891D+08          7.432794         17.114642
 Rotational      0.800608D+05          4.903420         11.290542
 ***** Axes restored to original set *****
 -------------------------------------------------------------------
 Center     Atomic                   Forces (Hartrees/Bohr)
 Number     Number              X              Y              Z
 -------------------------------------------------------------------
      1        6           0.000121291    0.000107028    0.000296233
      2        6          -0.000142185    0.000094048   -0.000061585
      3        6           0.000038274   -0.000303227   -0.000139935
      4       17           0.000037472    0.000014815   -0.000021169
      5        1          -0.000039001   -0.000035145   -0.000014050
      6        1          -0.000005349   -0.000020153   -0.000074150
      7        1          -0.000009241   -0.000005736   -0.000063925
      8        1           0.000007726   -0.000003922    0.000001995
      9        1          -0.000027403    0.000018127    0.000042424
     10        1           0.000013383    0.000070799    0.000023657
     11        1           0.000005034    0.000063365    0.000010504
 -------------------------------------------------------------------
 Cartesian Forces:  Max     0.000303227 RMS     0.000093386
 FormGI is forming the generalized inverse of G from B-inverse, IUseBI=4.
 GSVD:  received Info=                   1 from GESDD.

 GradGradGradGradGradGradGradGradGradGradGradGradGradGradGradGradGradGrad
 Berny optimization.
 Internal  Forces:  Max     0.000156202 RMS     0.000048961
 Search for a local minimum.
 Step number   1 out of a maximum of    2
 All quantities printed in internal units (Hartrees-Bohrs-Radians)
 Second derivative matrix not updated -- analytic derivatives used.
 ITU=  0
     Eigenvalues ---    0.00245   0.00341   0.03620   0.04515   0.04556
     Eigenvalues ---    0.04618   0.04744   0.05477   0.08448   0.12638
     Eigenvalues ---    0.13025   0.13060   0.14009   0.15002   0.15036
     Eigenvalues ---    0.18212   0.19334   0.24245   0.30936   0.32837
     Eigenvalues ---    0.34471   0.34598   0.34719   0.34896   0.35031
     Eigenvalues ---    0.35384   0.35514
 Angle between quadratic step and forces=  62.29 degrees.
 Linear search not attempted -- first point.
 Iteration  1 RMS(Cart)=  0.00080587 RMS(Int)=  0.00000044
 Iteration  2 RMS(Cart)=  0.00000043 RMS(Int)=  0.00000011
 Variable       Old X    -DE/DX   Delta X   Delta X   Delta X     New X
                                 (Linear)    (Quad)   (Total)
    R1        2.87068  -0.00016   0.00000  -0.00064  -0.00064   2.87003
    R2        2.06477   0.00004   0.00000   0.00016   0.00016   2.06493
    R3        2.07088   0.00002   0.00000   0.00011   0.00011   2.07099
    R4        2.06835   0.00002   0.00000   0.00005   0.00005   2.06840
    R5        2.87068  -0.00016   0.00000  -0.00065  -0.00065   2.87003
    R6        3.43102   0.00001   0.00000   0.00041   0.00041   3.43143
    R7        2.06471   0.00000   0.00000  -0.00003  -0.00003   2.06467
    R8        2.06477   0.00004   0.00000   0.00016   0.00016   2.06493
    R9        2.07089   0.00002   0.00000   0.00010   0.00010   2.07099
   R10        2.06835   0.00002   0.00000   0.00005   0.00005   2.06840
    A1        1.94323  -0.00002   0.00000  -0.00011  -0.00011   1.94313
    A2        1.90860   0.00009   0.00000   0.00068   0.00068   1.90928
    A3        1.92605   0.00008   0.00000   0.00068   0.00068   1.92673
    A4        1.89620  -0.00005   0.00000  -0.00069  -0.00069   1.89551
    A5        1.89484  -0.00003   0.00000  -0.00017  -0.00017   1.89467
    A6        1.89402  -0.00007   0.00000  -0.00044  -0.00044   1.89358
    A7        1.97028   0.00004   0.00000   0.00038   0.00038   1.97065
    A8        1.90447  -0.00003   0.00000  -0.00050  -0.00050   1.90397
    A9        1.92694   0.00000   0.00000   0.00025   0.00025   1.92719
   A10        1.90446  -0.00003   0.00000  -0.00049  -0.00049   1.90397
   A11        1.92693   0.00000   0.00000   0.00026   0.00026   1.92719
   A12        1.82487   0.00002   0.00000   0.00005   0.00005   1.82492
   A13        1.94323  -0.00002   0.00000  -0.00011  -0.00011   1.94313
   A14        1.90860   0.00009   0.00000   0.00068   0.00068   1.90928
   A15        1.92605   0.00008   0.00000   0.00068   0.00068   1.92673
   A16        1.89619  -0.00005   0.00000  -0.00068  -0.00068   1.89551
   A17        1.89485  -0.00003   0.00000  -0.00019  -0.00019   1.89467
   A18        1.89400  -0.00007   0.00000  -0.00043  -0.00043   1.89358
    D1        3.13057  -0.00001   0.00000   0.00081   0.00081   3.13138
    D2        1.00988   0.00003   0.00000   0.00154   0.00154   1.01142
    D3       -0.98641   0.00002   0.00000   0.00162   0.00162  -0.98479
    D4       -1.05706  -0.00003   0.00000   0.00033   0.00033  -1.05672
    D5        3.10544   0.00001   0.00000   0.00107   0.00107   3.10651
    D6        1.10915   0.00000   0.00000   0.00114   0.00114   1.11029
    D7        1.02512  -0.00002   0.00000   0.00064   0.00064   1.02576
    D8       -1.09556   0.00002   0.00000   0.00137   0.00137  -1.09419
    D9       -3.09186   0.00001   0.00000   0.00145   0.00145  -3.09041
   D10       -3.13059   0.00001   0.00000  -0.00080  -0.00080  -3.13138
   D11        1.05705   0.00003   0.00000  -0.00033  -0.00033   1.05672
   D12       -1.02512   0.00001   0.00000  -0.00065  -0.00065  -1.02577
   D13       -1.00990  -0.00003   0.00000  -0.00153  -0.00153  -1.01142
   D14       -3.10544  -0.00001   0.00000  -0.00106  -0.00106  -3.10651
   D15        1.09557  -0.00002   0.00000  -0.00138  -0.00138   1.09419
   D16        0.98640  -0.00002   0.00000  -0.00160  -0.00160   0.98479
   D17       -1.10915   0.00000   0.00000  -0.00114  -0.00114  -1.11029
   D18        3.09186  -0.00001   0.00000  -0.00145  -0.00145   3.09041
         Item               Value     Threshold  Converged?
 Maximum Force            0.000156     0.000450     YES
 RMS     Force            0.000049     0.000300     YES
 Maximum Displacement     0.001920     0.001800     NO 
 RMS     Displacement     0.000806     0.001200     YES
 Predicted change in Energy=-4.243414D-07
 GradGradGradGradGradGradGradGradGradGradGradGradGradGradGradGradGradGrad

 1\1\GINC-KATANA2\Freq\RM062X\6-31+G(d)\C3H7Cl1\Z5358697\20-Mar-2025\0\
 \#N Geom=AllCheck Guess=TCheck SCRF=Check GenChk RM062X/6-31+G(d) Freq
 \\2-chloropropane\\0,1\C,0.8602445462,-0.5450406465,0.3901835262\C,0.9
 950932386,-0.2878251234,1.8812611087\C,1.195192314,1.1813417193,2.2116
 675394\Cl,2.4019107462,-1.2388009253,2.5238938465\H,0.7286932681,-1.60
 92824644,0.1806018341\H,-0.0102505159,-0.0019445487,0.0052124442\H,1.7
 5141835,-0.1931972911,-0.138965217\H,0.1285931191,-0.6839686715,2.4160
 634039\H,1.3001239787,1.3360550463,3.2881865914\H,0.3304660535,1.75417
 23875,1.858060938\H,2.0924149016,1.5643905177,1.7154339846\\Version=ES
 64L-G09RevD.01\State=1-A\HF=-578.6425946\RMSD=1.422e-09\RMSF=9.339e-05
 \ZeroPoint=0.0958359\Thermal=0.1010803\Dipole=-0.6942055,0.5118048,-0.
 3574292\DipoleDeriv=0.0235969,0.0452706,-0.0779882,0.0430229,-0.013900
 9,-0.0103678,-0.0151904,-0.0200069,-0.0494653,0.5589823,-0.3535447,0.2
 817228,-0.3048721,0.4845218,-0.148413,0.2355898,-0.1394616,0.3576415,0
 .0204329,0.0630381,-0.0502155,-0.0004841,-0.0624305,-0.0150628,-0.0506
 754,-0.0175193,0.0022323,-0.4605706,0.2400687,-0.1902737,0.1942278,-0.
 41365,0.1118649,-0.1468258,0.1034351,-0.3289755,0.0798902,-0.0222058,0
 .0002811,-0.0325101,-0.0923596,-0.0638042,-0.0062676,-0.0153856,0.0326
 088,-0.0536436,0.082363,-0.0704512,0.0946545,0.0299652,0.0455492,-0.05
 94074,0.0315626,0.0035458,-0.0433701,-0.0561429,0.0924656,-0.0652378,0
 .0506865,0.0344687,0.015357,0.00492,0.0207981,-0.1173201,0.0074638,0.0
 154491,0.0055908,-0.0294939,0.0318212,0.0172251,0.031477,-0.0278366,0.
 080477,-0.020781,-0.0144096,-0.0055023,0.038614,-0.0090947,-0.012577,-
 0.056598,-0.0989515,-0.0531706,0.0905795,-0.0531282,0.0775144,-0.02871
 86,0.0282608,-0.0634387,0.0421051,0.0617492,-0.0353044,-0.0761093,0.06
 65478,-0.006404,0.0367658,-0.0052223,0.0862104,0.0354716,0.0266531\Pol
 ar=48.3092947,-5.6217341,48.9049525,4.9098495,-1.6868369,46.7303608\PG
 =C01 [X(C3H7Cl1)]\NImag=0\\0.58691225,0.00011268,0.60032345,-0.0143839
 1,-0.00679187,0.49610043,-0.07509802,-0.00804850,-0.00319595,0.4705035
 3,-0.00838101,-0.08310574,-0.02572204,0.09350873,0.46404133,-0.0009748
 8,-0.02428233,-0.21383151,-0.08552002,0.00494378,0.49844299,0.00131261
 ,-0.00368210,-0.00002814,-0.07847594,-0.02977728,0.00027323,0.58883032
 ,-0.00312983,-0.00665750,-0.00710177,-0.02786065,-0.20576126,-0.030908
 16,-0.00510092,0.49540832,-0.00519235,-0.03672271,-0.00918949,0.000362
 45,-0.02905494,-0.08779677,0.00031369,-0.01333190,0.59909259,-0.015354
 76,0.01025305,-0.00865922,-0.08895301,0.03124823,-0.01957067,-0.009874
 63,0.00885716,-0.00460064,0.13115805,0.00618859,-0.00273355,0.00354166
 ,0.03169770,-0.05413922,0.01295539,0.03230527,-0.02090372,0.01288157,-
 0.07117773,0.07897361,-0.02985412,0.01823555,-0.01232900,-0.01999658,0
 .01303796,-0.04300069,-0.00177747,0.00175214,0.00036082,0.04956120,-0.
 02971370,0.05286219,-0.05272037,-0.03271493,-0.00518493,-0.00227912,-0
 .00253466,-0.00112129,0.00039718,0.00012022,-0.00079487,-0.00002051,-0
 .00059228,0.00017079,0.05180176,-0.03396679,-0.31297808,-0.05029929,0.
 00072852,-0.00405258,0.00134002,0.00006774,0.00105112,-0.00160149,-0.0
 0027579,0.00126246,0.00045181,0.03592902,0.33592071,-0.00555576,-0.046
 40050,-0.05693734,-0.00486216,-0.03484191,-0.00587900,-0.00058197,0.00
 076324,-0.00699171,0.00078124,-0.00010122,0.00118666,0.00691321,0.0543
 2306,0.06291597,-0.21967293,0.10675670,-0.07349432,-0.00351403,0.00132
 179,-0.00041561,0.00003829,0.00035542,0.00043390,0.00159088,-0.0003215
 5,-0.00072463,0.00424354,-0.00265128,0.00274903,0.23567607,0.10735150,
 -0.11551406,0.04570047,-0.00425994,0.00064462,-0.00120875,-0.00021822,
 -0.00004340,-0.00027195,-0.00080188,0.00144145,-0.00085272,0.02597813,
 -0.01339988,0.01163860,-0.11846004,0.12122796,-0.07328758,0.04548541,-
 0.08132056,-0.02526811,0.01543436,-0.00949861,-0.00000089,0.00074707,0
 .00120731,-0.00339784,0.00088668,-0.00593900,0.00617977,-0.00253285,0.
 00178495,0.08213652,-0.04996868,0.08685104,-0.23132632,-0.07281977,0.1
 0719210,0.00169586,0.00164553,-0.00305875,0.00046261,0.00047566,-0.000
 34488,0.00170875,-0.00033022,0.00009005,-0.00240358,0.00002801,0.00055
 196,-0.01919093,-0.00926379,0.01218571,0.24760865,-0.07290070,-0.07815
 057,0.04176029,0.00515907,0.00113932,-0.00205375,0.00129572,0.00066597
 ,-0.00034299,-0.00010121,-0.00035340,0.00022519,-0.02658299,-0.0084312
 9,0.01609601,0.01388402,0.00544969,-0.00954097,0.07968981,0.07914978,0
 .10411328,0.04147610,-0.10768764,0.02973215,0.01155286,-0.01924905,0.0
 0037161,0.00160138,0.00137740,0.00037856,-0.00048143,0.00167041,-0.006
 18130,-0.00158755,0.00293129,-0.01014630,-0.00514285,0.00606930,-0.115
 79982,-0.04477092,0.12070602,0.00538224,0.00081462,-0.00206941,-0.2189
 5832,-0.08549119,0.11195991,-0.00071496,-0.00189656,0.00199258,-0.0241
 9568,0.00320185,0.00161005,-0.00002663,0.00016531,0.00025530,0.0002725
 2,-0.00003227,0.00082439,0.00130925,-0.00010978,-0.00140798,0.23538101
 ,0.00486150,0.00327094,-0.00396096,-0.08417944,-0.08505579,0.04799621,
 -0.02687243,-0.01229089,0.01529963,0.02113551,-0.00024312,-0.00264861,
 0.00062331,0.00039499,0.00039899,-0.00026849,0.00013795,0.00030204,0.0
 0005289,0.00049690,-0.00173795,0.08428565,0.09732810,0.02649771,0.0113
 2076,-0.01685920,0.11071670,0.04823749,-0.11682698,-0.00673829,-0.0038
 3072,0.00479962,-0.01538731,0.00064916,0.00327728,-0.00006080,-0.00038
 488,0.00122974,-0.00039059,0.00040197,0.00090487,-0.00123669,-0.001308
 68,-0.00617876,-0.11272859,-0.05393319,0.12862409,0.00034214,-0.000938
 92,0.00009307,-0.00220420,0.00079929,-0.00454956,-0.05108209,-0.004379
 43,-0.02529287,0.00005326,0.00010659,0.00079288,0.00057221,-0.00011852
 ,-0.00030386,0.00021310,-0.00005500,0.00040813,0.00017265,-0.00007308,
 -0.00039720,-0.00013992,0.00026973,-0.00041804,0.05013224,-0.00069946,
 -0.00690004,0.00034556,-0.00230296,-0.00448382,-0.03491519,-0.00331750
 ,-0.05246318,-0.03318372,-0.00058647,0.00130313,-0.00009938,-0.0002733
 0,-0.00020252,-0.00217369,-0.00022950,0.00010805,0.00018507,0.00017471
 ,-0.00002125,0.00010626,0.00009273,0.00120821,0.00055467,0.00466349,0.
 05795944,-0.00029696,-0.00198479,0.00101448,-0.00096113,0.00129625,-0.
 00552254,-0.02474226,-0.03711738,-0.31909103,0.00053935,0.00038440,0.0
 0107221,-0.00005624,-0.00005576,-0.00032703,0.00007404,0.00018804,0.00
 017543,-0.00009382,0.00017477,0.00030908,-0.00013228,-0.00034595,0.000
 52980,0.02808285,0.04020242,0.34254705,-0.00000912,-0.00023263,-0.0002
 2758,0.00212218,-0.00211367,0.00127163,-0.21844746,0.10978117,-0.06940
 250,0.00226717,-0.00104553,0.00026173,0.00018209,-0.00004830,0.0002445
 8,0.00043921,-0.00010023,0.00019159,-0.00007116,0.00010870,-0.00008122
 ,0.00028791,0.00056580,0.00033555,-0.00180825,0.00013363,-0.00000573,0
 .23419487,0.00036774,0.00120533,0.00083407,0.02524055,-0.01474137,0.00
 993613,0.10955842,-0.12095478,0.04458019,0.00189130,-0.00637541,-0.000
 07903,-0.00037050,0.00023959,0.00022041,-0.00047486,-0.00004674,-0.000
 92240,-0.00004287,-0.00005876,-0.00005550,-0.00063693,0.00091265,0.000
 42516,-0.00492381,0.00244895,-0.00098194,-0.12133420,0.13081356,0.0001
 8185,-0.00018004,0.00000600,0.00548826,-0.00270334,0.00025130,-0.06996
 173,0.04486358,-0.07710044,0.00060667,-0.00136673,0.00120157,0.0000504
 8,0.00019621,0.00007490,-0.00012658,-0.00052507,-0.00018615,0.00015292
 ,-0.00000826,-0.00002003,0.00003663,0.00034739,0.00011477,-0.02577773,
 0.01752406,-0.00801253,0.07737336,-0.04875397,0.07874260,0.00023228,0.
 00049979,-0.00004170,-0.00483894,-0.00022576,0.00170602,-0.23244592,-0
 .07722225,0.10252549,0.00162048,-0.00003269,-0.00013390,0.00025343,0.0
 0014208,-0.00019158,-0.00009573,-0.00013826,0.00002831,0.00003421,-0.0
 0036956,-0.00058179,0.00140257,-0.00047403,-0.00058964,0.00374885,0.00
 234464,-0.00240781,-0.01915746,-0.00927485,0.01197586,0.24924623,0.000
 19578,0.00123983,0.00169387,-0.02968309,-0.01448549,0.01619665,-0.0742
 5871,-0.07805070,0.04174832,-0.00044219,0.00176777,-0.00030921,0.00041
 798,0.00019548,0.00007701,0.00008778,-0.00000564,-0.00007572,0.0003900
 4,0.00011360,-0.00096040,-0.00039342,-0.00615993,-0.00213176,0.0046496
 6,0.00104303,-0.00176007,0.01428527,0.00655698,-0.00939383,0.08475090,
 0.08778505,-0.00124726,-0.00015558,0.00103384,-0.00649561,-0.00218047,
 0.00291087,0.10287222,0.04256253,-0.10666828,-0.00025134,0.00036423,-0
 .00036245,0.00008516,0.00015070,0.00001157,-0.00009545,0.00004094,-0.0
 0004858,0.00036122,-0.00023070,0.00007198,-0.00034060,-0.00171759,0.00
 038477,0.02736233,0.01145393,-0.01269492,-0.00996141,-0.00520313,0.004
 92802,-0.11228926,-0.04508488,0.11043320\\-0.00012129,-0.00010703,-0.0
 0029623,0.00014218,-0.00009405,0.00006158,-0.00003827,0.00030323,0.000
 13993,-0.00003747,-0.00001482,0.00002117,0.00003900,0.00003515,0.00001
 405,0.00000535,0.00002015,0.00007415,0.00000924,0.00000574,0.00006392,
 -0.00000773,0.00000392,-0.00000200,0.00002740,-0.00001813,-0.00004242,
 -0.00001338,-0.00007080,-0.00002366,-0.00000503,-0.00006337,-0.0000105
 0\\\@


 LET US PLACE AT THE END OF EVERY CHAPTER.....THE
 TWO LETTERS USED BY THE ROMAN JUDGES WHEN THEY DID
 NOT UNDERSTAND A PLEADING.
 N. L. -NON LIQUET- IT IS NOT CLEAR.
                                              -- VOLTAIRE
 Job cpu time:       0 days  0 hours  1 minutes  9.1 seconds.
 File lengths (MBytes):  RWF=    132 Int=      0 D2E=      0 Chk=      2 Scr=      2
 Normal termination of Gaussian 09 at Thu Mar 20 15:50:15 2025.
