 Entering Gaussian System, Link 0=g09
 Initial command:
 /apps/z_install_tree/linux-rocky8-ivybridge/gcc-12.2.0/gaussian-09-D.01-wczn3gur5lpur3omlkzwa2l5ecyxp5ef/g09/l1.exe "/srv/scratch/z5358697/gauss/Gau-921236.inp" -scrdir="/srv/scratch/z5358697/gauss/"
 Entering Link 1 = /apps/z_install_tree/linux-rocky8-ivybridge/gcc-12.2.0/gaussian-09-D.01-wczn3gur5lpur3omlkzwa2l5ecyxp5ef/g09/l1.exe PID=    921238.
  
 Copyright (c) 1988,1990,1992,1993,1995,1998,2003,2009,2013,
            Gaussian, Inc.  All Rights Reserved.
  
 This is part of the Gaussian(R) 09 program.  It is based on
 the Gaussian(R) 03 system (copyright 2003, Gaussian, Inc.),
 the Gaussian(R) 98 system (copyright 1998, Gaussian, Inc.),
 the Gaussian(R) 94 system (copyright 1995, Gaussian, Inc.),
 the Gaussian 92(TM) system (copyright 1992, Gaussian, Inc.),
 the Gaussian 90(TM) system (copyright 1990, Gaussian, Inc.),
 the Gaussian 88(TM) system (copyright 1988, Gaussian, Inc.),
 the Gaussian 86(TM) system (copyright 1986, Carnegie Mellon
 University), and the Gaussian 82(TM) system (copyright 1983,
 Carnegie Mellon University). Gaussian is a federally registered
 trademark of Gaussian, Inc.
  
 This software contains proprietary and confidential information,
 including trade secrets, belonging to Gaussian, Inc.
  
 This software is provided under written license and may be
 used, copied, transmitted, or stored only in accord with that
 written license.
  
 The following legend is applicable only to US Government
 contracts under FAR:
  
                    RESTRICTED RIGHTS LEGEND
  
 Use, reproduction and disclosure by the US Government is
 subject to restrictions as set forth in subparagraphs (a)
 and (c) of the Commercial Computer Software - Restricted
 Rights clause in FAR 52.227-19.
  
 Gaussian, Inc.
 340 Quinnipiac St., Bldg. 40, Wallingford CT 06492
  
  
 ---------------------------------------------------------------
 Warning -- This program may not be used in any manner that
 competes with the business of Gaussian, Inc. or will provide
 assistance to any competitor of Gaussian, Inc.  The licensee
 of this program is prohibited from giving any competitor of
 Gaussian, Inc. access to this program.  By using this program,
 the user acknowledges that Gaussian, Inc. is engaged in the
 business of creating and licensing software in the field of
 computational chemistry and represents and warrants to the
 licensee that it is not a competitor of Gaussian, Inc. and that
 it will not use this program in any manner prohibited above.
 ---------------------------------------------------------------
  

 Cite this work as:
 Gaussian 09, Revision D.01,
 M. J. Frisch, G. W. Trucks, H. B. Schlegel, G. E. Scuseria, 
 M. A. Robb, J. R. Cheeseman, G. Scalmani, V. Barone, B. Mennucci, 
 G. A. Petersson, H. Nakatsuji, M. Caricato, X. Li, H. P. Hratchian, 
 A. F. Izmaylov, J. Bloino, G. Zheng, J. L. Sonnenberg, M. Hada, 
 M. Ehara, K. Toyota, R. Fukuda, J. Hasegawa, M. Ishida, T. Nakajima, 
 Y. Honda, O. Kitao, H. Nakai, T. Vreven, J. A. Montgomery, Jr., 
 J. E. Peralta, F. Ogliaro, M. Bearpark, J. J. Heyd, E. Brothers, 
 K. N. Kudin, V. N. Staroverov, T. Keith, R. Kobayashi, J. Normand, 
 K. Raghavachari, A. Rendell, J. C. Burant, S. S. Iyengar, J. Tomasi, 
 M. Cossi, N. Rega, J. M. Millam, M. Klene, J. E. Knox, J. B. Cross, 
 V. Bakken, C. Adamo, J. Jaramillo, R. Gomperts, R. E. Stratmann, 
 O. Yazyev, A. J. Austin, R. Cammi, C. Pomelli, J. W. Ochterski, 
 R. L. Martin, K. Morokuma, V. G. Zakrzewski, G. A. Voth, 
 P. Salvador, J. J. Dannenberg, S. Dapprich, A. D. Daniels, 
 O. Farkas, J. B. Foresman, J. V. Ortiz, J. Cioslowski, 
 and D. J. Fox, Gaussian, Inc., Wallingford CT, 2013.
 
 ******************************************
 Gaussian 09:  ES64L-G09RevD.01 24-Apr-2013
                18-Mar-2025 
 ******************************************
 ---------------------------------
 #m062X/6-31+G(d) OPT Freq=noraman
 ---------------------------------
 1/14=-1,18=20,19=15,26=3,38=1/1,3;
 2/9=110,12=2,17=6,18=5,40=1/2;
 3/5=1,6=6,7=11,11=2,16=1,25=1,30=1,71=1,74=-55/1,2,3;
 4//1;
 5/5=2,38=5/2;
 6/7=2,8=2,9=2,10=2,28=1/1;
 7//1,2,3,16;
 1/14=-1,18=20,19=15,26=3/3(2);
 2/9=110/2;
 99//99;
 2/9=110/2;
 3/5=1,6=6,7=11,11=2,16=1,25=1,30=1,71=1,74=-55/1,2,3;
 4/5=5,16=3,69=1/1;
 5/5=2,38=5/2;
 7//1,2,3,16;
 1/14=-1,18=20,19=15,26=3/3(-5);
 2/9=110/2;
 6/7=2,8=2,9=2,10=2,19=2,28=1/1;
 99/9=1/99;
 ---------------------
 1,1,2-trichloroethane
 ---------------------
 Symbolic Z-matrix:
 Charge =  0 Multiplicity = 1
 C                    -0.1944    0.622     0.4658 
 C                     0.4262   -0.4924   -0.3724 
 Cl                   -0.073    -0.3968   -2.0796 
 Cl                    0.0549   -2.1052    0.2867 
 Cl                   -1.9773    0.6014    0.4732 
 H                     0.1335    0.5476    1.5078 
 H                     0.1153    1.6033    0.0916 
 H                     1.5153   -0.391    -0.3579 
 

 GradGradGradGradGradGradGradGradGradGradGradGradGradGradGradGradGradGrad
 Berny optimization.
 Initialization pass.
                           ----------------------------
                           !    Initial Parameters    !
                           ! (Angstroms and Degrees)  !
 --------------------------                            --------------------------
 ! Name  Definition              Value          Derivative Info.                !
 --------------------------------------------------------------------------------
 ! R1    R(1,2)                  1.5263         estimate D2E/DX2                !
 ! R2    R(1,5)                  1.783          estimate D2E/DX2                !
 ! R3    R(1,6)                  1.0949         estimate D2E/DX2                !
 ! R4    R(1,7)                  1.0949         estimate D2E/DX2                !
 ! R5    R(2,3)                  1.7813         estimate D2E/DX2                !
 ! R6    R(2,4)                  1.7814         estimate D2E/DX2                !
 ! R7    R(2,8)                  1.0939         estimate D2E/DX2                !
 ! A1    A(2,1,5)              113.6042         estimate D2E/DX2                !
 ! A2    A(2,1,6)              110.5639         estimate D2E/DX2                !
 ! A3    A(2,1,7)              110.5892         estimate D2E/DX2                !
 ! A4    A(5,1,6)              107.1408         estimate D2E/DX2                !
 ! A5    A(5,1,7)              107.1335         estimate D2E/DX2                !
 ! A6    A(6,1,7)              107.5437         estimate D2E/DX2                !
 ! A7    A(1,2,3)              111.9131         estimate D2E/DX2                !
 ! A8    A(1,2,4)              111.9063         estimate D2E/DX2                !
 ! A9    A(1,2,8)              109.2601         estimate D2E/DX2                !
 ! A10   A(3,2,4)              110.1686         estimate D2E/DX2                !
 ! A11   A(3,2,8)              106.6635         estimate D2E/DX2                !
 ! A12   A(4,2,8)              106.6505         estimate D2E/DX2                !
 ! D1    D(5,1,2,3)             59.9997         estimate D2E/DX2                !
 ! D2    D(5,1,2,4)            -64.2164         estimate D2E/DX2                !
 ! D3    D(5,1,2,8)            177.9018         estimate D2E/DX2                !
 ! D4    D(6,1,2,3)           -179.5059         estimate D2E/DX2                !
 ! D5    D(6,1,2,4)             56.2779         estimate D2E/DX2                !
 ! D6    D(6,1,2,8)            -61.6039         estimate D2E/DX2                !
 ! D7    D(7,1,2,3)            -60.5035         estimate D2E/DX2                !
 ! D8    D(7,1,2,4)            175.2803         estimate D2E/DX2                !
 ! D9    D(7,1,2,8)             57.3985         estimate D2E/DX2                !
 --------------------------------------------------------------------------------
 Trust Radius=3.00D-01 FncErr=1.00D-07 GrdErr=1.00D-06
 Number of steps in this run=     38 maximum allowed number of steps=    100.
 GradGradGradGradGradGradGradGradGradGradGradGradGradGradGradGradGradGrad

                          Input orientation:                          
 ---------------------------------------------------------------------
 Center     Atomic      Atomic             Coordinates (Angstroms)
 Number     Number       Type             X           Y           Z
 ---------------------------------------------------------------------
      1          6           0       -0.194400    0.622000    0.465800
      2          6           0        0.426200   -0.492400   -0.372400
      3         17           0       -0.073000   -0.396800   -2.079600
      4         17           0        0.054900   -2.105200    0.286700
      5         17           0       -1.977300    0.601400    0.473200
      6          1           0        0.133500    0.547600    1.507800
      7          1           0        0.115300    1.603300    0.091600
      8          1           0        1.515300   -0.391000   -0.357900
 ---------------------------------------------------------------------
                    Distance matrix (angstroms):
                    1          2          3          4          5
     1  C    0.000000
     2  C    1.526306   0.000000
     3  Cl   2.744404   1.781256   0.000000
     4  Cl   2.744421   1.781404   2.921363   0.000000
     5  Cl   1.783034   2.772769   3.337596   3.389735   0.000000
     6  H    1.094905   2.168508   3.715370   2.921406   2.351333
     7  H    1.094938   2.168851   2.958034   3.714120   2.351254
     8  H    2.151215   1.093906   2.342431   2.342383   3.724760
                    6          7          8
     6  H    0.000000
     7  H    1.766481   0.000000
     8  H    2.504232   2.477758   0.000000
 Stoichiometry    C2H3Cl3
 Framework group  C1[X(C2H3Cl3)]
 Deg. of freedom    18
 Full point group                 C1      NOp   1
 Largest Abelian subgroup         C1      NOp   1
 Largest concise Abelian subgroup C1      NOp   1
                         Standard orientation:                         
 ---------------------------------------------------------------------
 Center     Atomic      Atomic             Coordinates (Angstroms)
 Number     Number       Type             X           Y           Z
 ---------------------------------------------------------------------
      1          6           0       -0.887207   -0.065355    1.019772
      2          6           0        0.596160    0.008359    0.667921
      3         17           0        0.994164    1.496762   -0.226015
      4         17           0        1.133531   -1.421183   -0.249162
      5         17           0       -1.960518   -0.045239   -0.403890
      6          1           0       -1.105497   -0.983129    1.575522
      7          1           0       -1.175257    0.780279    1.652876
      8          1           0        1.185023    0.029045    1.589573
 ---------------------------------------------------------------------
 Rotational constants (GHZ):      2.7212873      1.8949798      1.3217958
 Standard basis: 6-31+G(d) (6D, 7F)
 There are   113 symmetry adapted cartesian basis functions of A   symmetry.
 There are   113 symmetry adapted basis functions of A   symmetry.
   113 basis functions,   244 primitive gaussians,   113 cartesian basis functions
    33 alpha electrons       33 beta electrons
       nuclear repulsion energy       347.9868068537 Hartrees.
 NAtoms=    8 NActive=    8 NUniq=    8 SFac= 1.00D+00 NAtFMM=   60 NAOKFM=F Big=F
 Integral buffers will be    131072 words long.
 Raffenetti 2 integral format.
 Two-electron integral symmetry is turned on.
 One-electron integrals computed using PRISM.
 NBasis=   113 RedAO= T EigKep=  1.02D-04  NBF=   113
 NBsUse=   113 1.00D-06 EigRej= -1.00D+00 NBFU=   113
 ExpMin= 4.38D-02 ExpMax= 2.52D+04 ExpMxC= 3.78D+03 IAcc=2 IRadAn=         4 AccDes= 0.00D+00
 Harris functional with IExCor= 1009 and IRadAn=       4 diagonalized for initial guess.
 HarFok:  IExCor= 1009 AccDes= 0.00D+00 IRadAn=         4 IDoV= 1 UseB2=F ITyADJ=14
 ICtDFT=  3500011 ScaDFX=  1.000000  1.000000  1.000000  1.000000
 FoFCou: FMM=F IPFlag=           0 FMFlag=      100000 FMFlg1=           0
         NFxFlg=           0 DoJE=T BraDBF=F KetDBF=T FulRan=T
         wScrn=  0.000000 ICntrl=     500 IOpCl=  0 I1Cent=   200000004 NGrid=           0
         NMat0=    1 NMatS0=      1 NMatT0=    0 NMatD0=    1 NMtDS0=    0 NMtDT0=    0
 Petite list used in FoFCou.
 Keep R1 ints in memory in canonical form, NReq=21740987.
 Requested convergence on RMS density matrix=1.00D-08 within 128 cycles.
 Requested convergence on MAX density matrix=1.00D-06.
 Requested convergence on             energy=1.00D-06.
 No special actions if energy rises.
 SCF Done:  E(RM062X) =  -1458.47086031     A.U. after   12 cycles
            NFock= 12  Conv=0.31D-08     -V/T= 2.0030

 **********************************************************************

            Population analysis using the SCF density.

 **********************************************************************

 Orbital symmetries:
       Occupied  (A) (A) (A) (A) (A) (A) (A) (A) (A) (A) (A) (A)
                 (A) (A) (A) (A) (A) (A) (A) (A) (A) (A) (A) (A)
                 (A) (A) (A) (A) (A) (A) (A) (A) (A)
       Virtual   (A) (A) (A) (A) (A) (A) (A) (A) (A) (A) (A) (A)
                 (A) (A) (A) (A) (A) (A) (A) (A) (A) (A) (A) (A)
                 (A) (A) (A) (A) (A) (A) (A) (A) (A) (A) (A) (A)
                 (A) (A) (A) (A) (A) (A) (A) (A) (A) (A) (A) (A)
                 (A) (A) (A) (A) (A) (A) (A) (A) (A) (A) (A) (A)
                 (A) (A) (A) (A) (A) (A) (A) (A) (A) (A) (A) (A)
                 (A) (A) (A) (A) (A) (A) (A) (A)
 The electronic state is 1-A.
 Alpha  occ. eigenvalues -- -102.68498-102.68491-102.67439 -10.69755 -10.64442
 Alpha  occ. eigenvalues --   -9.83212  -9.83210  -9.82117  -7.55640  -7.55637
 Alpha  occ. eigenvalues --   -7.54923  -7.54921  -7.54899  -7.54898  -7.54548
 Alpha  occ. eigenvalues --   -7.53838  -7.53816  -1.03746  -0.96341  -0.93285
 Alpha  occ. eigenvalues --   -0.83089  -0.70780  -0.59237  -0.57544  -0.53706
 Alpha  occ. eigenvalues --   -0.49238  -0.48295  -0.41036  -0.40041  -0.38126
 Alpha  occ. eigenvalues --   -0.37933  -0.37861  -0.37253
 Alpha virt. eigenvalues --    0.00065   0.01320   0.03292   0.03539   0.04260
 Alpha virt. eigenvalues --    0.04918   0.06243   0.08511   0.08811   0.09297
 Alpha virt. eigenvalues --    0.10744   0.11279   0.11654   0.12333   0.12609
 Alpha virt. eigenvalues --    0.13036   0.13616   0.13935   0.14925   0.16796
 Alpha virt. eigenvalues --    0.19150   0.19195   0.19493   0.23862   0.24496
 Alpha virt. eigenvalues --    0.29196   0.37459   0.55068   0.56456   0.57283
 Alpha virt. eigenvalues --    0.60142   0.60549   0.60872   0.63016   0.65363
 Alpha virt. eigenvalues --    0.65654   0.67055   0.68392   0.68541   0.69288
 Alpha virt. eigenvalues --    0.71754   0.72015   0.73544   0.78892   0.79866
 Alpha virt. eigenvalues --    0.85512   0.91817   0.92261   0.93367   0.93465
 Alpha virt. eigenvalues --    0.94571   0.95191   0.98220   0.98464   1.02740
 Alpha virt. eigenvalues --    1.06686   1.06833   1.10734   1.11765   1.14042
 Alpha virt. eigenvalues --    1.17131   1.17936   1.25952   1.38135   1.57964
 Alpha virt. eigenvalues --    1.61377   1.64385   1.89702   1.97798   1.98453
 Alpha virt. eigenvalues --    2.18129   2.25611   2.27942   2.31701   2.57691
 Alpha virt. eigenvalues --    4.06892   4.30278   4.42209   4.44752   4.45971
          Condensed to atoms (all electrons):
               1          2          3          4          5          6
     1  C    5.808634   0.164508  -0.093426  -0.099463   0.127821   0.369892
     2  C    0.164508   5.761529   0.177032   0.198225  -0.066880  -0.042491
     3  Cl  -0.093426   0.177032  16.961387  -0.061094  -0.008811   0.011544
     4  Cl  -0.099463   0.198225  -0.061094  16.943912  -0.008465  -0.009350
     5  Cl   0.127821  -0.066880  -0.008811  -0.008465  16.958680  -0.049028
     6  H    0.369892  -0.042491   0.011544  -0.009350  -0.049028   0.467853
     7  H    0.362900  -0.032412  -0.011187   0.010064  -0.047971  -0.030214
     8  H   -0.054071   0.382144  -0.062939  -0.061538   0.010608  -0.001455
               7          8
     1  C    0.362900  -0.054071
     2  C   -0.032412   0.382144
     3  Cl  -0.011187  -0.062939
     4  Cl   0.010064  -0.061538
     5  Cl  -0.047971   0.010608
     6  H   -0.030214  -0.001455
     7  H    0.468269  -0.001757
     8  H   -0.001757   0.485362
 Mulliken charges:
               1
     1  C   -0.586796
     2  C   -0.541656
     3  Cl   0.087495
     4  Cl   0.087708
     5  Cl   0.084046
     6  H    0.283249
     7  H    0.282308
     8  H    0.303646
 Sum of Mulliken charges =   0.00000
 Mulliken charges with hydrogens summed into heavy atoms:
               1
     1  C   -0.021238
     2  C   -0.238010
     3  Cl   0.087495
     4  Cl   0.087708
     5  Cl   0.084046
 Electronic spatial extent (au):  <R**2>=            863.9618
 Charge=              0.0000 electrons
 Dipole moment (field-independent basis, Debye):
    X=              0.0470    Y=             -0.0715    Z=              3.0144  Tot=              3.0156
 Quadrupole moment (field-independent basis, Debye-Ang):
   XX=            -53.4218   YY=            -52.1840   ZZ=            -46.5198
   XY=              0.0397   XZ=             -0.6742   YZ=             -0.1491
 Traceless Quadrupole moment (field-independent basis, Debye-Ang):
   XX=             -2.7133   YY=             -1.4755   ZZ=              4.1888
   XY=              0.0397   XZ=             -0.6742   YZ=             -0.1491
 Octapole moment (field-independent basis, Debye-Ang**2):
  XXX=              3.2616  YYY=              0.0273  ZZZ=              2.6728  XYY=             -0.1436
  XXY=              0.1048  XXZ=              0.8368  XZZ=             -1.5094  YZZ=             -0.0168
  YYZ=             -2.7820  XYZ=              0.3059
 Hexadecapole moment (field-independent basis, Debye-Ang**3):
 XXXX=           -593.4626 YYYY=           -377.8292 ZZZZ=           -145.3272 XXXY=             -0.9177
 XXXZ=              6.6383 YYYX=             -0.1722 YYYZ=             -1.2464 ZZZX=              2.5012
 ZZZY=              0.2523 XXYY=           -161.5394 XXZZ=           -110.7351 YYZZ=            -85.8350
 XXYZ=              0.6396 YYXZ=             -8.7271 ZZXY=             -0.1576
 N-N= 3.479868068537D+02 E-N=-4.157383352164D+03  KE= 1.454121702044D+03
 Calling FoFJK, ICntrl=      2127 FMM=F ISym2X=0 I1Cent= 0 IOpClX= 0 NMat=1 NMatS=1 NMatT=0.
 ***** Axes restored to original set *****
 -------------------------------------------------------------------
 Center     Atomic                   Forces (Hartrees/Bohr)
 Number     Number              X              Y              Z
 -------------------------------------------------------------------
      1        6          -0.001089131    0.003195126    0.002419319
      2        6           0.000051942    0.001509853    0.000677554
      3       17           0.000904800    0.002042893    0.000734002
      4       17           0.000491127    0.001256436    0.001683056
      5       17           0.001497684   -0.000692750   -0.000146629
      6        1           0.000577031   -0.003992337   -0.002699233
      7        1           0.000378820   -0.003789202   -0.003326456
      8        1          -0.002812272    0.000469981    0.000658386
 -------------------------------------------------------------------
 Cartesian Forces:  Max     0.003992337 RMS     0.001942990

 GradGradGradGradGradGradGradGradGradGradGradGradGradGradGradGradGradGrad
 Berny optimization.
 FormGI is forming the generalized inverse of G from B-inverse, IUseBI=4.
 Internal  Forces:  Max     0.006469784 RMS     0.002516551
 Search for a local minimum.
 Step number   1 out of a maximum of   38
 All quantities printed in internal units (Hartrees-Bohrs-Radians)
 Mixed Optimization -- RFO/linear search
 Second derivative matrix not updated -- first step.
 ITU=  0
     Eigenvalues ---    0.00418   0.05285   0.05872   0.06136   0.06785
     Eigenvalues ---    0.16000   0.16000   0.16000   0.22256   0.23505
     Eigenvalues ---    0.24279   0.27500   0.27638   0.27651   0.29767
     Eigenvalues ---    0.34248   0.34252   0.34365
 RFO step:  Lambda=-9.66483537D-04 EMin= 4.17965353D-03
 Linear search not attempted -- first point.
 Iteration  1 RMS(Cart)=  0.03030081 RMS(Int)=  0.00041766
 Iteration  2 RMS(Cart)=  0.00039613 RMS(Int)=  0.00010364
 Iteration  3 RMS(Cart)=  0.00000006 RMS(Int)=  0.00010364
 Variable       Old X    -DE/DX   Delta X   Delta X   Delta X     New X
                                 (Linear)    (Quad)   (Total)
    R1        2.88430  -0.00647   0.00000  -0.02166  -0.02166   2.86264
    R2        3.36945  -0.00150   0.00000  -0.00544  -0.00544   3.36401
    R3        2.06907  -0.00212   0.00000  -0.00618  -0.00618   2.06290
    R4        2.06913  -0.00215   0.00000  -0.00625  -0.00625   2.06288
    R5        3.36609  -0.00084   0.00000  -0.00304  -0.00304   3.36304
    R6        3.36637  -0.00061   0.00000  -0.00220  -0.00220   3.36416
    R7        2.06718  -0.00276   0.00000  -0.00800  -0.00800   2.05919
    A1        1.98277   0.00039   0.00000   0.00074   0.00069   1.98346
    A2        1.92970  -0.00471   0.00000  -0.02899  -0.02920   1.90050
    A3        1.93015  -0.00482   0.00000  -0.02872  -0.02892   1.90123
    A4        1.86996   0.00221   0.00000   0.01175   0.01169   1.88165
    A5        1.86983   0.00246   0.00000   0.01493   0.01490   1.88473
    A6        1.87699   0.00517   0.00000   0.03480   0.03444   1.91143
    A7        1.95325  -0.00184   0.00000  -0.00395  -0.00399   1.94927
    A8        1.95313  -0.00245   0.00000  -0.00645  -0.00650   1.94663
    A9        1.90695  -0.00110   0.00000  -0.01307  -0.01316   1.89378
   A10        1.92280   0.00384   0.00000   0.02438   0.02439   1.94719
   A11        1.86163   0.00075   0.00000  -0.00128  -0.00137   1.86026
   A12        1.86140   0.00104   0.00000   0.00032   0.00022   1.86162
    D1        1.04719   0.00114   0.00000   0.04589   0.04586   1.09305
    D2       -1.12079  -0.00066   0.00000   0.02165   0.02167  -1.09912
    D3        3.10497   0.00025   0.00000   0.03353   0.03352   3.13849
    D4       -3.13297   0.00084   0.00000   0.04049   0.04038  -3.09259
    D5        0.98224  -0.00096   0.00000   0.01625   0.01619   0.99843
    D6       -1.07519  -0.00005   0.00000   0.02813   0.02804  -1.04715
    D7       -1.05599   0.00121   0.00000   0.04699   0.04706  -1.00893
    D8        3.05922  -0.00060   0.00000   0.02275   0.02287   3.08209
    D9        1.00179   0.00031   0.00000   0.03463   0.03472   1.03651
         Item               Value     Threshold  Converged?
 Maximum Force            0.006470     0.000450     NO 
 RMS     Force            0.002517     0.000300     NO 
 Maximum Displacement     0.076573     0.001800     NO 
 RMS     Displacement     0.030387     0.001200     NO 
 Predicted change in Energy=-4.903719D-04
 GradGradGradGradGradGradGradGradGradGradGradGradGradGradGradGradGradGrad

                          Input orientation:                          
 ---------------------------------------------------------------------
 Center     Atomic      Atomic             Coordinates (Angstroms)
 Number     Number       Type             X           Y           Z
 ---------------------------------------------------------------------
      1          6           0       -0.197729    0.620411    0.461440
      2          6           0        0.417742   -0.487636   -0.368121
      3         17           0       -0.050188   -0.364375   -2.080717
      4         17           0        0.036855   -2.093027    0.300383
      5         17           0       -1.977174    0.582871    0.495070
      6          1           0        0.157627    0.531123    1.489750
      7          1           0        0.111432    1.583572    0.051079
      8          1           0        1.501934   -0.384038   -0.333685
 ---------------------------------------------------------------------
                    Distance matrix (angstroms):
                    1          2          3          4          5
     1  C    0.000000
     2  C    1.514842   0.000000
     3  Cl   2.730226   1.779645   0.000000
     4  Cl   2.728317   1.780239   2.943714   0.000000
     5  Cl   1.780158   2.761649   3.353390   3.354794   0.000000
     6  H    1.091637   2.134764   3.686914   2.883633   2.355725
     7  H    1.091630   2.135289   2.892261   3.685796   2.358136
     8  H    2.128379   1.089674   2.337004   2.338620   3.704853
                    6          7          8
     6  H    0.000000
     7  H    1.783131   0.000000
     8  H    2.443276   2.439883   0.000000
 Stoichiometry    C2H3Cl3
 Framework group  C1[X(C2H3Cl3)]
 Deg. of freedom    18
 Full point group                 C1      NOp   1
 Largest Abelian subgroup         C1      NOp   1
 Largest concise Abelian subgroup C1      NOp   1
                         Standard orientation:                         
 ---------------------------------------------------------------------
 Center     Atomic      Atomic             Coordinates (Angstroms)
 Number     Number       Type             X           Y           Z
 ---------------------------------------------------------------------
      1          6           0       -0.870976   -0.003125    1.016730
      2          6           0        0.599675    0.000389    0.653526
      3         17           0        1.053494    1.472685   -0.237276
      4         17           0        1.055920   -1.471028   -0.238678
      5         17           0       -1.955084    0.000023   -0.395241
      6          1           0       -1.088224   -0.898300    1.602510
      7          1           0       -1.090789    0.884802    1.612485
      8          1           0        1.183205    0.001355    1.573788
 ---------------------------------------------------------------------
 Rotational constants (GHZ):      2.6951480      1.9208930      1.3236507
 Standard basis: 6-31+G(d) (6D, 7F)
 There are   113 symmetry adapted cartesian basis functions of A   symmetry.
 There are   113 symmetry adapted basis functions of A   symmetry.
   113 basis functions,   244 primitive gaussians,   113 cartesian basis functions
    33 alpha electrons       33 beta electrons
       nuclear repulsion energy       348.5837411744 Hartrees.
 NAtoms=    8 NActive=    8 NUniq=    8 SFac= 1.00D+00 NAtFMM=   60 NAOKFM=F Big=F
 Integral buffers will be    131072 words long.
 Raffenetti 2 integral format.
 Two-electron integral symmetry is turned on.
 One-electron integrals computed using PRISM.
 NBasis=   113 RedAO= T EigKep=  1.01D-04  NBF=   113
 NBsUse=   113 1.00D-06 EigRej= -1.00D+00 NBFU=   113
 Initial guess from the checkpoint file:  "/srv/scratch/z5358697/gauss/Gau-921238.chk"
 B after Tr=     0.000000    0.000000    0.000000
         Rot=    0.999810    0.006309   -0.002418    0.018308 Ang=   2.24 deg.
 ExpMin= 4.38D-02 ExpMax= 2.52D+04 ExpMxC= 3.78D+03 IAcc=2 IRadAn=         4 AccDes= 0.00D+00
 Harris functional with IExCor= 1009 and IRadAn=       4 diagonalized for initial guess.
 HarFok:  IExCor= 1009 AccDes= 0.00D+00 IRadAn=         4 IDoV= 1 UseB2=F ITyADJ=14
 ICtDFT=  3500011 ScaDFX=  1.000000  1.000000  1.000000  1.000000
 FoFCou: FMM=F IPFlag=           0 FMFlag=      100000 FMFlg1=           0
         NFxFlg=           0 DoJE=T BraDBF=F KetDBF=T FulRan=T
         wScrn=  0.000000 ICntrl=     500 IOpCl=  0 I1Cent=   200000004 NGrid=           0
         NMat0=    1 NMatS0=      1 NMatT0=    0 NMatD0=    1 NMtDS0=    0 NMtDT0=    0
 Petite list used in FoFCou.
 Keep R1 ints in memory in canonical form, NReq=21740987.
 Requested convergence on RMS density matrix=1.00D-08 within 128 cycles.
 Requested convergence on MAX density matrix=1.00D-06.
 Requested convergence on             energy=1.00D-06.
 No special actions if energy rises.
 SCF Done:  E(RM062X) =  -1458.47131308     A.U. after   10 cycles
            NFock= 10  Conv=0.99D-08     -V/T= 2.0030
 Calling FoFJK, ICntrl=      2127 FMM=F ISym2X=0 I1Cent= 0 IOpClX= 0 NMat=1 NMatS=1 NMatT=0.
 ***** Axes restored to original set *****
 -------------------------------------------------------------------
 Center     Atomic                   Forces (Hartrees/Bohr)
 Number     Number              X              Y              Z
 -------------------------------------------------------------------
      1        6          -0.001659116    0.001632812    0.001389367
      2        6           0.000256491   -0.001437046   -0.000860273
      3       17           0.000202042   -0.000383188    0.000340708
      4       17           0.000315651    0.000230587   -0.000648640
      5       17           0.001101673    0.000415278    0.000107884
      6        1          -0.000168812   -0.000189903   -0.000045039
      7        1          -0.000448425   -0.000051950   -0.000260286
      8        1           0.000400495   -0.000216591   -0.000023720
 -------------------------------------------------------------------
 Cartesian Forces:  Max     0.001659116 RMS     0.000737142

 GradGradGradGradGradGradGradGradGradGradGradGradGradGradGradGradGradGrad
 Berny optimization.
 Using GEDIIS/GDIIS optimizer.
 FormGI is forming the generalized inverse of G from B-inverse, IUseBI=4.
 Internal  Forces:  Max     0.002451688 RMS     0.000648533
 Search for a local minimum.
 Step number   2 out of a maximum of   38
 All quantities printed in internal units (Hartrees-Bohrs-Radians)
 Mixed Optimization -- En-DIIS/RFO-DIIS
 Update second derivatives using D2CorX and points    1    2
 DE= -4.53D-04 DEPred=-4.90D-04 R= 9.23D-01
 TightC=F SS=  1.41D+00  RLast= 1.23D-01 DXNew= 5.0454D-01 3.6784D-01
 Trust test= 9.23D-01 RLast= 1.23D-01 DXMaxT set to 3.68D-01
 ITU=  1  0
 Use linear search instead of GDIIS.
     Eigenvalues ---    0.00419   0.05420   0.06066   0.06259   0.06697
     Eigenvalues ---    0.14903   0.16000   0.16091   0.22365   0.23607
     Eigenvalues ---    0.25140   0.27232   0.27613   0.27647   0.33144
     Eigenvalues ---    0.34215   0.34250   0.35560
 RFO step:  Lambda=-3.71213404D-05 EMin= 4.19258244D-03
 Quartic linear search produced a step of -0.06242.
 Iteration  1 RMS(Cart)=  0.00563257 RMS(Int)=  0.00001330
 Iteration  2 RMS(Cart)=  0.00001212 RMS(Int)=  0.00000696
 Iteration  3 RMS(Cart)=  0.00000000 RMS(Int)=  0.00000696
 Variable       Old X    -DE/DX   Delta X   Delta X   Delta X     New X
                                 (Linear)    (Quad)   (Total)
    R1        2.86264   0.00245   0.00135   0.00559   0.00694   2.86957
    R2        3.36401  -0.00112   0.00034  -0.00434  -0.00400   3.36001
    R3        2.06290  -0.00008   0.00039  -0.00082  -0.00044   2.06246
    R4        2.06288  -0.00007   0.00039  -0.00081  -0.00042   2.06246
    R5        3.36304  -0.00040   0.00019  -0.00167  -0.00148   3.36156
    R6        3.36416  -0.00052   0.00014  -0.00197  -0.00183   3.36234
    R7        2.05919   0.00037   0.00050   0.00022   0.00072   2.05991
    A1        1.98346   0.00094  -0.00004   0.00359   0.00356   1.98702
    A2        1.90050  -0.00021   0.00182  -0.00313  -0.00130   1.89921
    A3        1.90123  -0.00014   0.00181  -0.00368  -0.00186   1.89937
    A4        1.88165  -0.00031  -0.00073   0.00022  -0.00051   1.88115
    A5        1.88473  -0.00055  -0.00093  -0.00263  -0.00356   1.88117
    A6        1.91143   0.00026  -0.00215   0.00596   0.00383   1.91526
    A7        1.94927   0.00050   0.00025   0.00164   0.00189   1.95115
    A8        1.94663   0.00103   0.00041   0.00341   0.00381   1.95045
    A9        1.89378   0.00009   0.00082  -0.00046   0.00037   1.89415
   A10        1.94719  -0.00090  -0.00152  -0.00085  -0.00238   1.94481
   A11        1.86026  -0.00028   0.00009  -0.00153  -0.00144   1.85882
   A12        1.86162  -0.00052  -0.00001  -0.00266  -0.00267   1.85895
    D1        1.09305  -0.00007  -0.00286   0.00786   0.00500   1.09805
    D2       -1.09912  -0.00006  -0.00135   0.00509   0.00374  -1.09538
    D3        3.13849  -0.00007  -0.00209   0.00666   0.00456  -3.14013
    D4       -3.09259   0.00000  -0.00252   0.00826   0.00575  -3.08684
    D5        0.99843   0.00001  -0.00101   0.00550   0.00449   1.00292
    D6       -1.04715   0.00000  -0.00175   0.00706   0.00532  -1.04183
    D7       -1.00893   0.00011  -0.00294   0.01147   0.00853  -1.00040
    D8        3.08209   0.00012  -0.00143   0.00870   0.00726   3.08935
    D9        1.03651   0.00011  -0.00217   0.01026   0.00809   1.04460
         Item               Value     Threshold  Converged?
 Maximum Force            0.002452     0.000450     NO 
 RMS     Force            0.000649     0.000300     NO 
 Maximum Displacement     0.013924     0.001800     NO 
 RMS     Displacement     0.005629     0.001200     NO 
 Predicted change in Energy=-2.049121D-05
 GradGradGradGradGradGradGradGradGradGradGradGradGradGradGradGradGradGrad

                          Input orientation:                          
 ---------------------------------------------------------------------
 Center     Atomic      Atomic             Coordinates (Angstroms)
 Number     Number       Type             X           Y           Z
 ---------------------------------------------------------------------
      1          6           0       -0.199799    0.622101    0.462812
      2          6           0        0.417442   -0.488944   -0.368136
      3         17           0       -0.044198   -0.366457   -2.081680
      4         17           0        0.037983   -2.096217    0.294053
      5         17           0       -1.977065    0.587621    0.502439
      6          1           0        0.158268    0.533893    1.490028
      7          1           0        0.105756    1.583955    0.047309
      8          1           0        1.502113   -0.387053   -0.331625
 ---------------------------------------------------------------------
                    Distance matrix (angstroms):
                    1          2          3          4          5
     1  C    0.000000
     2  C    1.518514   0.000000
     3  Cl   2.734209   1.778861   0.000000
     4  Cl   2.733912   1.779272   2.939886   0.000000
     5  Cl   1.778042   2.765964   3.365102   3.362563   0.000000
     6  H    1.091405   2.136853   3.689000   2.891765   2.353267
     7  H    1.091407   2.136973   2.891226   3.689056   2.353288
     8  H    2.132141   1.090057   2.335421   2.335891   3.708144
                    6          7          8
     6  H    0.000000
     7  H    1.785168   0.000000
     8  H    2.443866   2.445051   0.000000
 Stoichiometry    C2H3Cl3
 Framework group  C1[X(C2H3Cl3)]
 Deg. of freedom    18
 Full point group                 C1      NOp   1
 Largest Abelian subgroup         C1      NOp   1
 Largest concise Abelian subgroup C1      NOp   1
                         Standard orientation:                         
 ---------------------------------------------------------------------
 Center     Atomic      Atomic             Coordinates (Angstroms)
 Number     Number       Type             X           Y           Z
 ---------------------------------------------------------------------
      1          6           0       -0.876890    0.002996    1.013505
      2          6           0        0.598094   -0.000290    0.652540
      3         17           0        1.063458    1.467944   -0.237445
      4         17           0        1.056106   -1.471933   -0.236449
      5         17           0       -1.961735    0.002603   -0.395233
      6          1           0       -1.096822   -0.888263    1.603804
      7          1           0       -1.093717    0.896900    1.600949
      8          1           0        1.180218   -0.001309    1.574145
 ---------------------------------------------------------------------
 Rotational constants (GHZ):      2.7030781      1.9091229      1.3188455
 Standard basis: 6-31+G(d) (6D, 7F)
 There are   113 symmetry adapted cartesian basis functions of A   symmetry.
 There are   113 symmetry adapted basis functions of A   symmetry.
   113 basis functions,   244 primitive gaussians,   113 cartesian basis functions
    33 alpha electrons       33 beta electrons
       nuclear repulsion energy       348.3227869296 Hartrees.
 NAtoms=    8 NActive=    8 NUniq=    8 SFac= 1.00D+00 NAtFMM=   60 NAOKFM=F Big=F
 Integral buffers will be    131072 words long.
 Raffenetti 2 integral format.
 Two-electron integral symmetry is turned on.
 One-electron integrals computed using PRISM.
 NBasis=   113 RedAO= T EigKep=  1.02D-04  NBF=   113
 NBsUse=   113 1.00D-06 EigRej= -1.00D+00 NBFU=   113
 Initial guess from the checkpoint file:  "/srv/scratch/z5358697/gauss/Gau-921238.chk"
 B after Tr=     0.000000    0.000000    0.000000
         Rot=    0.999999    0.000743    0.000458    0.001320 Ang=   0.18 deg.
 Keep R1 ints in memory in canonical form, NReq=21740987.
 Requested convergence on RMS density matrix=1.00D-08 within 128 cycles.
 Requested convergence on MAX density matrix=1.00D-06.
 Requested convergence on             energy=1.00D-06.
 No special actions if energy rises.
 SCF Done:  E(RM062X) =  -1458.47133362     A.U. after    9 cycles
            NFock=  9  Conv=0.82D-08     -V/T= 2.0030
 Calling FoFJK, ICntrl=      2127 FMM=F ISym2X=0 I1Cent= 0 IOpClX= 0 NMat=1 NMatS=1 NMatT=0.
 ***** Axes restored to original set *****
 -------------------------------------------------------------------
 Center     Atomic                   Forces (Hartrees/Bohr)
 Number     Number              X              Y              Z
 -------------------------------------------------------------------
      1        6          -0.000491927    0.000233180    0.000169370
      2        6           0.000223944   -0.000415972   -0.000137929
      3       17          -0.000154152    0.000003030    0.000050597
      4       17          -0.000076840    0.000142406   -0.000082192
      5       17           0.000247363   -0.000084783   -0.000093245
      6        1           0.000070488   -0.000039812    0.000006829
      7        1           0.000076936    0.000002725   -0.000045384
      8        1           0.000104187    0.000159227    0.000131953
 -------------------------------------------------------------------
 Cartesian Forces:  Max     0.000491927 RMS     0.000179328

 GradGradGradGradGradGradGradGradGradGradGradGradGradGradGradGradGradGrad
 Berny optimization.
 Using GEDIIS/GDIIS optimizer.
 FormGI is forming the generalized inverse of G from B-inverse, IUseBI=4.
 Internal  Forces:  Max     0.000254963 RMS     0.000123289
 Search for a local minimum.
 Step number   3 out of a maximum of   38
 All quantities printed in internal units (Hartrees-Bohrs-Radians)
 Mixed Optimization -- En-DIIS/RFO-DIIS
 Swapping is turned off.
 Update second derivatives using D2CorX and points    1    2    3
 DE= -2.05D-05 DEPred=-2.05D-05 R= 1.00D+00
 TightC=F SS=  1.41D+00  RLast= 2.19D-02 DXNew= 6.1862D-01 6.5812D-02
 Trust test= 1.00D+00 RLast= 2.19D-02 DXMaxT set to 3.68D-01
 ITU=  1  1  0
     Eigenvalues ---    0.00425   0.05375   0.06083   0.06245   0.06984
     Eigenvalues ---    0.13827   0.16004   0.16361   0.22990   0.23420
     Eigenvalues ---    0.25442   0.26781   0.27610   0.27705   0.34050
     Eigenvalues ---    0.34215   0.34252   0.34735
 En-DIIS/RFO-DIIS IScMMF=        0 using points:     3    2
 RFO step:  Lambda=-1.02595309D-06.
 DidBck=F Rises=F RFO-DIIS coefs:    0.97956    0.02044
 Iteration  1 RMS(Cart)=  0.00132111 RMS(Int)=  0.00000122
 Iteration  2 RMS(Cart)=  0.00000105 RMS(Int)=  0.00000039
 Iteration  3 RMS(Cart)=  0.00000000 RMS(Int)=  0.00000039
 Variable       Old X    -DE/DX   Delta X   Delta X   Delta X     New X
                                 (Linear)    (Quad)   (Total)
    R1        2.86957   0.00014  -0.00014   0.00104   0.00090   2.87047
    R2        3.36001  -0.00025   0.00008  -0.00129  -0.00120   3.35881
    R3        2.06246   0.00004   0.00001   0.00005   0.00005   2.06251
    R4        2.06246   0.00004   0.00001   0.00007   0.00008   2.06254
    R5        3.36156  -0.00001   0.00003  -0.00016  -0.00013   3.36143
    R6        3.36234  -0.00014   0.00004  -0.00067  -0.00063   3.36171
    R7        2.05991   0.00012  -0.00001   0.00038   0.00036   2.06027
    A1        1.98702  -0.00021  -0.00007  -0.00054  -0.00061   1.98641
    A2        1.89921  -0.00005   0.00003  -0.00055  -0.00052   1.89869
    A3        1.89937  -0.00006   0.00004  -0.00078  -0.00074   1.89863
    A4        1.88115   0.00015   0.00001   0.00091   0.00092   1.88207
    A5        1.88117   0.00014   0.00007   0.00040   0.00047   1.88164
    A6        1.91526   0.00005  -0.00008   0.00062   0.00054   1.91580
    A7        1.95115  -0.00021  -0.00004  -0.00109  -0.00113   1.95003
    A8        1.95045  -0.00006  -0.00008  -0.00030  -0.00038   1.95007
    A9        1.89415  -0.00016  -0.00001  -0.00053  -0.00053   1.89362
   A10        1.94481   0.00003   0.00005  -0.00095  -0.00090   1.94391
   A11        1.85882   0.00025   0.00003   0.00179   0.00182   1.86065
   A12        1.85895   0.00018   0.00005   0.00132   0.00137   1.86032
    D1        1.09805  -0.00010  -0.00010  -0.00242  -0.00253   1.09552
    D2       -1.09538   0.00007  -0.00008  -0.00008  -0.00016  -1.09554
    D3       -3.14013  -0.00002  -0.00009  -0.00119  -0.00128  -3.14142
    D4       -3.08684  -0.00008  -0.00012  -0.00200  -0.00212  -3.08896
    D5        1.00292   0.00009  -0.00009   0.00034   0.00025   1.00317
    D6       -1.04183   0.00000  -0.00011  -0.00077  -0.00088  -1.04271
    D7       -1.00040  -0.00009  -0.00017  -0.00203  -0.00220  -1.00260
    D8        3.08935   0.00008  -0.00015   0.00032   0.00017   3.08952
    D9        1.04460  -0.00001  -0.00017  -0.00079  -0.00096   1.04364
         Item               Value     Threshold  Converged?
 Maximum Force            0.000255     0.000450     YES
 RMS     Force            0.000123     0.000300     YES
 Maximum Displacement     0.004326     0.001800     NO 
 RMS     Displacement     0.001321     0.001200     NO 
 Predicted change in Energy=-1.341067D-06
 GradGradGradGradGradGradGradGradGradGradGradGradGradGradGradGradGradGrad

                          Input orientation:                          
 ---------------------------------------------------------------------
 Center     Atomic      Atomic             Coordinates (Angstroms)
 Number     Number       Type             X           Y           Z
 ---------------------------------------------------------------------
      1          6           0       -0.199788    0.622197    0.463072
      2          6           0        0.418114   -0.489033   -0.368008
      3         17           0       -0.046487   -0.366638   -2.080686
      4         17           0        0.037721   -2.095859    0.293834
      5         17           0       -1.976453    0.587190    0.500566
      6          1           0        0.158053    0.533357    1.490342
      7          1           0        0.106467    1.583789    0.047367
      8          1           0        1.502873   -0.386102   -0.331286
 ---------------------------------------------------------------------
                    Distance matrix (angstroms):
                    1          2          3          4          5
     1  C    0.000000
     2  C    1.518990   0.000000
     3  Cl   2.733496   1.778792   0.000000
     4  Cl   2.733656   1.778939   2.938646   0.000000
     5  Cl   1.777405   2.765254   3.361163   3.361307   0.000000
     6  H    1.091434   2.136909   3.688370   2.891174   2.353438
     7  H    1.091449   2.136879   2.890704   3.688533   2.353115
     8  H    2.132305   1.090250   2.336941   2.336817   3.707422
                    6          7          8
     6  H    0.000000
     7  H    1.785565   0.000000
     8  H    2.443824   2.444136   0.000000
 Stoichiometry    C2H3Cl3
 Framework group  C1[X(C2H3Cl3)]
 Deg. of freedom    18
 Full point group                 C1      NOp   1
 Largest Abelian subgroup         C1      NOp   1
 Largest concise Abelian subgroup C1      NOp   1
                         Standard orientation:                         
 ---------------------------------------------------------------------
 Center     Atomic      Atomic             Coordinates (Angstroms)
 Number     Number       Type             X           Y           Z
 ---------------------------------------------------------------------
      1          6           0       -0.877144   -0.000065    1.013942
      2          6           0        0.598489    0.000128    0.653617
      3         17           0        1.058651    1.469432   -0.237167
      4         17           0        1.059163   -1.469214   -0.237135
      5         17           0       -1.960019   -0.000254   -0.395508
      6          1           0       -1.095011   -0.892694    1.602987
      7          1           0       -1.095324    0.892871    1.602436
      8          1           0        1.179753    0.000051    1.575992
 ---------------------------------------------------------------------
 Rotational constants (GHZ):      2.7041886      1.9113385      1.3205093
 Standard basis: 6-31+G(d) (6D, 7F)
 There are   113 symmetry adapted cartesian basis functions of A   symmetry.
 There are   113 symmetry adapted basis functions of A   symmetry.
   113 basis functions,   244 primitive gaussians,   113 cartesian basis functions
    33 alpha electrons       33 beta electrons
       nuclear repulsion energy       348.4384435155 Hartrees.
 NAtoms=    8 NActive=    8 NUniq=    8 SFac= 1.00D+00 NAtFMM=   60 NAOKFM=F Big=F
 Integral buffers will be    131072 words long.
 Raffenetti 2 integral format.
 Two-electron integral symmetry is turned on.
 One-electron integrals computed using PRISM.
 NBasis=   113 RedAO= T EigKep=  1.02D-04  NBF=   113
 NBsUse=   113 1.00D-06 EigRej= -1.00D+00 NBFU=   113
 Initial guess from the checkpoint file:  "/srv/scratch/z5358697/gauss/Gau-921238.chk"
 B after Tr=     0.000000    0.000000    0.000000
         Rot=    0.999999   -0.000272    0.000036   -0.001055 Ang=  -0.12 deg.
 Keep R1 ints in memory in canonical form, NReq=21740987.
 Requested convergence on RMS density matrix=1.00D-08 within 128 cycles.
 Requested convergence on MAX density matrix=1.00D-06.
 Requested convergence on             energy=1.00D-06.
 No special actions if energy rises.
 SCF Done:  E(RM062X) =  -1458.47133497     A.U. after    9 cycles
            NFock=  9  Conv=0.37D-08     -V/T= 2.0030
 Calling FoFJK, ICntrl=      2127 FMM=F ISym2X=0 I1Cent= 0 IOpClX= 0 NMat=1 NMatS=1 NMatT=0.
 ***** Axes restored to original set *****
 -------------------------------------------------------------------
 Center     Atomic                   Forces (Hartrees/Bohr)
 Number     Number              X              Y              Z
 -------------------------------------------------------------------
      1        6          -0.000134833    0.000044964   -0.000005452
      2        6          -0.000001947   -0.000119656   -0.000031489
      3       17           0.000034314    0.000025953   -0.000042106
      4       17           0.000032605    0.000009997    0.000026197
      5       17           0.000014965   -0.000033786   -0.000001857
      6        1           0.000019417    0.000025763    0.000017593
      7        1           0.000051778    0.000011042    0.000031185
      8        1          -0.000016299    0.000035724    0.000005927
 -------------------------------------------------------------------
 Cartesian Forces:  Max     0.000134833 RMS     0.000045226

 GradGradGradGradGradGradGradGradGradGradGradGradGradGradGradGradGradGrad
 Berny optimization.
 Using GEDIIS/GDIIS optimizer.
 FormGI is forming the generalized inverse of G from B-inverse, IUseBI=4.
 Internal  Forces:  Max     0.000078088 RMS     0.000028599
 Search for a local minimum.
 Step number   4 out of a maximum of   38
 All quantities printed in internal units (Hartrees-Bohrs-Radians)
 Mixed Optimization -- En-DIIS/RFO-DIIS
 Swapping is turned off.
 Update second derivatives using D2CorX and points    1    2    3    4
 DE= -1.35D-06 DEPred=-1.34D-06 R= 1.01D+00
 TightC=F SS=  1.41D+00  RLast= 5.68D-03 DXNew= 6.1862D-01 1.7038D-02
 Trust test= 1.01D+00 RLast= 5.68D-03 DXMaxT set to 3.68D-01
 ITU=  1  1  1  0
     Eigenvalues ---    0.00423   0.05452   0.06073   0.06250   0.08376
     Eigenvalues ---    0.13034   0.15879   0.16053   0.22682   0.23404
     Eigenvalues ---    0.24189   0.26822   0.27614   0.27745   0.34105
     Eigenvalues ---    0.34213   0.34305   0.34634
 En-DIIS/RFO-DIIS IScMMF=        0 using points:     4    3    2
 RFO step:  Lambda=-6.43111374D-08.
 DidBck=F Rises=F RFO-DIIS coefs:    0.96348    0.03660   -0.00008
 Iteration  1 RMS(Cart)=  0.00029490 RMS(Int)=  0.00000008
 Iteration  2 RMS(Cart)=  0.00000008 RMS(Int)=  0.00000002
 Variable       Old X    -DE/DX   Delta X   Delta X   Delta X     New X
                                 (Linear)    (Quad)   (Total)
    R1        2.87047   0.00008  -0.00003   0.00037   0.00034   2.87081
    R2        3.35881  -0.00002   0.00004  -0.00022  -0.00018   3.35863
    R3        2.06251   0.00002   0.00000   0.00007   0.00007   2.06258
    R4        2.06254   0.00002   0.00000   0.00005   0.00005   2.06259
    R5        3.36143   0.00004   0.00000   0.00011   0.00011   3.36154
    R6        3.36171   0.00000   0.00002  -0.00008  -0.00006   3.36165
    R7        2.06027  -0.00002  -0.00001  -0.00001  -0.00002   2.06025
    A1        1.98641  -0.00001   0.00002  -0.00001   0.00001   1.98642
    A2        1.89869   0.00000   0.00002  -0.00017  -0.00015   1.89853
    A3        1.89863  -0.00001   0.00003  -0.00013  -0.00010   1.89853
    A4        1.88207   0.00001  -0.00003   0.00015   0.00011   1.88218
    A5        1.88164   0.00004  -0.00002   0.00053   0.00051   1.88216
    A6        1.91580  -0.00003  -0.00002  -0.00038  -0.00040   1.91539
    A7        1.95003   0.00001   0.00004   0.00004   0.00008   1.95010
    A8        1.95007  -0.00002   0.00001   0.00002   0.00004   1.95010
    A9        1.89362  -0.00004   0.00002  -0.00046  -0.00044   1.89318
   A10        1.94391   0.00004   0.00003   0.00032   0.00035   1.94426
   A11        1.86065  -0.00001  -0.00007  -0.00006  -0.00012   1.86052
   A12        1.86032   0.00001  -0.00005   0.00010   0.00005   1.86038
    D1        1.09552   0.00004   0.00009   0.00013   0.00022   1.09574
    D2       -1.09554  -0.00001   0.00001  -0.00034  -0.00034  -1.09588
    D3       -3.14142   0.00001   0.00005  -0.00020  -0.00016  -3.14157
    D4       -3.08896   0.00004   0.00008   0.00019   0.00027  -3.08869
    D5        1.00317  -0.00001  -0.00001  -0.00028  -0.00029   1.00287
    D6       -1.04271   0.00001   0.00003  -0.00014  -0.00011  -1.04282
    D7       -1.00260   0.00000   0.00008  -0.00045  -0.00037  -1.00297
    D8        3.08952  -0.00005  -0.00001  -0.00092  -0.00093   3.08859
    D9        1.04364  -0.00003   0.00004  -0.00078  -0.00074   1.04290
         Item               Value     Threshold  Converged?
 Maximum Force            0.000078     0.000450     YES
 RMS     Force            0.000029     0.000300     YES
 Maximum Displacement     0.000749     0.001800     YES
 RMS     Displacement     0.000295     0.001200     YES
 Predicted change in Energy=-9.946588D-08
 Optimization completed.
    -- Stationary point found.
                           ----------------------------
                           !   Optimized Parameters   !
                           ! (Angstroms and Degrees)  !
 --------------------------                            --------------------------
 ! Name  Definition              Value          Derivative Info.                !
 --------------------------------------------------------------------------------
 ! R1    R(1,2)                  1.519          -DE/DX =    0.0001              !
 ! R2    R(1,5)                  1.7774         -DE/DX =    0.0                 !
 ! R3    R(1,6)                  1.0914         -DE/DX =    0.0                 !
 ! R4    R(1,7)                  1.0914         -DE/DX =    0.0                 !
 ! R5    R(2,3)                  1.7788         -DE/DX =    0.0                 !
 ! R6    R(2,4)                  1.7789         -DE/DX =    0.0                 !
 ! R7    R(2,8)                  1.0902         -DE/DX =    0.0                 !
 ! A1    A(2,1,5)              113.8128         -DE/DX =    0.0                 !
 ! A2    A(2,1,6)              108.7867         -DE/DX =    0.0                 !
 ! A3    A(2,1,7)              108.7834         -DE/DX =    0.0                 !
 ! A4    A(5,1,6)              107.8346         -DE/DX =    0.0                 !
 ! A5    A(5,1,7)              107.8102         -DE/DX =    0.0                 !
 ! A6    A(6,1,7)              109.7671         -DE/DX =    0.0                 !
 ! A7    A(1,2,3)              111.7283         -DE/DX =    0.0                 !
 ! A8    A(1,2,4)              111.7305         -DE/DX =    0.0                 !
 ! A9    A(1,2,8)              108.4962         -DE/DX =    0.0                 !
 ! A10   A(3,2,4)              111.3778         -DE/DX =    0.0                 !
 ! A11   A(3,2,8)              106.6072         -DE/DX =    0.0                 !
 ! A12   A(4,2,8)              106.5887         -DE/DX =    0.0                 !
 ! D1    D(5,1,2,3)             62.7688         -DE/DX =    0.0                 !
 ! D2    D(5,1,2,4)            -62.7698         -DE/DX =    0.0                 !
 ! D3    D(5,1,2,8)           -179.9899         -DE/DX =    0.0                 !
 ! D4    D(6,1,2,3)           -176.9842         -DE/DX =    0.0                 !
 ! D5    D(6,1,2,4)             57.4773         -DE/DX =    0.0                 !
 ! D6    D(6,1,2,8)            -59.7428         -DE/DX =    0.0                 !
 ! D7    D(7,1,2,3)            -57.445          -DE/DX =    0.0                 !
 ! D8    D(7,1,2,4)            177.0164         -DE/DX =   -0.0001              !
 ! D9    D(7,1,2,8)             59.7964         -DE/DX =    0.0                 !
 --------------------------------------------------------------------------------
 GradGradGradGradGradGradGradGradGradGradGradGradGradGradGradGradGradGrad

                          Input orientation:                          
 ---------------------------------------------------------------------
 Center     Atomic      Atomic             Coordinates (Angstroms)
 Number     Number       Type             X           Y           Z
 ---------------------------------------------------------------------
      1          6           0       -0.199788    0.622197    0.463072
      2          6           0        0.418114   -0.489033   -0.368008
      3         17           0       -0.046487   -0.366638   -2.080686
      4         17           0        0.037721   -2.095859    0.293834
      5         17           0       -1.976453    0.587190    0.500566
      6          1           0        0.158053    0.533357    1.490342
      7          1           0        0.106467    1.583789    0.047367
      8          1           0        1.502873   -0.386102   -0.331286
 ---------------------------------------------------------------------
                    Distance matrix (angstroms):
                    1          2          3          4          5
     1  C    0.000000
     2  C    1.518990   0.000000
     3  Cl   2.733496   1.778792   0.000000
     4  Cl   2.733656   1.778939   2.938646   0.000000
     5  Cl   1.777405   2.765254   3.361163   3.361307   0.000000
     6  H    1.091434   2.136909   3.688370   2.891174   2.353438
     7  H    1.091449   2.136879   2.890704   3.688533   2.353115
     8  H    2.132305   1.090250   2.336941   2.336817   3.707422
                    6          7          8
     6  H    0.000000
     7  H    1.785565   0.000000
     8  H    2.443824   2.444136   0.000000
 Stoichiometry    C2H3Cl3
 Framework group  C1[X(C2H3Cl3)]
 Deg. of freedom    18
 Full point group                 C1      NOp   1
 Largest Abelian subgroup         C1      NOp   1
 Largest concise Abelian subgroup C1      NOp   1
                         Standard orientation:                         
 ---------------------------------------------------------------------
 Center     Atomic      Atomic             Coordinates (Angstroms)
 Number     Number       Type             X           Y           Z
 ---------------------------------------------------------------------
      1          6           0       -0.877144   -0.000065    1.013942
      2          6           0        0.598489    0.000128    0.653617
      3         17           0        1.058651    1.469432   -0.237167
      4         17           0        1.059163   -1.469214   -0.237135
      5         17           0       -1.960019   -0.000254   -0.395508
      6          1           0       -1.095011   -0.892694    1.602987
      7          1           0       -1.095324    0.892871    1.602436
      8          1           0        1.179753    0.000051    1.575992
 ---------------------------------------------------------------------
 Rotational constants (GHZ):      2.7041886      1.9113385      1.3205093

 **********************************************************************

            Population analysis using the SCF density.

 **********************************************************************

 Orbital symmetries:
       Occupied  (A) (A) (A) (A) (A) (A) (A) (A) (A) (A) (A) (A)
                 (A) (A) (A) (A) (A) (A) (A) (A) (A) (A) (A) (A)
                 (A) (A) (A) (A) (A) (A) (A) (A) (A)
       Virtual   (A) (A) (A) (A) (A) (A) (A) (A) (A) (A) (A) (A)
                 (A) (A) (A) (A) (A) (A) (A) (A) (A) (A) (A) (A)
                 (A) (A) (A) (A) (A) (A) (A) (A) (A) (A) (A) (A)
                 (A) (A) (A) (A) (A) (A) (A) (A) (A) (A) (A) (A)
                 (A) (A) (A) (A) (A) (A) (A) (A) (A) (A) (A) (A)
                 (A) (A) (A) (A) (A) (A) (A) (A) (A) (A) (A) (A)
                 (A) (A) (A) (A) (A) (A) (A) (A)
 The electronic state is 1-A.
 Alpha  occ. eigenvalues -- -102.68522-102.68520-102.67480 -10.69568 -10.64270
 Alpha  occ. eigenvalues --   -9.83242  -9.83239  -9.82167  -7.55668  -7.55666
 Alpha  occ. eigenvalues --   -7.54955  -7.54953  -7.54930  -7.54928  -7.54598
 Alpha  occ. eigenvalues --   -7.53887  -7.53867  -1.03916  -0.96431  -0.93424
 Alpha  occ. eigenvalues --   -0.83293  -0.70646  -0.59229  -0.57995  -0.53648
 Alpha  occ. eigenvalues --   -0.49358  -0.48355  -0.41004  -0.40121  -0.38091
 Alpha  occ. eigenvalues --   -0.38022  -0.37908  -0.37344
 Alpha virt. eigenvalues --    0.00138   0.01319   0.03409   0.03619   0.04267
 Alpha virt. eigenvalues --    0.04953   0.06279   0.08548   0.08799   0.09301
 Alpha virt. eigenvalues --    0.10907   0.11299   0.11603   0.12311   0.12606
 Alpha virt. eigenvalues --    0.13120   0.13595   0.13934   0.14925   0.16722
 Alpha virt. eigenvalues --    0.19189   0.19360   0.19417   0.23907   0.24675
 Alpha virt. eigenvalues --    0.29405   0.37910   0.55106   0.56402   0.57015
 Alpha virt. eigenvalues --    0.59971   0.60500   0.60937   0.63045   0.65402
 Alpha virt. eigenvalues --    0.65423   0.67088   0.68223   0.68635   0.69219
 Alpha virt. eigenvalues --    0.71867   0.71913   0.73440   0.79000   0.79722
 Alpha virt. eigenvalues --    0.85391   0.91830   0.92201   0.93265   0.93305
 Alpha virt. eigenvalues --    0.94608   0.95135   0.98067   0.98692   1.02814
 Alpha virt. eigenvalues --    1.06782   1.07147   1.10953   1.12217   1.14286
 Alpha virt. eigenvalues --    1.17830   1.18113   1.25796   1.38586   1.57949
 Alpha virt. eigenvalues --    1.61016   1.64468   1.90893   1.98930   1.99604
 Alpha virt. eigenvalues --    2.19333   2.26636   2.28129   2.30975   2.58421
 Alpha virt. eigenvalues --    4.07308   4.30245   4.42260   4.45001   4.46154
          Condensed to atoms (all electrons):
               1          2          3          4          5          6
     1  C    5.807053   0.177898  -0.106157  -0.106156   0.133500   0.366985
     2  C    0.177898   5.791060   0.178846   0.178959  -0.067686  -0.041816
     3  Cl  -0.106157   0.178846  16.958375  -0.053410  -0.008862   0.011686
     4  Cl  -0.106156   0.178959  -0.053410  16.958357  -0.008888  -0.009286
     5  Cl   0.133500  -0.067686  -0.008862  -0.008888  16.946683  -0.048410
     6  H    0.366985  -0.041816   0.011686  -0.009286  -0.048410   0.469374
     7  H    0.367036  -0.041754  -0.009316   0.011669  -0.048498  -0.028303
     8  H   -0.053399   0.386326  -0.065335  -0.065363   0.010218  -0.002051
               7          8
     1  C    0.367036  -0.053399
     2  C   -0.041754   0.386326
     3  Cl  -0.009316  -0.065335
     4  Cl   0.011669  -0.065363
     5  Cl  -0.048498   0.010218
     6  H   -0.028303  -0.002051
     7  H    0.469375  -0.002052
     8  H   -0.002052   0.486961
 Mulliken charges:
               1
     1  C   -0.586760
     2  C   -0.561834
     3  Cl   0.094173
     4  Cl   0.094118
     5  Cl   0.091943
     6  H    0.281821
     7  H    0.281844
     8  H    0.304695
 Sum of Mulliken charges =   0.00000
 Mulliken charges with hydrogens summed into heavy atoms:
               1
     1  C   -0.023095
     2  C   -0.257139
     3  Cl   0.094173
     4  Cl   0.094118
     5  Cl   0.091943
 Electronic spatial extent (au):  <R**2>=            862.7903
 Charge=              0.0000 electrons
 Dipole moment (field-independent basis, Debye):
    X=              0.0760    Y=              0.0007    Z=              2.9671  Tot=              2.9681
 Quadrupole moment (field-independent basis, Debye-Ang):
   XX=            -53.5204   YY=            -52.0786   ZZ=            -46.6451
   XY=             -0.0002   XZ=             -0.5143   YZ=             -0.0005
 Traceless Quadrupole moment (field-independent basis, Debye-Ang):
   XX=             -2.7724   YY=             -1.3306   ZZ=              4.1030
   XY=             -0.0002   XZ=             -0.5143   YZ=             -0.0005
 Octapole moment (field-independent basis, Debye-Ang**2):
  XXX=              3.2383  YYY=              0.0031  ZZZ=              2.5301  XYY=             -0.1549
  XXY=              0.0018  XXZ=              0.4960  XZZ=             -1.3419  YZZ=             -0.0007
  YYZ=             -2.6485  XYZ=              0.0002
 Hexadecapole moment (field-independent basis, Debye-Ang**3):
 XXXX=           -589.4056 YYYY=           -380.8676 ZZZZ=           -143.9504 XXXY=             -0.0020
 XXXZ=              7.4624 YYYX=             -0.0026 YYYZ=             -0.0032 ZZZX=              2.9802
 ZZZY=             -0.0044 XXYY=           -161.6806 XXZZ=           -110.5421 YYZZ=            -86.1363
 XXYZ=              0.0032 YYXZ=             -8.5656 ZZXY=              0.0016
 N-N= 3.484384435155D+02 E-N=-4.158297813011D+03  KE= 1.454165228462D+03
 1\1\GINC-KATANA2\FOpt\RM062X\6-31+G(d)\C2H3Cl3\Z5358697\18-Mar-2025\0\
 \#m062X/6-31+G(d) OPT Freq=noraman\\1,1,2-trichloroethane\\0,1\C,-0.19
 97883581,0.6221965968,0.4630715894\C,0.4181142756,-0.4890330924,-0.368
 008453\Cl,-0.0464868146,-0.3666381417,-2.0806861771\Cl,0.037720877,-2.
 0958588692,0.2938340419\Cl,-1.9764526348,0.5871895811,0.5005657721\H,0
 .1580534931,0.5333574283,1.4903421671\H,0.1064665076,1.5837888135,0.04
 73672275\H,1.5028726542,-0.3861023164,-0.3312861679\\Version=ES64L-G09
 RevD.01\State=1-A\HF=-1458.471335\RMSD=3.680e-09\RMSF=4.523e-05\Dipole
 =0.9410962,0.5744431,0.3846259\Quadrupole=0.7642627,-0.1264111,-0.6378
 516,2.1060897,1.4718694,0.5539531\PG=C01 [X(C2H3Cl3)]\\@


 A MAN IS NEVER SO BRILLIANT AS WHEN HE TAKES THE WORDS RIGHT OUT
 OF YOUR MOUTH. -- ARNOT SHEPPARD, JR.
 Job cpu time:       0 days  0 hours  0 minutes 56.0 seconds.
 File lengths (MBytes):  RWF=    132 Int=      0 D2E=      0 Chk=      3 Scr=      2
 Normal termination of Gaussian 09 at Tue Mar 18 22:07:46 2025.
 Link1:  Proceeding to internal job step number  2.
 ---------------------------------------------------------------------
 #N Geom=AllCheck Guess=TCheck SCRF=Check GenChk RM062X/6-31+G(d) Freq
 ---------------------------------------------------------------------
 1/10=4,29=7,30=1,38=1,40=1/1,3;
 2/12=2,40=1/2;
 3/5=1,6=6,7=11,11=2,14=-4,16=1,25=1,30=1,70=2,71=2,74=-55,116=1,140=1/1,2,3;
 4/5=101/1;
 5/5=2,98=1/2;
 8/6=4,10=90,11=11/1;
 11/6=1,8=1,9=11,15=111,16=1/1,2,10;
 10/6=1/2;
 6/7=2,8=2,9=2,10=2,18=1,28=1/1;
 7/8=1,10=1,25=1/1,2,3,16;
 1/10=4,30=1/3;
 99//99;
 Structure from the checkpoint file:  "/srv/scratch/z5358697/gauss/Gau-921238.chk"
 ---------------------
 1,1,2-trichloroethane
 ---------------------
 Charge =  0 Multiplicity = 1
 Redundant internal coordinates found in file.
 C,0,-0.1997883581,0.6221965968,0.4630715894
 C,0,0.4181142756,-0.4890330924,-0.368008453
 Cl,0,-0.0464868146,-0.3666381417,-2.0806861771
 Cl,0,0.037720877,-2.0958588692,0.2938340419
 Cl,0,-1.9764526348,0.5871895811,0.5005657721
 H,0,0.1580534931,0.5333574283,1.4903421671
 H,0,0.1064665076,1.5837888135,0.0473672275
 H,0,1.5028726542,-0.3861023164,-0.3312861679
 Recover connectivity data from disk.

 GradGradGradGradGradGradGradGradGradGradGradGradGradGradGradGradGradGrad
 Berny optimization.
 Initialization pass.
                           ----------------------------
                           !    Initial Parameters    !
                           ! (Angstroms and Degrees)  !
 --------------------------                            --------------------------
 ! Name  Definition              Value          Derivative Info.                !
 --------------------------------------------------------------------------------
 ! R1    R(1,2)                  1.519          calculate D2E/DX2 analytically  !
 ! R2    R(1,5)                  1.7774         calculate D2E/DX2 analytically  !
 ! R3    R(1,6)                  1.0914         calculate D2E/DX2 analytically  !
 ! R4    R(1,7)                  1.0914         calculate D2E/DX2 analytically  !
 ! R5    R(2,3)                  1.7788         calculate D2E/DX2 analytically  !
 ! R6    R(2,4)                  1.7789         calculate D2E/DX2 analytically  !
 ! R7    R(2,8)                  1.0902         calculate D2E/DX2 analytically  !
 ! A1    A(2,1,5)              113.8128         calculate D2E/DX2 analytically  !
 ! A2    A(2,1,6)              108.7867         calculate D2E/DX2 analytically  !
 ! A3    A(2,1,7)              108.7834         calculate D2E/DX2 analytically  !
 ! A4    A(5,1,6)              107.8346         calculate D2E/DX2 analytically  !
 ! A5    A(5,1,7)              107.8102         calculate D2E/DX2 analytically  !
 ! A6    A(6,1,7)              109.7671         calculate D2E/DX2 analytically  !
 ! A7    A(1,2,3)              111.7283         calculate D2E/DX2 analytically  !
 ! A8    A(1,2,4)              111.7305         calculate D2E/DX2 analytically  !
 ! A9    A(1,2,8)              108.4962         calculate D2E/DX2 analytically  !
 ! A10   A(3,2,4)              111.3778         calculate D2E/DX2 analytically  !
 ! A11   A(3,2,8)              106.6072         calculate D2E/DX2 analytically  !
 ! A12   A(4,2,8)              106.5887         calculate D2E/DX2 analytically  !
 ! D1    D(5,1,2,3)             62.7688         calculate D2E/DX2 analytically  !
 ! D2    D(5,1,2,4)            -62.7698         calculate D2E/DX2 analytically  !
 ! D3    D(5,1,2,8)           -179.9899         calculate D2E/DX2 analytically  !
 ! D4    D(6,1,2,3)           -176.9842         calculate D2E/DX2 analytically  !
 ! D5    D(6,1,2,4)             57.4773         calculate D2E/DX2 analytically  !
 ! D6    D(6,1,2,8)            -59.7428         calculate D2E/DX2 analytically  !
 ! D7    D(7,1,2,3)            -57.445          calculate D2E/DX2 analytically  !
 ! D8    D(7,1,2,4)            177.0164         calculate D2E/DX2 analytically  !
 ! D9    D(7,1,2,8)             59.7964         calculate D2E/DX2 analytically  !
 --------------------------------------------------------------------------------
 Trust Radius=3.00D-01 FncErr=1.00D-07 GrdErr=1.00D-07
 Number of steps in this run=      2 maximum allowed number of steps=      2.
 GradGradGradGradGradGradGradGradGradGradGradGradGradGradGradGradGradGrad

                          Input orientation:                          
 ---------------------------------------------------------------------
 Center     Atomic      Atomic             Coordinates (Angstroms)
 Number     Number       Type             X           Y           Z
 ---------------------------------------------------------------------
      1          6           0       -0.199788    0.622197    0.463072
      2          6           0        0.418114   -0.489033   -0.368008
      3         17           0       -0.046487   -0.366638   -2.080686
      4         17           0        0.037721   -2.095859    0.293834
      5         17           0       -1.976453    0.587190    0.500566
      6          1           0        0.158053    0.533357    1.490342
      7          1           0        0.106467    1.583789    0.047367
      8          1           0        1.502873   -0.386102   -0.331286
 ---------------------------------------------------------------------
                    Distance matrix (angstroms):
                    1          2          3          4          5
     1  C    0.000000
     2  C    1.518990   0.000000
     3  Cl   2.733496   1.778792   0.000000
     4  Cl   2.733656   1.778939   2.938646   0.000000
     5  Cl   1.777405   2.765254   3.361163   3.361307   0.000000
     6  H    1.091434   2.136909   3.688370   2.891174   2.353438
     7  H    1.091449   2.136879   2.890704   3.688533   2.353115
     8  H    2.132305   1.090250   2.336941   2.336817   3.707422
                    6          7          8
     6  H    0.000000
     7  H    1.785565   0.000000
     8  H    2.443824   2.444136   0.000000
 Stoichiometry    C2H3Cl3
 Framework group  C1[X(C2H3Cl3)]
 Deg. of freedom    18
 Full point group                 C1      NOp   1
 Largest Abelian subgroup         C1      NOp   1
 Largest concise Abelian subgroup C1      NOp   1
                         Standard orientation:                         
 ---------------------------------------------------------------------
 Center     Atomic      Atomic             Coordinates (Angstroms)
 Number     Number       Type             X           Y           Z
 ---------------------------------------------------------------------
      1          6           0       -0.877144   -0.000065    1.013942
      2          6           0        0.598489    0.000128    0.653617
      3         17           0        1.058651    1.469432   -0.237167
      4         17           0        1.059163   -1.469214   -0.237135
      5         17           0       -1.960019   -0.000254   -0.395508
      6          1           0       -1.095011   -0.892694    1.602987
      7          1           0       -1.095324    0.892871    1.602436
      8          1           0        1.179753    0.000051    1.575992
 ---------------------------------------------------------------------
 Rotational constants (GHZ):      2.7041886      1.9113385      1.3205093
 Standard basis: 6-31+G(d) (6D, 7F)
 There are   113 symmetry adapted cartesian basis functions of A   symmetry.
 There are   113 symmetry adapted basis functions of A   symmetry.
   113 basis functions,   244 primitive gaussians,   113 cartesian basis functions
    33 alpha electrons       33 beta electrons
       nuclear repulsion energy       348.4384435155 Hartrees.
 NAtoms=    8 NActive=    8 NUniq=    8 SFac= 1.00D+00 NAtFMM=   60 NAOKFM=F Big=F
 Integral buffers will be    131072 words long.
 Raffenetti 2 integral format.
 Two-electron integral symmetry is turned on.
 One-electron integrals computed using PRISM.
 NBasis=   113 RedAO= T EigKep=  1.02D-04  NBF=   113
 NBsUse=   113 1.00D-06 EigRej= -1.00D+00 NBFU=   113
 Initial guess from the checkpoint file:  "/srv/scratch/z5358697/gauss/Gau-921238.chk"
 B after Tr=     0.000000    0.000000    0.000000
         Rot=    1.000000    0.000000    0.000000    0.000000 Ang=   0.00 deg.
 Keep R1 ints in memory in canonical form, NReq=21740987.
 Requested convergence on RMS density matrix=1.00D-08 within 128 cycles.
 Requested convergence on MAX density matrix=1.00D-06.
 Requested convergence on             energy=1.00D-06.
 No special actions if energy rises.
 SCF Done:  E(RM062X) =  -1458.47133497     A.U. after    1 cycles
            NFock=  1  Conv=0.85D-09     -V/T= 2.0030
 DoSCS=F DFT=T ScalE2(SS,OS)=  1.000000  1.000000
 Range of M.O.s used for correlation:     1   113
 NBasis=   113 NAE=    33 NBE=    33 NFC=     0 NFV=     0
 NROrb=    113 NOA=    33 NOB=    33 NVA=    80 NVB=    80

 **** Warning!!: The largest alpha MO coefficient is  0.38490496D+02

 Symmetrizing basis deriv contribution to polar:
 IMax=3 JMax=2 DiffMx= 0.00D+00
 G2DrvN: will do     9 centers at a time, making    1 passes.
 Calling FoFCou, ICntrl=  3107 FMM=F I1Cent=   0 AccDes= 0.00D+00.
 End of G2Drv F.D. properties file   721 does not exist.
 End of G2Drv F.D. properties file   722 does not exist.
 End of G2Drv F.D. properties file   788 does not exist.
          IDoAtm=11111111
          Differentiating once with respect to electric field.
                with respect to dipole field.
          Differentiating once with respect to nuclear coordinates.
 Keep R1 ints in memory in canonical form, NReq=21683893.
          There are    27 degrees of freedom in the 1st order CPHF.  IDoFFX=6 NUNeed=     3.
     24 vectors produced by pass  0 Test12= 9.78D-15 3.70D-09 XBig12= 3.14D+01 1.54D+00.
 AX will form    24 AO Fock derivatives at one time.
     24 vectors produced by pass  1 Test12= 9.78D-15 3.70D-09 XBig12= 3.10D+00 4.02D-01.
     24 vectors produced by pass  2 Test12= 9.78D-15 3.70D-09 XBig12= 7.67D-02 6.59D-02.
     24 vectors produced by pass  3 Test12= 9.78D-15 3.70D-09 XBig12= 7.21D-04 5.11D-03.
     24 vectors produced by pass  4 Test12= 9.78D-15 3.70D-09 XBig12= 3.29D-06 3.58D-04.
     24 vectors produced by pass  5 Test12= 9.78D-15 3.70D-09 XBig12= 1.26D-08 2.01D-05.
     18 vectors produced by pass  6 Test12= 9.78D-15 3.70D-09 XBig12= 4.29D-11 9.10D-07.
      3 vectors produced by pass  7 Test12= 9.78D-15 3.70D-09 XBig12= 1.93D-13 7.66D-08.
      3 vectors produced by pass  8 Test12= 9.78D-15 3.70D-09 XBig12= 1.31D-15 7.05D-09.
 InvSVY:  IOpt=1 It=  1 EMax= 5.33D-15
 Solved reduced A of dimension   168 with    27 vectors.
 Isotropic polarizability for W=    0.000000       57.64 Bohr**3.
 End of Minotr F.D. properties file   721 does not exist.
 End of Minotr F.D. properties file   722 does not exist.
 End of Minotr F.D. properties file   788 does not exist.

 **********************************************************************

            Population analysis using the SCF density.

 **********************************************************************

 Orbital symmetries:
       Occupied  (A) (A) (A) (A) (A) (A) (A) (A) (A) (A) (A) (A)
                 (A) (A) (A) (A) (A) (A) (A) (A) (A) (A) (A) (A)
                 (A) (A) (A) (A) (A) (A) (A) (A) (A)
       Virtual   (A) (A) (A) (A) (A) (A) (A) (A) (A) (A) (A) (A)
                 (A) (A) (A) (A) (A) (A) (A) (A) (A) (A) (A) (A)
                 (A) (A) (A) (A) (A) (A) (A) (A) (A) (A) (A) (A)
                 (A) (A) (A) (A) (A) (A) (A) (A) (A) (A) (A) (A)
                 (A) (A) (A) (A) (A) (A) (A) (A) (A) (A) (A) (A)
                 (A) (A) (A) (A) (A) (A) (A) (A) (A) (A) (A) (A)
                 (A) (A) (A) (A) (A) (A) (A) (A)
 The electronic state is 1-A.
 Alpha  occ. eigenvalues -- -102.68522-102.68520-102.67480 -10.69568 -10.64270
 Alpha  occ. eigenvalues --   -9.83242  -9.83239  -9.82167  -7.55668  -7.55666
 Alpha  occ. eigenvalues --   -7.54955  -7.54953  -7.54930  -7.54928  -7.54598
 Alpha  occ. eigenvalues --   -7.53887  -7.53867  -1.03916  -0.96431  -0.93424
 Alpha  occ. eigenvalues --   -0.83293  -0.70646  -0.59229  -0.57995  -0.53648
 Alpha  occ. eigenvalues --   -0.49358  -0.48355  -0.41004  -0.40121  -0.38091
 Alpha  occ. eigenvalues --   -0.38022  -0.37908  -0.37344
 Alpha virt. eigenvalues --    0.00138   0.01319   0.03409   0.03619   0.04267
 Alpha virt. eigenvalues --    0.04953   0.06279   0.08548   0.08799   0.09301
 Alpha virt. eigenvalues --    0.10907   0.11299   0.11603   0.12311   0.12606
 Alpha virt. eigenvalues --    0.13120   0.13595   0.13934   0.14925   0.16722
 Alpha virt. eigenvalues --    0.19189   0.19360   0.19417   0.23907   0.24675
 Alpha virt. eigenvalues --    0.29405   0.37910   0.55106   0.56402   0.57015
 Alpha virt. eigenvalues --    0.59971   0.60500   0.60937   0.63045   0.65402
 Alpha virt. eigenvalues --    0.65423   0.67088   0.68223   0.68635   0.69219
 Alpha virt. eigenvalues --    0.71867   0.71913   0.73440   0.79000   0.79722
 Alpha virt. eigenvalues --    0.85391   0.91830   0.92201   0.93265   0.93305
 Alpha virt. eigenvalues --    0.94608   0.95135   0.98067   0.98692   1.02814
 Alpha virt. eigenvalues --    1.06782   1.07147   1.10953   1.12217   1.14286
 Alpha virt. eigenvalues --    1.17830   1.18113   1.25796   1.38586   1.57949
 Alpha virt. eigenvalues --    1.61016   1.64468   1.90893   1.98930   1.99604
 Alpha virt. eigenvalues --    2.19333   2.26636   2.28129   2.30975   2.58421
 Alpha virt. eigenvalues --    4.07308   4.30245   4.42260   4.45001   4.46154
          Condensed to atoms (all electrons):
               1          2          3          4          5          6
     1  C    5.807053   0.177898  -0.106157  -0.106156   0.133500   0.366985
     2  C    0.177898   5.791060   0.178846   0.178959  -0.067686  -0.041816
     3  Cl  -0.106157   0.178846  16.958375  -0.053410  -0.008862   0.011686
     4  Cl  -0.106156   0.178959  -0.053410  16.958357  -0.008888  -0.009286
     5  Cl   0.133500  -0.067686  -0.008862  -0.008888  16.946683  -0.048410
     6  H    0.366985  -0.041816   0.011686  -0.009286  -0.048410   0.469374
     7  H    0.367036  -0.041754  -0.009316   0.011669  -0.048498  -0.028303
     8  H   -0.053399   0.386326  -0.065335  -0.065363   0.010218  -0.002051
               7          8
     1  C    0.367036  -0.053399
     2  C   -0.041754   0.386326
     3  Cl  -0.009316  -0.065335
     4  Cl   0.011669  -0.065363
     5  Cl  -0.048498   0.010218
     6  H   -0.028303  -0.002051
     7  H    0.469375  -0.002052
     8  H   -0.002052   0.486961
 Mulliken charges:
               1
     1  C   -0.586760
     2  C   -0.561834
     3  Cl   0.094173
     4  Cl   0.094118
     5  Cl   0.091943
     6  H    0.281821
     7  H    0.281844
     8  H    0.304695
 Sum of Mulliken charges =   0.00000
 Mulliken charges with hydrogens summed into heavy atoms:
               1
     1  C   -0.023095
     2  C   -0.257139
     3  Cl   0.094173
     4  Cl   0.094118
     5  Cl   0.091943
 APT charges:
               1
     1  C    0.237734
     2  C    0.655352
     3  Cl  -0.310214
     4  Cl  -0.310301
     5  Cl  -0.243159
     6  H    0.002498
     7  H    0.002502
     8  H   -0.034412
 Sum of APT charges =   0.00000
 APT charges with hydrogens summed into heavy atoms:
               1
     1  C    0.242734
     2  C    0.620940
     3  Cl  -0.310214
     4  Cl  -0.310301
     5  Cl  -0.243159
 Electronic spatial extent (au):  <R**2>=            862.7903
 Charge=              0.0000 electrons
 Dipole moment (field-independent basis, Debye):
    X=              0.0760    Y=              0.0007    Z=              2.9671  Tot=              2.9681
 Quadrupole moment (field-independent basis, Debye-Ang):
   XX=            -53.5204   YY=            -52.0786   ZZ=            -46.6451
   XY=             -0.0002   XZ=             -0.5143   YZ=             -0.0005
 Traceless Quadrupole moment (field-independent basis, Debye-Ang):
[...]
     3  17     0.00   0.01  -0.02     0.00   0.00  -0.01    -0.01   0.00   0.00
     4  17     0.00  -0.01  -0.02     0.00   0.00   0.01    -0.01   0.00   0.00
     5  17    -0.01   0.00  -0.03     0.00   0.01   0.00     0.00   0.00  -0.01
     6   1     0.44   0.00   0.08     0.58   0.01   0.23     0.21   0.00   0.17
     7   1     0.44   0.00   0.08    -0.58   0.01  -0.23     0.20   0.00   0.17
     8   1    -0.58   0.00   0.33     0.00  -0.46   0.00    -0.74   0.01   0.52
                     13                     14                     15
                      A                      A                      A
 Frequencies --   1296.3368              1362.8099              1485.6248
 Red. masses --      1.1450                 1.2437                 1.0846
 Frc consts  --      1.1337                 1.3609                 1.4103
 IR Inten    --     38.7070                24.4831                 7.8259
  Atom  AN      X      Y      Z        X      Y      Z        X      Y      Z
     1   6     0.00  -0.03   0.00     0.12   0.00   0.06    -0.05   0.00   0.07
     2   6     0.00   0.10   0.00     0.01   0.00  -0.05     0.00   0.00   0.01
     3  17     0.00   0.00  -0.01     0.00   0.00   0.00     0.00   0.00   0.00
     4  17     0.00   0.00   0.01     0.00   0.00   0.00     0.00   0.00   0.00
     5  17     0.00   0.00   0.00     0.00   0.00   0.01     0.00   0.00   0.00
     6   1    -0.30   0.02  -0.05    -0.58  -0.03  -0.26     0.23  -0.43  -0.51
     7   1     0.30   0.02   0.06    -0.58   0.03  -0.26     0.23   0.43  -0.51
     8   1    -0.01  -0.90   0.01    -0.37   0.00   0.20     0.00   0.00   0.01
                     16                     17                     18
                      A                      A                      A
 Frequencies --   3139.1159              3179.4872              3201.7046
 Red. masses --      1.0578                 1.0864                 1.1099
 Frc consts  --      6.1416                 6.4705                 6.7035
 IR Inten    --      7.9033                 2.6394                 0.0829
  Atom  AN      X      Y      Z        X      Y      Z        X      Y      Z
     1   6    -0.03   0.00   0.06     0.00   0.00   0.01     0.00   0.10   0.00
     2   6     0.00   0.00  -0.01     0.05   0.00   0.07     0.00   0.00   0.00
     3  17     0.00   0.00   0.00     0.00   0.00   0.00     0.00   0.00   0.00
     4  17     0.00   0.00   0.00     0.00   0.00   0.00     0.00   0.00   0.00
     5  17     0.00   0.00   0.00     0.00   0.00   0.00     0.00   0.00   0.00
     6   1     0.15   0.58  -0.36     0.02   0.06  -0.04    -0.15  -0.58   0.38
     7   1     0.15  -0.58  -0.36     0.02  -0.07  -0.04     0.15  -0.57  -0.38
     8   1     0.06   0.00   0.10    -0.55   0.00  -0.83     0.00   0.00   0.00

 -------------------
 - Thermochemistry -
 -------------------
 Temperature   298.150 Kelvin.  Pressure   1.00000 Atm.
 Atom     1 has atomic number  6 and mass  12.00000
 Atom     2 has atomic number  6 and mass  12.00000
 Atom     3 has atomic number 17 and mass  34.96885
 Atom     4 has atomic number 17 and mass  34.96885
 Atom     5 has atomic number 17 and mass  34.96885
 Atom     6 has atomic number  1 and mass   1.00783
 Atom     7 has atomic number  1 and mass   1.00783
 Atom     8 has atomic number  1 and mass   1.00783
 Molecular mass:   131.93003 amu.
 Principal axes and moments of inertia in atomic units:
                           1         2         3
     Eigenvalues --   667.38732 944.228961366.70087
           X            0.99995  -0.00001  -0.00997
           Y            0.00001   1.00000   0.00000
           Z            0.00997   0.00000   0.99995
 This molecule is an asymmetric top.
 Rotational symmetry number  1.
 Warning -- assumption of classical behavior for rotation
           may cause significant error
 Rotational temperatures (Kelvin)      0.12978     0.09173     0.06337
 Rotational constants (GHZ):           2.70419     1.91134     1.32051
 Zero-point vibrational energy     130621.5 (Joules/Mol)
                                   31.21929 (Kcal/Mol)
 Warning -- explicit consideration of   5 degrees of freedom as
           vibrations may cause significant error
 Vibrational temperatures:    131.71   234.27   412.62   460.56   774.10
          (Kelvin)            955.73  1067.63  1163.51  1406.02  1517.75
                             1773.98  1861.42  1865.14  1960.78  2137.48
                             4516.48  4574.57  4606.53
 
 Zero-point correction=                           0.049751 (Hartree/Particle)
 Thermal correction to Energy=                    0.055408
 Thermal correction to Enthalpy=                  0.056352
 Thermal correction to Gibbs Free Energy=         0.018618
 Sum of electronic and zero-point Energies=          -1458.421584
 Sum of electronic and thermal Energies=             -1458.415927
 Sum of electronic and thermal Enthalpies=           -1458.414983
 Sum of electronic and thermal Free Energies=        -1458.452717
 
                     E (Thermal)             CV                S
                      KCal/Mol        Cal/Mol-Kelvin    Cal/Mol-Kelvin
 Total                   34.769             17.999             79.419
 Electronic               0.000              0.000              0.000
 Translational            0.889              2.981             40.544
 Rotational               0.889              2.981             28.245
 Vibrational             32.992             12.037             10.630
 Vibration     1          0.602              1.955              3.627
 Vibration     2          0.623              1.888              2.517
 Vibration     3          0.684              1.698              1.493
 Vibration     4          0.706              1.635              1.310
 Vibration     5          0.893              1.166              0.570
                       Q            Log10(Q)             Ln(Q)
 Total Bot       0.273248D-08         -8.563442        -19.718055
 Total V=0       0.209135D+15         14.320428         32.974003
 Vib (Bot)       0.138094D-21        -21.859824        -50.334105
 Vib (Bot)    1  0.224542D+01          0.351297          0.808892
 Vib (Bot)    2  0.124054D+01          0.093611          0.215546
 Vib (Bot)    3  0.667981D+00         -0.175236         -0.403496
 Vib (Bot)    4  0.587214D+00         -0.231204         -0.532366
 Vib (Bot)    5  0.295023D+00         -0.530144         -1.220703
 Vib (V=0)       0.105693D+02          1.024046          2.357953
 Vib (V=0)    1  0.280041D+01          0.447222          1.029767
 Vib (V=0)    2  0.183751D+01          0.264230          0.608412
 Vib (V=0)    3  0.133439D+01          0.125281          0.288471
 Vib (V=0)    4  0.127125D+01          0.104230          0.239997
 Vib (V=0)    5  0.108055D+01          0.033645          0.077470
 Electronic      0.100000D+01          0.000000          0.000000
 Translational   0.595622D+08          7.774971         17.902532
 Rotational      0.332209D+06          5.521411         12.713518
 ***** Axes restored to original set *****
 -------------------------------------------------------------------
 Center     Atomic                   Forces (Hartrees/Bohr)
 Number     Number              X              Y              Z
 -------------------------------------------------------------------
      1        6          -0.000134841    0.000044962   -0.000005453
      2        6          -0.000001948   -0.000119658   -0.000031491
      3       17           0.000034315    0.000025953   -0.000042104
      4       17           0.000032606    0.000009999    0.000026198
      5       17           0.000014968   -0.000033785   -0.000001855
      6        1           0.000019420    0.000025763    0.000017593
      7        1           0.000051779    0.000011042    0.000031184
      8        1          -0.000016298    0.000035725    0.000005928
 -------------------------------------------------------------------
 Cartesian Forces:  Max     0.000134841 RMS     0.000045227
 FormGI is forming the generalized inverse of G from B-inverse, IUseBI=4.

 GradGradGradGradGradGradGradGradGradGradGradGradGradGradGradGradGradGrad
 Berny optimization.
 Internal  Forces:  Max     0.000078088 RMS     0.000028599
 Search for a local minimum.
 Step number   1 out of a maximum of    2
 All quantities printed in internal units (Hartrees-Bohrs-Radians)
 Second derivative matrix not updated -- analytic derivatives used.
 ITU=  0
     Eigenvalues ---    0.00517   0.04830   0.05252   0.06281   0.08191
     Eigenvalues ---    0.13066   0.14153   0.14377   0.18170   0.19786
     Eigenvalues ---    0.22448   0.26117   0.26430   0.27923   0.34344
     Eigenvalues ---    0.35493   0.35751   0.36070
 Angle between quadratic step and forces=  39.60 degrees.
 Linear search not attempted -- first point.
 Iteration  1 RMS(Cart)=  0.00030467 RMS(Int)=  0.00000010
 Iteration  2 RMS(Cart)=  0.00000009 RMS(Int)=  0.00000003
 Variable       Old X    -DE/DX   Delta X   Delta X   Delta X     New X
                                 (Linear)    (Quad)   (Total)
    R1        2.87047   0.00008   0.00000   0.00029   0.00029   2.87077
    R2        3.35881  -0.00002   0.00000  -0.00027  -0.00027   3.35853
    R3        2.06251   0.00002   0.00000   0.00009   0.00009   2.06260
    R4        2.06254   0.00002   0.00000   0.00006   0.00006   2.06260
    R5        3.36143   0.00004   0.00000   0.00012   0.00012   3.36154
    R6        3.36171   0.00000   0.00000  -0.00016  -0.00016   3.36154
    R7        2.06027  -0.00002   0.00000  -0.00004  -0.00004   2.06023
    A1        1.98641  -0.00001   0.00000   0.00005   0.00005   1.98646
    A2        1.89869   0.00000   0.00000  -0.00016  -0.00016   1.89852
    A3        1.89863  -0.00001   0.00000  -0.00011  -0.00011   1.89852
    A4        1.88207   0.00001   0.00000   0.00017   0.00017   1.88223
    A5        1.88164   0.00004   0.00000   0.00060   0.00060   1.88224
    A6        1.91580  -0.00003   0.00000  -0.00057  -0.00057   1.91523
    A7        1.95003   0.00001   0.00000   0.00006   0.00006   1.95009
    A8        1.95007  -0.00002   0.00000   0.00002   0.00002   1.95008
    A9        1.89362  -0.00004   0.00000  -0.00037  -0.00037   1.89324
   A10        1.94391   0.00004   0.00000   0.00039   0.00039   1.94430
   A11        1.86065  -0.00001   0.00000  -0.00022  -0.00022   1.86042
   A12        1.86032   0.00001   0.00000   0.00010   0.00010   1.86042
    D1        1.09552   0.00004   0.00000   0.00030   0.00030   1.09582
    D2       -1.09554  -0.00001   0.00000  -0.00027  -0.00027  -1.09581
    D3       -3.14142   0.00001   0.00000  -0.00017  -0.00017  -3.14159
    D4       -3.08896   0.00004   0.00000   0.00043   0.00043  -3.08852
    D5        1.00317  -0.00001   0.00000  -0.00014  -0.00014   1.00303
    D6       -1.04271   0.00001   0.00000  -0.00004  -0.00004  -1.04275
    D7       -1.00260   0.00000   0.00000  -0.00042  -0.00042  -1.00302
    D8        3.08952  -0.00005   0.00000  -0.00099  -0.00099   3.08853
    D9        1.04364  -0.00003   0.00000  -0.00089  -0.00089   1.04276
         Item               Value     Threshold  Converged?
 Maximum Force            0.000078     0.000450     YES
 RMS     Force            0.000029     0.000300     YES
 Maximum Displacement     0.000783     0.001800     YES
 RMS     Displacement     0.000305     0.001200     YES
 Predicted change in Energy=-1.116020D-07
 Optimization completed.
    -- Stationary point found.
                           ----------------------------
                           !   Optimized Parameters   !
                           ! (Angstroms and Degrees)  !
 --------------------------                            --------------------------
 ! Name  Definition              Value          Derivative Info.                !
 --------------------------------------------------------------------------------
 ! R1    R(1,2)                  1.519          -DE/DX =    0.0001              !
 ! R2    R(1,5)                  1.7774         -DE/DX =    0.0                 !
 ! R3    R(1,6)                  1.0914         -DE/DX =    0.0                 !
 ! R4    R(1,7)                  1.0914         -DE/DX =    0.0                 !
 ! R5    R(2,3)                  1.7788         -DE/DX =    0.0                 !
 ! R6    R(2,4)                  1.7789         -DE/DX =    0.0                 !
 ! R7    R(2,8)                  1.0902         -DE/DX =    0.0                 !
 ! A1    A(2,1,5)              113.8128         -DE/DX =    0.0                 !
 ! A2    A(2,1,6)              108.7867         -DE/DX =    0.0                 !
 ! A3    A(2,1,7)              108.7834         -DE/DX =    0.0                 !
 ! A4    A(5,1,6)              107.8346         -DE/DX =    0.0                 !
 ! A5    A(5,1,7)              107.8102         -DE/DX =    0.0                 !
 ! A6    A(6,1,7)              109.7671         -DE/DX =    0.0                 !
 ! A7    A(1,2,3)              111.7283         -DE/DX =    0.0                 !
 ! A8    A(1,2,4)              111.7305         -DE/DX =    0.0                 !
 ! A9    A(1,2,8)              108.4962         -DE/DX =    0.0                 !
 ! A10   A(3,2,4)              111.3778         -DE/DX =    0.0                 !
 ! A11   A(3,2,8)              106.6072         -DE/DX =    0.0                 !
 ! A12   A(4,2,8)              106.5887         -DE/DX =    0.0                 !
 ! D1    D(5,1,2,3)             62.7688         -DE/DX =    0.0                 !
 ! D2    D(5,1,2,4)            -62.7698         -DE/DX =    0.0                 !
 ! D3    D(5,1,2,8)           -179.9899         -DE/DX =    0.0                 !
 ! D4    D(6,1,2,3)           -176.9842         -DE/DX =    0.0                 !
 ! D5    D(6,1,2,4)             57.4773         -DE/DX =    0.0                 !
 ! D6    D(6,1,2,8)            -59.7428         -DE/DX =    0.0                 !
 ! D7    D(7,1,2,3)            -57.445          -DE/DX =    0.0                 !
 ! D8    D(7,1,2,4)            177.0164         -DE/DX =   -0.0001              !
 ! D9    D(7,1,2,8)             59.7964         -DE/DX =    0.0                 !
 --------------------------------------------------------------------------------
 GradGradGradGradGradGradGradGradGradGradGradGradGradGradGradGradGradGrad

 1\1\GINC-KATANA2\Freq\RM062X\6-31+G(d)\C2H3Cl3\Z5358697\18-Mar-2025\0\
 \#N Geom=AllCheck Guess=TCheck SCRF=Check GenChk RM062X/6-31+G(d) Freq
 \\1,1,2-trichloroethane\\0,1\C,-0.1997883581,0.6221965968,0.4630715894
 \C,0.4181142756,-0.4890330924,-0.368008453\Cl,-0.0464868146,-0.3666381
 417,-2.0806861771\Cl,0.037720877,-2.0958588692,0.2938340419\Cl,-1.9764
 526348,0.5871895811,0.5005657721\H,0.1580534931,0.5333574283,1.4903421
 671\H,0.1064665076,1.5837888135,0.0473672275\H,1.5028726542,-0.3861023
 164,-0.3312861679\\Version=ES64L-G09RevD.01\State=1-A\HF=-1458.471335\
 RMSD=8.473e-10\RMSF=4.523e-05\ZeroPoint=0.0497511\Thermal=0.055408\Dip
 ole=0.9410962,0.5744432,0.384626\DipoleDeriv=0.7420833,-0.1573389,-0.1
 436187,-0.0010956,0.0019106,0.0588073,-0.0299705,0.0644244,-0.0307915,
 0.0297452,0.095098,0.1158783,-0.0591132,0.8539186,-0.3562775,0.0036631
 ,-0.361747,1.0823918,-0.0900573,0.0283334,-0.098692,0.0180226,-0.19797
 6,0.062059,-0.0197873,0.1107714,-0.6426073,-0.0846718,-0.0613262,0.040
 1602,0.0128492,-0.5528349,0.2260677,0.0077248,0.1796114,-0.2933968,-0.
 4731419,0.0881846,0.0773361,0.018938,-0.1338471,-0.0233138,0.0269171,-
 0.0257769,-0.1224874,-0.0634274,0.031251,-0.0071875,0.0252511,0.084584
 ,-0.0112193,-0.0292024,-0.0086421,-0.0136618,-0.0594778,0.0019975,0.03
 77003,-0.0207672,-0.0108021,0.0240982,0.0388878,0.0204693,0.0777845,-0
 .0010523,-0.0261994,-0.0215767,0.0059151,-0.044953,0.0197784,0.0017673
 ,0.0208895,-0.0572314\Polar=55.6986385,-2.5364145,57.2115801,-1.589483
 2,-4.0576727,60.0035617\PG=C01 [X(C2H3Cl3)]\NImag=0\\0.38941687,0.0212
 7365,0.53541438,0.02367610,-0.06029256,0.57255741,-0.09121310,0.043228
 71,0.03232616,0.54977877,0.04108475,-0.14318465,-0.05671119,0.00192779
 ,0.36371003,0.03076076,-0.05679048,-0.10976400,-0.00728516,0.04473723,
 0.33520226,0.00219767,-0.00002095,0.00521212,-0.04859332,-0.00139445,-
 0.03290831,0.04176718,-0.00597534,0.00237255,-0.01814654,0.00316543,-0
 .03167275,0.00673025,-0.00349462,0.03501194,-0.01154874,-0.00042336,-0
 .03536325,-0.03864068,-0.00690981,-0.13078636,0.05077313,-0.01050064,0
 .21171038,0.00223462,0.00603286,-0.00194747,-0.04537194,-0.02747952,0.
 00824180,0.00511832,0.00392822,-0.00069765,0.03722547,-0.01090286,-0.0
 3743452,0.01284567,-0.03216570,-0.12349946,0.02388686,0.00201338,-0.00
 900252,0.02135868,0.03929347,0.19169137,-0.00185837,-0.00569005,0.0044
 1834,0.01388159,0.03751517,-0.04200845,0.00173164,0.02548798,-0.024272
 82,-0.01593846,-0.06270320,0.05939781,-0.15839184,-0.00848431,-0.00180
 593,-0.03351791,-0.00014674,0.00103138,0.00132178,-0.00008961,0.000455
 96,0.00116690,0.00044381,-0.00024062,0.24037801,-0.00851079,-0.0332073
 3,0.00155875,0.01971488,0.00133186,0.00133018,0.00060374,0.00029355,-0
 .00006281,0.00330181,0.00015508,-0.00068289,0.00317938,0.02778585,-0.0
 0182924,0.00155627,-0.03374398,0.01548959,0.00203925,-0.00052532,0.003
 26550,-0.00060981,0.00021526,-0.00046261,-0.00001201,0.00051418,-0.005
 34256,0.00220172,0.02640266,-0.06990820,0.00774816,-0.08742258,0.00528
 657,-0.00148890,0.01059546,0.00020352,0.00211537,0.00330071,0.00001727
 ,0.00010431,-0.00015014,-0.02645305,0.00186015,-0.02174263,0.08582388,
 0.00784876,-0.05432086,0.02547792,-0.00707962,0.00012330,-0.02405755,0
 .00109818,-0.00164559,-0.00418331,-0.00017988,0.00011223,-0.00016428,-
 0.00085862,0.00174625,-0.00177714,-0.00991669,0.05291846,-0.08499859,0
 .02193717,-0.30574243,-0.00477530,0.00242627,-0.01691861,0.00107546,-0
 .00202140,-0.00124003,0.00001508,0.00071781,0.00136373,0.00360015,-0.0
 0014879,0.00590018,0.08749677,-0.02262890,0.32472377,-0.06191325,-0.06
 930967,0.02976934,0.00470632,0.00971848,-0.00499067,0.00002327,-0.0001
 8479,0.00013733,0.00011316,0.00371880,0.00105327,-0.02550017,-0.021274
 09,0.00981428,0.00467850,0.00903273,-0.00277416,0.07757977,-0.06714991
 ,-0.27313237,0.09544724,-0.00537554,-0.02151517,0.00956445,-0.00007365
 ,0.00140118,0.00030877,0.00139533,-0.00291633,-0.00158403,0.00207133,0
 .00433067,-0.00099073,0.00028126,0.00047875,-0.00012949,0.06850329,0.2
 9084812,0.02900270,0.09907330,-0.09487725,-0.00467979,-0.01765384,0.00
 529545,-0.00015445,-0.00058431,0.00006806,0.00084304,-0.00386676,0.000
 12105,-0.00051757,-0.00188543,0.00233678,0.00794208,0.02656275,-0.0083
 7846,-0.03235352,-0.10245264,0.09502164,-0.01242279,-0.00046845,0.0001
 9226,-0.34107539,-0.02222140,-0.00544525,-0.00203842,0.00053535,-0.003
 78006,-0.00050381,-0.00250521,0.00152109,0.00099629,0.00112492,0.00080
 766,0.00035150,0.00005514,0.00036059,0.00031240,0.00034790,-0.00008248
 ,0.35438021,0.02233175,0.00349281,-0.00017929,-0.02341594,-0.04529315,
 -0.00540094,0.00126837,0.00324164,0.00041248,-0.02629228,-0.01910584,0
 .00782132,0.00388476,-0.00243594,-0.00240753,-0.00070365,0.00058745,-0
 .00015268,-0.00020475,0.00050515,0.00080693,0.02313175,0.05900788,0.01
 679539,0.00062972,0.00251515,-0.00631640,-0.00544307,-0.04049498,-0.02
 899508,-0.00035552,-0.02033124,0.00994626,0.00777295,0.00046616,0.0028
 1919,-0.00231073,-0.00109975,-0.00001966,0.00077050,0.00029185,-0.0006
 5587,-0.00016356,0.00041271,0.00642617,-0.00090029,0.05824011\\0.00013
 484,-0.00004496,0.00000545,0.00000195,0.00011966,0.00003149,-0.0000343
 2,-0.00002595,0.00004210,-0.00003261,-0.00001000,-0.00002620,-0.000014
 97,0.00003379,0.00000186,-0.00001942,-0.00002576,-0.00001759,-0.000051
 78,-0.00001104,-0.00003118,0.00001630,-0.00003572,-0.00000593\\\@


 MUD THROWN IS GROUND LOST -- FROM A TEA BAG
 Job cpu time:       0 days  0 hours  1 minutes  1.0 seconds.
 File lengths (MBytes):  RWF=    132 Int=      0 D2E=      0 Chk=      3 Scr=      2
 Normal termination of Gaussian 09 at Tue Mar 18 22:08:50 2025.
