 Entering Gaussian System, Link 0=g09
 Initial command:
 /apps/z_install_tree/linux-rocky8-ivybridge/gcc-12.2.0/gaussian-09-D.01-wczn3gur5lpur3omlkzwa2l5ecyxp5ef/g09/l1.exe "/srv/scratch/z5358697/gauss/Gau-2201558.inp" -scrdir="/srv/scratch/z5358697/gauss/"
 Entering Link 1 = /apps/z_install_tree/linux-rocky8-ivybridge/gcc-12.2.0/gaussian-09-D.01-wczn3gur5lpur3omlkzwa2l5ecyxp5ef/g09/l1.exe PID=   2201560.
  
 Copyright (c) 1988,1990,1992,1993,1995,1998,2003,2009,2013,
            Gaussian, Inc.  All Rights Reserved.
  
 This is part of the Gaussian(R) 09 program.  It is based on
 the Gaussian(R) 03 system (copyright 2003, Gaussian, Inc.),
 the Gaussian(R) 98 system (copyright 1998, Gaussian, Inc.),
 the Gaussian(R) 94 system (copyright 1995, Gaussian, Inc.),
 the Gaussian 92(TM) system (copyright 1992, Gaussian, Inc.),
 the Gaussian 90(TM) system (copyright 1990, Gaussian, Inc.),
 the Gaussian 88(TM) system (copyright 1988, Gaussian, Inc.),
 the Gaussian 86(TM) system (copyright 1986, Carnegie Mellon
 University), and the Gaussian 82(TM) system (copyright 1983,
 Carnegie Mellon University). Gaussian is a federally registered
 trademark of Gaussian, Inc.
  
 This software contains proprietary and confidential information,
 including trade secrets, belonging to Gaussian, Inc.
  
 This software is provided under written license and may be
 used, copied, transmitted, or stored only in accord with that
 written license.
  
 The following legend is applicable only to US Government
 contracts under FAR:
  
                    RESTRICTED RIGHTS LEGEND
  
 Use, reproduction and disclosure by the US Government is
 subject to restrictions as set forth in subparagraphs (a)
 and (c) of the Commercial Computer Software - Restricted
 Rights clause in FAR 52.227-19.
  
 Gaussian, Inc.
 340 Quinnipiac St., Bldg. 40, Wallingford CT 06492
  
  
 ---------------------------------------------------------------
 Warning -- This program may not be used in any manner that
 competes with the business of Gaussian, Inc. or will provide
 assistance to any competitor of Gaussian, Inc.  The licensee
 of this program is prohibited from giving any competitor of
 Gaussian, Inc. access to this program.  By using this program,
 the user acknowledges that Gaussian, Inc. is engaged in the
 business of creating and licensing software in the field of
 computational chemistry and represents and warrants to the
 licensee that it is not a competitor of Gaussian, Inc. and that
 it will not use this program in any manner prohibited above.
 ---------------------------------------------------------------
  

 Cite this work as:
 Gaussian 09, Revision D.01,
 M. J. Frisch, G. W. Trucks, H. B. Schlegel, G. E. Scuseria, 
 M. A. Robb, J. R. Cheeseman, G. Scalmani, V. Barone, B. Mennucci, 
 G. A. Petersson, H. Nakatsuji, M. Caricato, X. Li, H. P. Hratchian, 
 A. F. Izmaylov, J. Bloino, G. Zheng, J. L. Sonnenberg, M. Hada, 
 M. Ehara, K. Toyota, R. Fukuda, J. Hasegawa, M. Ishida, T. Nakajima, 
 Y. Honda, O. Kitao, H. Nakai, T. Vreven, J. A. Montgomery, Jr., 
 J. E. Peralta, F. Ogliaro, M. Bearpark, J. J. Heyd, E. Brothers, 
 K. N. Kudin, V. N. Staroverov, T. Keith, R. Kobayashi, J. Normand, 
 K. Raghavachari, A. Rendell, J. C. Burant, S. S. Iyengar, J. Tomasi, 
 M. Cossi, N. Rega, J. M. Millam, M. Klene, J. E. Knox, J. B. Cross, 
 V. Bakken, C. Adamo, J. Jaramillo, R. Gomperts, R. E. Stratmann, 
 O. Yazyev, A. J. Austin, R. Cammi, C. Pomelli, J. W. Ochterski, 
 R. L. Martin, K. Morokuma, V. G. Zakrzewski, G. A. Voth, 
 P. Salvador, J. J. Dannenberg, S. Dapprich, A. D. Daniels, 
 O. Farkas, J. B. Foresman, J. V. Ortiz, J. Cioslowski, 
 and D. J. Fox, Gaussian, Inc., Wallingford CT, 2013.
 
 ******************************************
 Gaussian 09:  ES64L-G09RevD.01 24-Apr-2013
                17-Mar-2025 
 ******************************************
 ---------------------------------
 #m062X/6-31+G(d) OPT Freq=noraman
 ---------------------------------
 1/14=-1,18=20,19=15,26=3,38=1/1,3;
 2/9=110,12=2,17=6,18=5,40=1/2;
 3/5=1,6=6,7=11,11=2,16=1,25=1,30=1,71=1,74=-55/1,2,3;
 4//1;
 5/5=2,38=5/2;
 6/7=2,8=2,9=2,10=2,28=1/1;
 7//1,2,3,16;
 1/14=-1,18=20,19=15,26=3/3(2);
 2/9=110/2;
 99//99;
 2/9=110/2;
 3/5=1,6=6,7=11,11=2,16=1,25=1,30=1,71=1,74=-55/1,2,3;
 4/5=5,16=3,69=1/1;
 5/5=2,38=5/2;
 7//1,2,3,16;
 1/14=-1,18=20,19=15,26=3/3(-5);
 2/9=110/2;
 6/7=2,8=2,9=2,10=2,19=2,28=1/1;
 99/9=1/99;
 -------------------
 2-methylpropan-2-ol
 -------------------
 Symbolic Z-matrix:
 Charge =  0 Multiplicity = 1
 C                    -0.4645   -0.0646    0.9894 
 C                     0.5609   -0.3988    2.0719 
 C                     1.6273    0.691     2.1567 
 C                     1.2036   -1.7604    1.8118 
 O                    -0.1082   -0.4451    3.3327 
 H                    -1.2317   -0.8445    0.9253 
 H                    -0.9578    0.8935    1.183 
 H                     0.0103   -0.0162    0.0027 
 H                     2.3651    0.4554    2.9322 
 H                     1.1816    1.6524    2.4367 
 H                     2.1531    0.8168    1.2047 
 H                     1.9391   -2.0003    2.5882 
 H                     0.4566   -2.5604    1.7845 
 H                     1.7476   -1.7592    0.8603 
 H                    -0.7827   -1.1368    3.2589 
 

 GradGradGradGradGradGradGradGradGradGradGradGradGradGradGradGradGradGrad
 Berny optimization.
 Initialization pass.
                           ----------------------------
                           !    Initial Parameters    !
                           ! (Angstroms and Degrees)  !
 --------------------------                            --------------------------
 ! Name  Definition              Value          Derivative Info.                !
 --------------------------------------------------------------------------------
 ! R1    R(1,2)                  1.5281         estimate D2E/DX2                !
 ! R2    R(1,6)                  1.0959         estimate D2E/DX2                !
 ! R3    R(1,7)                  1.0949         estimate D2E/DX2                !
 ! R4    R(1,8)                  1.0961         estimate D2E/DX2                !
 ! R5    R(2,3)                  1.5271         estimate D2E/DX2                !
 ! R6    R(2,4)                  1.528          estimate D2E/DX2                !
 ! R7    R(2,5)                  1.4281         estimate D2E/DX2                !
 ! R8    R(3,9)                  1.096          estimate D2E/DX2                !
 ! R9    R(3,10)                 1.0961         estimate D2E/DX2                !
 ! R10   R(3,11)                 1.0948         estimate D2E/DX2                !
 ! R11   R(4,12)                 1.096          estimate D2E/DX2                !
 ! R12   R(4,13)                 1.0949         estimate D2E/DX2                !
 ! R13   R(4,14)                 1.096          estimate D2E/DX2                !
 ! R14   R(5,15)                 0.9689         estimate D2E/DX2                !
 ! A1    A(2,1,6)              110.8287         estimate D2E/DX2                !
 ! A2    A(2,1,7)              111.6208         estimate D2E/DX2                !
 ! A3    A(2,1,8)              110.8978         estimate D2E/DX2                !
 ! A4    A(6,1,7)              108.5226         estimate D2E/DX2                !
 ! A5    A(6,1,8)              106.3817         estimate D2E/DX2                !
 ! A6    A(7,1,8)              108.4036         estimate D2E/DX2                !
 ! A7    A(1,2,3)              110.6013         estimate D2E/DX2                !
 ! A8    A(1,2,4)              110.8895         estimate D2E/DX2                !
 ! A9    A(1,2,5)              108.549          estimate D2E/DX2                !
 ! A10   A(3,2,4)              110.5889         estimate D2E/DX2                !
 ! A11   A(3,2,5)              107.5351         estimate D2E/DX2                !
 ! A12   A(4,2,5)              108.5703         estimate D2E/DX2                !
 ! A13   A(2,3,9)              110.8527         estimate D2E/DX2                !
 ! A14   A(2,3,10)             110.8661         estimate D2E/DX2                !
 ! A15   A(2,3,11)             111.6597         estimate D2E/DX2                !
 ! A16   A(9,3,10)             106.3516         estimate D2E/DX2                !
 ! A17   A(9,3,11)             108.4616         estimate D2E/DX2                !
 ! A18   A(10,3,11)            108.4602         estimate D2E/DX2                !
 ! A19   A(2,4,12)             110.8992         estimate D2E/DX2                !
 ! A20   A(2,4,13)             111.6161         estimate D2E/DX2                !
 ! A21   A(2,4,14)             110.8287         estimate D2E/DX2                !
 ! A22   A(12,4,13)            108.3952         estimate D2E/DX2                !
 ! A23   A(12,4,14)            106.3873         estimate D2E/DX2                !
 ! A24   A(13,4,14)            108.5292         estimate D2E/DX2                !
 ! A25   A(2,5,15)             106.3827         estimate D2E/DX2                !
 ! D1    D(6,1,2,3)            179.9963         estimate D2E/DX2                !
 ! D2    D(6,1,2,4)             56.932          estimate D2E/DX2                !
 ! D3    D(6,1,2,5)            -62.2519         estimate D2E/DX2                !
 ! D4    D(7,1,2,3)            -58.9125         estimate D2E/DX2                !
 ! D5    D(7,1,2,4)            178.0233         estimate D2E/DX2                !
 ! D6    D(7,1,2,5)             58.8393         estimate D2E/DX2                !
 ! D7    D(8,1,2,3)             62.0748         estimate D2E/DX2                !
 ! D8    D(8,1,2,4)            -60.9894         estimate D2E/DX2                !
 ! D9    D(8,1,2,5)            179.8266         estimate D2E/DX2                !
 ! D10   D(1,2,3,9)            179.9948         estimate D2E/DX2                !
 ! D11   D(1,2,3,10)            62.1155         estimate D2E/DX2                !
 ! D12   D(1,2,3,11)           -58.9487         estimate D2E/DX2                !
 ! D13   D(4,2,3,9)            -56.7667         estimate D2E/DX2                !
 ! D14   D(4,2,3,10)          -174.646          estimate D2E/DX2                !
 ! D15   D(4,2,3,11)            64.2898         estimate D2E/DX2                !
 ! D16   D(5,2,3,9)             61.6234         estimate D2E/DX2                !
 ! D17   D(5,2,3,10)           -56.2559         estimate D2E/DX2                !
 ! D18   D(5,2,3,11)          -177.32           estimate D2E/DX2                !
 ! D19   D(1,2,4,12)          -179.9972         estimate D2E/DX2                !
 ! D20   D(1,2,4,13)           -59.0227         estimate D2E/DX2                !
 ! D21   D(1,2,4,14)            62.0735         estimate D2E/DX2                !
 ! D22   D(3,2,4,12)            56.9315         estimate D2E/DX2                !
 ! D23   D(3,2,4,13)           177.9059         estimate D2E/DX2                !
 ! D24   D(3,2,4,14)           -60.9978         estimate D2E/DX2                !
 ! D25   D(5,2,4,12)           -60.826          estimate D2E/DX2                !
 ! D26   D(5,2,4,13)            60.1484         estimate D2E/DX2                !
 ! D27   D(5,2,4,14)          -178.7553         estimate D2E/DX2                !
 ! D28   D(1,2,5,15)            60.007          estimate D2E/DX2                !
 ! D29   D(3,2,5,15)           179.6934         estimate D2E/DX2                !
 ! D30   D(4,2,5,15)           -60.6231         estimate D2E/DX2                !
 --------------------------------------------------------------------------------
 Trust Radius=3.00D-01 FncErr=1.00D-07 GrdErr=1.00D-06
 Number of steps in this run=     79 maximum allowed number of steps=    100.
 GradGradGradGradGradGradGradGradGradGradGradGradGradGradGradGradGradGrad

                          Input orientation:                          
 ---------------------------------------------------------------------
 Center     Atomic      Atomic             Coordinates (Angstroms)
 Number     Number       Type             X           Y           Z
 ---------------------------------------------------------------------
      1          6           0       -0.464500   -0.064600    0.989400
      2          6           0        0.560900   -0.398800    2.071900
      3          6           0        1.627300    0.691000    2.156700
      4          6           0        1.203600   -1.760400    1.811800
      5          8           0       -0.108200   -0.445100    3.332700
      6          1           0       -1.231700   -0.844500    0.925300
      7          1           0       -0.957800    0.893500    1.183000
      8          1           0        0.010300   -0.016200    0.002700
      9          1           0        2.365100    0.455400    2.932200
     10          1           0        1.181600    1.652400    2.436700
     11          1           0        2.153100    0.816800    1.204700
     12          1           0        1.939100   -2.000300    2.588200
     13          1           0        0.456600   -2.560400    1.784500
     14          1           0        1.747600   -1.759200    0.860300
     15          1           0       -0.782700   -1.136800    3.258900
 ---------------------------------------------------------------------
                    Distance matrix (angstroms):
                    1          2          3          4          5
     1  C    0.000000
     2  C    1.528051   0.000000
     3  C    2.511802   1.527110   0.000000
     4  C    2.516870   1.527963   2.511541   0.000000
     5  O    2.400580   1.428095   2.384462   2.400827   0.000000
     6  H    1.095878   2.174110   3.471021   2.748716   2.686512
     7  H    1.094889   2.183262   2.769809   3.479975   2.671120
     8  H    1.096063   2.175116   2.784697   2.781913   3.359598
     9  H    3.471528   2.173686   1.096018   2.741195   2.662426
    10  H    2.784315   2.173883   1.096056   3.469609   2.620287
    11  H    2.770388   2.182847   1.094804   2.812842   3.351754
    12  H    3.475685   2.175041   2.743448   1.096043   2.676633
    13  H    2.776621   2.183115   3.475726   1.094876   2.681495
    14  H    2.789574   2.174148   2.774636   1.096034   3.359109
    15  H    2.530117   1.938782   3.219285   2.535422   0.968940
                    6          7          8          9         10
     6  H    0.000000
     7  H    1.778222   0.000000
     8  H    1.754946   1.777042   0.000000
     9  H    4.319069   3.780648   3.788068   0.000000
    10  H    3.787196   2.593208   3.174984   1.754708   0.000000
    11  H    3.780853   3.111921   2.594279   1.777586   1.777601
    12  H    3.762324   4.329052   3.787048   2.516004   3.733494
    13  H    2.555953   3.780444   3.137985   3.748951   4.324196
    14  H    3.117231   3.802649   2.606096   3.094920   3.800580
    15  H    2.394312   2.908976   3.533756   3.542665   3.509149
                   11         12         13         14         15
    11  H    0.000000
    12  H    3.145778   0.000000
    13  H    3.823579   1.776922   0.000000
    14  H    2.630365   1.755118   1.778412   0.000000
    15  H    4.081080   2.933201   2.395069   3.541621   0.000000
 Stoichiometry    C4H10O
 Framework group  C1[X(C4H10O)]
 Deg. of freedom    39
 Full point group                 C1      NOp   1
 Largest Abelian subgroup         C1      NOp   1
 Largest concise Abelian subgroup C1      NOp   1
                         Standard orientation:                         
 ---------------------------------------------------------------------
 Center     Atomic      Atomic             Coordinates (Angstroms)
 Number     Number       Type             X           Y           Z
 ---------------------------------------------------------------------
      1          6           0        0.680737   -1.216906   -0.590614
      2          6           0       -0.012580   -0.001575    0.023572
      3          6           0       -1.524887   -0.091673   -0.168452
      4          6           0        0.528872    1.295336   -0.576029
      5          8           0        0.243086    0.005433    1.428577
      6          1           0        1.766479   -1.156013   -0.454947
      7          1           0        0.326343   -2.151820   -0.144383
      8          1           0        0.506325   -1.261585   -1.671788
      9          1           0       -2.026450    0.778247    0.270786
     10          1           0       -1.931417   -0.972448    0.341751
     11          1           0       -1.794977   -0.149285   -1.227852
     12          1           0        0.031708    2.167185   -0.135556
     13          1           0        1.607301    1.394668   -0.415158
     14          1           0        0.331976    1.338608   -1.653364
     15          1           0        1.205166    0.057885    1.531031
 ---------------------------------------------------------------------
 Rotational constants (GHZ):      4.7334016      4.6942003      4.4995780
 Standard basis: 6-31+G(d) (6D, 7F)
 There are   115 symmetry adapted cartesian basis functions of A   symmetry.
 There are   115 symmetry adapted basis functions of A   symmetry.
   115 basis functions,   200 primitive gaussians,   115 cartesian basis functions
    21 alpha electrons       21 beta electrons
       nuclear repulsion energy       199.5025633489 Hartrees.
 NAtoms=   15 NActive=   15 NUniq=   15 SFac= 1.00D+00 NAtFMM=   60 NAOKFM=F Big=F
 Integral buffers will be    131072 words long.
 Raffenetti 2 integral format.
 Two-electron integral symmetry is turned on.
 One-electron integrals computed using PRISM.
 NBasis=   115 RedAO= T EigKep=  5.59D-05  NBF=   115
 NBsUse=   115 1.00D-06 EigRej= -1.00D+00 NBFU=   115
 ExpMin= 4.38D-02 ExpMax= 5.48D+03 ExpMxC= 8.25D+02 IAcc=2 IRadAn=         4 AccDes= 0.00D+00
 Harris functional with IExCor= 1009 and IRadAn=       4 diagonalized for initial guess.
 HarFok:  IExCor= 1009 AccDes= 0.00D+00 IRadAn=         4 IDoV= 1 UseB2=F ITyADJ=14
 ICtDFT=  3500011 ScaDFX=  1.000000  1.000000  1.000000  1.000000
 FoFCou: FMM=F IPFlag=           0 FMFlag=      100000 FMFlg1=           0
         NFxFlg=           0 DoJE=T BraDBF=F KetDBF=T FulRan=T
         wScrn=  0.000000 ICntrl=     500 IOpCl=  0 I1Cent=   200000004 NGrid=           0
         NMat0=    1 NMatS0=      1 NMatT0=    0 NMatD0=    1 NMtDS0=    0 NMtDT0=    0
 Petite list used in FoFCou.
 Keep R1 ints in memory in canonical form, NReq=23244378.
 Requested convergence on RMS density matrix=1.00D-08 within 128 cycles.
 Requested convergence on MAX density matrix=1.00D-06.
 Requested convergence on             energy=1.00D-06.
 No special actions if energy rises.
 SCF Done:  E(RM062X) =  -233.559669732     A.U. after   11 cycles
            NFock= 11  Conv=0.78D-08     -V/T= 2.0089

 **********************************************************************

            Population analysis using the SCF density.

 **********************************************************************

 Orbital symmetries:
       Occupied  (A) (A) (A) (A) (A) (A) (A) (A) (A) (A) (A) (A)
                 (A) (A) (A) (A) (A) (A) (A) (A) (A)
       Virtual   (A) (A) (A) (A) (A) (A) (A) (A) (A) (A) (A) (A)
                 (A) (A) (A) (A) (A) (A) (A) (A) (A) (A) (A) (A)
                 (A) (A) (A) (A) (A) (A) (A) (A) (A) (A) (A) (A)
                 (A) (A) (A) (A) (A) (A) (A) (A) (A) (A) (A) (A)
                 (A) (A) (A) (A) (A) (A) (A) (A) (A) (A) (A) (A)
                 (A) (A) (A) (A) (A) (A) (A) (A) (A) (A) (A) (A)
                 (A) (A) (A) (A) (A) (A) (A) (A) (A) (A) (A) (A)
                 (A) (A) (A) (A) (A) (A) (A) (A) (A) (A)
 The electronic state is 1-A.
 Alpha  occ. eigenvalues --  -19.64013 -10.60663 -10.53867 -10.53857 -10.53513
 Alpha  occ. eigenvalues --   -1.14515  -0.89145  -0.78673  -0.78517  -0.65427
 Alpha  occ. eigenvalues --   -0.56696  -0.52947  -0.52203  -0.48282  -0.46769
 Alpha  occ. eigenvalues --   -0.44889  -0.43126  -0.42370  -0.41526  -0.38295
 Alpha  occ. eigenvalues --   -0.34162
 Alpha virt. eigenvalues --    0.01975   0.04119   0.04347   0.04977   0.06495
 Alpha virt. eigenvalues --    0.07360   0.07519   0.08359   0.08410   0.09610
 Alpha virt. eigenvalues --    0.11958   0.12527   0.13353   0.15586   0.15649
 Alpha virt. eigenvalues --    0.17493   0.22471   0.23483   0.23701   0.25407
 Alpha virt. eigenvalues --    0.26749   0.27843   0.28462   0.29039   0.30867
 Alpha virt. eigenvalues --    0.31181   0.31808   0.34642   0.35055   0.36880
 Alpha virt. eigenvalues --    0.37258   0.37780   0.41092   0.48433   0.65419
 Alpha virt. eigenvalues --    0.65937   0.70249   0.72786   0.74151   0.75141
 Alpha virt. eigenvalues --    0.80480   0.81243   0.83699   0.85136   0.85772
 Alpha virt. eigenvalues --    0.91670   1.01744   1.02087   1.04429   1.06745
 Alpha virt. eigenvalues --    1.06980   1.08097   1.11512   1.16891   1.19457
 Alpha virt. eigenvalues --    1.19976   1.21342   1.28616   1.30345   1.39659
 Alpha virt. eigenvalues --    1.45891   1.49701   1.51076   1.58979   1.65633
 Alpha virt. eigenvalues --    1.77756   1.79563   1.82142   1.87561   1.89134
 Alpha virt. eigenvalues --    1.93050   1.97472   1.98684   2.15671   2.17382
 Alpha virt. eigenvalues --    2.20755   2.29802   2.30058   2.30853   2.31279
 Alpha virt. eigenvalues --    2.32676   2.33851   2.44204   2.53149   2.65763
 Alpha virt. eigenvalues --    2.69991   2.76947   2.77849   2.98737   4.18583
 Alpha virt. eigenvalues --    4.31584   4.38113   4.40016   4.67867
          Condensed to atoms (all electrons):
               1          2          3          4          5          6
     1  C    5.668149   0.194665  -0.302696  -0.072163  -0.071302   0.371454
     2  C    0.194665   5.699632   0.214158   0.202099   0.201593  -0.012908
     3  C   -0.302696   0.214158   5.863316  -0.301299  -0.114195   0.018659
     4  C   -0.072163   0.202099  -0.301299   5.662490  -0.071033  -0.027353
     5  O   -0.071302   0.201593  -0.114195  -0.071033   8.479721  -0.010706
     6  H    0.371454  -0.012908   0.018659  -0.027353  -0.010706   0.513066
     7  H    0.395550  -0.040701  -0.018500   0.016328  -0.003784  -0.024977
     8  H    0.387548  -0.016907  -0.011709  -0.023086   0.007951  -0.030558
     9  H    0.012658  -0.036915   0.381662  -0.008980  -0.001239  -0.000123
    10  H   -0.010773  -0.030634   0.379487   0.012522  -0.002010  -0.000016
    11  H   -0.016684  -0.002262   0.375301  -0.018165   0.006305   0.000025
    12  H    0.017505  -0.045027  -0.018416   0.397101  -0.003916  -0.000006
    13  H   -0.025694  -0.013797   0.018336   0.372060  -0.010141   0.002163
    14  H   -0.026276  -0.013385  -0.009453   0.384904   0.007959   0.000174
    15  H   -0.052412   0.076085   0.038469  -0.053492   0.176624   0.003351
               7          8          9         10         11         12
     1  C    0.395550   0.387548   0.012658  -0.010773  -0.016684   0.017505
     2  C   -0.040701  -0.016907  -0.036915  -0.030634  -0.002262  -0.045027
     3  C   -0.018500  -0.011709   0.381662   0.379487   0.375301  -0.018416
     4  C    0.016328  -0.023086  -0.008980   0.012522  -0.018165   0.397101
     5  O   -0.003784   0.007951  -0.001239  -0.002010   0.006305  -0.003916
     6  H   -0.024977  -0.030558  -0.000123  -0.000016   0.000025  -0.000006
     7  H    0.472184  -0.026454   0.000013   0.001868   0.000023  -0.000113
     8  H   -0.026454   0.493324  -0.000011   0.000135   0.000442   0.000009
     9  H    0.000013  -0.000011   0.480547  -0.024960  -0.027660   0.002288
    10  H    0.001868   0.000135  -0.024960   0.475219  -0.027123   0.000023
    11  H    0.000023   0.000442  -0.027660  -0.027123   0.492411   0.000066
    12  H   -0.000113   0.000009   0.002288   0.000023   0.000066   0.477093
    13  H   -0.000014   0.000194   0.000025  -0.000120  -0.000002  -0.024713
    14  H    0.000020   0.000049   0.000064  -0.000024   0.000370  -0.029208
    15  H   -0.000509  -0.000073  -0.000135  -0.000121  -0.000225  -0.000451
              13         14         15
     1  C   -0.025694  -0.026276  -0.052412
     2  C   -0.013797  -0.013385   0.076085
     3  C    0.018336  -0.009453   0.038469
     4  C    0.372060   0.384904  -0.053492
     5  O   -0.010141   0.007959   0.176624
     6  H    0.002163   0.000174   0.003351
     7  H   -0.000014   0.000020  -0.000509
     8  H    0.000194   0.000049  -0.000073
     9  H    0.000025   0.000064  -0.000135
    10  H   -0.000120  -0.000024  -0.000121
    11  H   -0.000002   0.000370  -0.000225
    12  H   -0.024713  -0.029208  -0.000451
    13  H    0.507772  -0.027741   0.003336
    14  H   -0.027741   0.493066  -0.000078
    15  H    0.003336  -0.000078   0.345626
 Mulliken charges:
               1
     1  C   -0.469531
     2  C   -0.375695
     3  C   -0.513118
     4  C   -0.471934
     5  O   -0.591828
     6  H    0.197754
     7  H    0.229066
     8  H    0.219146
     9  H    0.222765
    10  H    0.226528
    11  H    0.217179
    12  H    0.227767
    13  H    0.198338
    14  H    0.219557
    15  H    0.464006
 Sum of Mulliken charges =   0.00000
 Mulliken charges with hydrogens summed into heavy atoms:
               1
     1  C    0.176435
     2  C   -0.375695
     3  C    0.153354
     4  C    0.173728
     5  O   -0.127822
 Electronic spatial extent (au):  <R**2>=            449.4528
 Charge=              0.0000 electrons
 Dipole moment (field-independent basis, Debye):
    X=              1.0464    Y=              0.0686    Z=             -1.4228  Tot=              1.7675
 Quadrupole moment (field-independent basis, Debye-Ang):
   XX=            -31.0584   YY=            -34.0291   ZZ=            -36.4590
   XY=              0.1622   XZ=              2.3980   YZ=              0.1109
 Traceless Quadrupole moment (field-independent basis, Debye-Ang):
   XX=              2.7904   YY=             -0.1802   ZZ=             -2.6102
   XY=              0.1622   XZ=              2.3980   YZ=              0.1109
 Octapole moment (field-independent basis, Debye-Ang**2):
  XXX=              5.5362  YYY=             -0.2503  ZZZ=             -0.6856  XYY=             -1.1349
  XXY=              0.4829  XXZ=              6.9563  XZZ=              3.6584  YZZ=              0.1478
  YYZ=              2.4097  XYZ=              0.2940
 Hexadecapole moment (field-independent basis, Debye-Ang**3):
 XXXX=           -216.4089 YYYY=           -218.8433 ZZZZ=           -176.5371 XXXY=              0.7706
 XXXZ=              7.8321 YYYX=             -0.2916 YYYZ=             -0.3208 ZZZX=             12.2932
 ZZZY=              0.6461 XXYY=            -74.1271 XXZZ=            -60.1306 YYZZ=            -68.8139
 XXYZ=              0.4308 YYXZ=             -0.0036 ZZXY=              0.5293
 N-N= 1.995025633489D+02 E-N=-9.418900942989D+02  KE= 2.314997584179D+02
 Calling FoFJK, ICntrl=      2127 FMM=F ISym2X=0 I1Cent= 0 IOpClX= 0 NMat=1 NMatS=1 NMatT=0.
 ***** Axes restored to original set *****
 -------------------------------------------------------------------
 Center     Atomic                   Forces (Hartrees/Bohr)
 Number     Number              X              Y              Z
 -------------------------------------------------------------------
      1        6           0.001749806   -0.000887490   -0.006403194
      2        6          -0.000809064   -0.000647695   -0.002049887
      3        6          -0.000563869    0.002442464    0.007408222
      4        6           0.007898730    0.000811101   -0.003163939
      5        8           0.002359494    0.002690615    0.001132016
      6        1          -0.001455882   -0.000603863    0.001574953
      7        1           0.001113160   -0.000553428    0.001819244
      8        1           0.000589752    0.000997317    0.000059063
      9        1          -0.000451717   -0.002274227   -0.000875825
     10        1          -0.002111932   -0.001067076   -0.001919701
     11        1          -0.001347358   -0.001775361   -0.000304796
     12        1          -0.002778031    0.001105676    0.001987878
     13        1          -0.001257244   -0.000271258   -0.000746101
     14        1          -0.002230576   -0.000731562   -0.001661118
     15        1          -0.000705268    0.000764788    0.003143187
 -------------------------------------------------------------------
 Cartesian Forces:  Max     0.007898730 RMS     0.002424073

 GradGradGradGradGradGradGradGradGradGradGradGradGradGradGradGradGradGrad
 Berny optimization.
 FormGI is forming the generalized inverse of G from B-inverse, IUseBI=4.
 Internal  Forces:  Max     0.006047847 RMS     0.001876095
 Search for a local minimum.
 Step number   1 out of a maximum of   79
 All quantities printed in internal units (Hartrees-Bohrs-Radians)
 Mixed Optimization -- RFO/linear search
 Second derivative matrix not updated -- first step.
 ITU=  0
     Eigenvalues ---    0.00395   0.00396   0.00407   0.01320   0.04437
     Eigenvalues ---    0.05424   0.05426   0.05428   0.05615   0.05615
     Eigenvalues ---    0.05624   0.06180   0.06379   0.16000   0.16000
     Eigenvalues ---    0.16000   0.16000   0.16000   0.16000   0.16000
     Eigenvalues ---    0.16000   0.16000   0.16000   0.16287   0.16339
     Eigenvalues ---    0.29604   0.29612   0.29692   0.34121   0.34122
     Eigenvalues ---    0.34124   0.34125   0.34126   0.34142   0.34254
     Eigenvalues ---    0.34255   0.34263   0.41264   0.53594
 RFO step:  Lambda=-2.03566977D-03 EMin= 3.94881327D-03
 Linear search not attempted -- first point.
 Iteration  1 RMS(Cart)=  0.03026760 RMS(Int)=  0.00064526
 Iteration  2 RMS(Cart)=  0.00067266 RMS(Int)=  0.00013694
 Iteration  3 RMS(Cart)=  0.00000018 RMS(Int)=  0.00013694
 Variable       Old X    -DE/DX   Delta X   Delta X   Delta X     New X
                                 (Linear)    (Quad)   (Total)
    R1        2.88760   0.00052   0.00000   0.00173   0.00173   2.88933
    R2        2.07091   0.00136   0.00000   0.00397   0.00397   2.07488
    R3        2.06904  -0.00066   0.00000  -0.00193  -0.00193   2.06711
    R4        2.07126   0.00024   0.00000   0.00070   0.00070   2.07196
    R5        2.88582  -0.00479   0.00000  -0.01602  -0.01602   2.86980
    R6        2.88743   0.00048   0.00000   0.00162   0.00162   2.88905
    R7        2.69871   0.00289   0.00000   0.00697   0.00697   2.70568
    R8        2.07117  -0.00044   0.00000  -0.00129  -0.00129   2.06989
    R9        2.07125  -0.00057   0.00000  -0.00165  -0.00165   2.06960
   R10        2.06888  -0.00058   0.00000  -0.00168  -0.00168   2.06720
   R11        2.07122  -0.00070   0.00000  -0.00203  -0.00203   2.06919
   R12        2.06902   0.00107   0.00000   0.00311   0.00311   2.07213
   R13        2.07120   0.00034   0.00000   0.00098   0.00098   2.07218
   R14        1.83103  -0.00030   0.00000  -0.00056  -0.00056   1.83047
    A1        1.93433  -0.00050   0.00000  -0.00187  -0.00202   1.93231
    A2        1.94815  -0.00314   0.00000  -0.02509  -0.02519   1.92296
    A3        1.93553   0.00056   0.00000   0.00784   0.00781   1.94334
    A4        1.89408   0.00101   0.00000  -0.00203  -0.00224   1.89184
    A5        1.85671   0.00125   0.00000   0.01894   0.01887   1.87558
    A6        1.89200   0.00108   0.00000   0.00425   0.00426   1.89626
    A7        1.93036   0.00119   0.00000  -0.00076  -0.00063   1.92973
    A8        1.93539  -0.00252   0.00000  -0.00286  -0.00318   1.93221
    A9        1.89454   0.00242   0.00000   0.02532   0.02498   1.91952
   A10        1.93014   0.00111   0.00000  -0.00119  -0.00106   1.92908
   A11        1.87684  -0.00470   0.00000  -0.04654  -0.04634   1.83050
   A12        1.89491   0.00249   0.00000   0.02583   0.02549   1.92040
   A13        1.93474  -0.00155   0.00000  -0.00660  -0.00666   1.92808
   A14        1.93498  -0.00215   0.00000  -0.01104  -0.01115   1.92383
   A15        1.94883  -0.00255   0.00000  -0.02107  -0.02128   1.92755
   A16        1.85619   0.00308   0.00000   0.02940   0.02943   1.88561
   A17        1.89301   0.00171   0.00000   0.00623   0.00607   1.89908
   A18        1.89299   0.00189   0.00000   0.00606   0.00582   1.89881
   A19        1.93556  -0.00291   0.00000  -0.01457  -0.01470   1.92086
   A20        1.94807  -0.00096   0.00000  -0.01359  -0.01371   1.93435
   A21        1.93432   0.00078   0.00000   0.00900   0.00901   1.94333
   A22        1.89185   0.00118   0.00000  -0.00058  -0.00083   1.89102
   A23        1.85681   0.00280   0.00000   0.03229   0.03230   1.88911
   A24        1.89419  -0.00067   0.00000  -0.01060  -0.01059   1.88360
   A25        1.85673   0.00605   0.00000   0.03732   0.03732   1.89405
    D1        3.14153   0.00230   0.00000   0.03099   0.03100  -3.11066
    D2        0.99365   0.00180   0.00000   0.03504   0.03499   1.02864
    D3       -1.08650  -0.00126   0.00000  -0.01073  -0.01081  -1.09731
    D4       -1.02822   0.00109   0.00000   0.00997   0.01008  -1.01814
    D5        3.10709   0.00059   0.00000   0.01402   0.01407   3.12116
    D6        1.02694  -0.00247   0.00000  -0.03175  -0.03173   0.99521
    D7        1.08341   0.00071   0.00000   0.00366   0.00368   1.08709
    D8       -1.06447   0.00021   0.00000   0.00771   0.00767  -1.05679
    D9        3.13857  -0.00285   0.00000  -0.03806  -0.03812   3.10045
   D10        3.14150   0.00136   0.00000  -0.00936  -0.00931   3.13219
   D11        1.08412  -0.00012   0.00000  -0.03475  -0.03458   1.04954
   D12       -1.02885   0.00071   0.00000  -0.02041  -0.02033  -1.04918
   D13       -0.99077  -0.00025   0.00000  -0.01437  -0.01452  -1.00529
   D14       -3.04815  -0.00173   0.00000  -0.03975  -0.03979  -3.08793
   D15        1.12207  -0.00090   0.00000  -0.02541  -0.02554   1.09653
   D16        1.07553   0.00058   0.00000  -0.01168  -0.01172   1.06381
   D17       -0.98185  -0.00090   0.00000  -0.03707  -0.03699  -1.01884
   D18       -3.09482  -0.00007   0.00000  -0.02272  -0.02274  -3.11756
   D19       -3.14154   0.00039   0.00000   0.02166   0.02160  -3.11994
   D20       -1.03014  -0.00077   0.00000   0.00158   0.00165  -1.02849
   D21        1.08339  -0.00174   0.00000  -0.01498  -0.01497   1.06841
   D22        0.99364  -0.00016   0.00000   0.02546   0.02534   1.01898
   D23        3.10504  -0.00132   0.00000   0.00537   0.00539   3.11043
   D24       -1.06461  -0.00229   0.00000  -0.01119  -0.01124  -1.07585
   D25       -1.06161   0.00341   0.00000   0.06713   0.06710  -0.99451
   D26        1.04979   0.00224   0.00000   0.04704   0.04715   1.09694
   D27       -3.11987   0.00128   0.00000   0.03048   0.03053  -3.08934
   D28        1.04732  -0.00006   0.00000   0.01515   0.01560   1.06292
   D29        3.13624   0.00005   0.00000   0.00194   0.00195   3.13819
   D30       -1.05807   0.00010   0.00000  -0.01152  -0.01197  -1.07004
         Item               Value     Threshold  Converged?
 Maximum Force            0.006048     0.000450     NO 
 RMS     Force            0.001876     0.000300     NO 
 Maximum Displacement     0.145282     0.001800     NO 
 RMS     Displacement     0.030329     0.001200     NO 
 Predicted change in Energy=-1.053078D-03
 GradGradGradGradGradGradGradGradGradGradGradGradGradGradGradGradGradGrad

                          Input orientation:                          
 ---------------------------------------------------------------------
 Center     Atomic      Atomic             Coordinates (Angstroms)
 Number     Number       Type             X           Y           Z
 ---------------------------------------------------------------------
      1          6           0       -0.457254   -0.070068    0.973781
      2          6           0        0.560326   -0.406626    2.064196
      3          6           0        1.612290    0.683800    2.167066
      4          6           0        1.216345   -1.760478    1.792134
      5          8           0       -0.080945   -0.420794    3.344264
      6          1           0       -1.236745   -0.841370    0.918609
      7          1           0       -0.936053    0.889872    1.187828
      8          1           0        0.018796   -0.012265   -0.012220
      9          1           0        2.334938    0.445812    2.955042
     10          1           0        1.142227    1.641161    2.415915
     11          1           0        2.146827    0.789657    1.218535
     12          1           0        1.926363   -2.000879    2.590280
     13          1           0        0.463696   -2.556695    1.748329
     14          1           0        1.759326   -1.756630    0.839462
     15          1           0       -0.769838   -1.101697    3.335780
 ---------------------------------------------------------------------
                    Distance matrix (angstroms):
                    1          2          3          4          5
     1  C    0.000000
     2  C    1.528968   0.000000
     3  C    2.505046   1.518631   0.000000
     4  C    2.515576   1.528821   2.504365   0.000000
     5  O    2.425656   1.431784   2.339438   2.426277   0.000000
     6  H    1.097979   2.175048   3.464359   2.761422   2.719661
     7  H    1.093869   2.165197   2.737777   3.467327   2.664446
     8  H    1.096431   2.181806   2.788013   2.783176   3.382725
     9  H    3.462349   2.160904   1.095338   2.733371   2.595957
    10  H    2.750707   2.157718   1.095183   3.459154   2.570923
    11  H    2.753229   2.159449   1.093913   2.774527   3.308608
    12  H    3.467381   2.164362   2.735920   1.094968   2.663540
    13  H    2.762496   2.175294   3.463440   1.096522   2.721344
    14  H    2.788505   2.181762   2.782059   1.096552   3.383059
    15  H    2.596345   1.967075   3.198191   2.600338   0.968645
                    6          7          8          9         10
     6  H    0.000000
     7  H    1.777665   0.000000
     8  H    1.769248   1.779241   0.000000
     9  H    4.308226   3.744278   3.791964   0.000000
    10  H    3.750252   2.528216   3.145116   1.772591   0.000000
    11  H    3.768125   3.084661   2.585799   1.780188   1.779887
    12  H    3.760877   4.303108   3.790304   2.507246   3.729575
    13  H    2.553874   3.761952   3.125954   3.738014   4.304424
    14  H    3.133753   3.793468   2.607224   3.107693   3.796182
    15  H    2.475578   2.933884   3.608034   3.489897   3.467768
                   11         12         13         14         15
    11  H    0.000000
    12  H    3.117271   0.000000
    13  H    3.783078   1.776853   0.000000
    14  H    2.603350   1.775647   1.773358   0.000000
    15  H    4.070243   2.938332   2.481658   3.613476   0.000000
 Stoichiometry    C4H10O
 Framework group  C1[X(C4H10O)]
 Deg. of freedom    39
 Full point group                 C1      NOp   1
 Largest Abelian subgroup         C1      NOp   1
 Largest concise Abelian subgroup C1      NOp   1
                         Standard orientation:                         
 ---------------------------------------------------------------------
 Center     Atomic      Atomic             Coordinates (Angstroms)
 Number     Number       Type             X           Y           Z
 ---------------------------------------------------------------------
      1          6           0        0.765692   -1.211735   -0.508234
      2          6           0       -0.003877   -0.000290    0.018935
      3          6           0       -1.468468   -0.086775   -0.373155
      4          6           0        0.613664    1.299221   -0.497985
      5          8           0       -0.005546   -0.006925    1.450702
      6          1           0        1.818406   -1.167534   -0.199372
      7          1           0        0.329584   -2.135350   -0.116706
      8          1           0        0.745613   -1.251448   -1.603763
      9          1           0       -2.020161    0.776932    0.013383
     10          1           0       -1.919737   -0.992518    0.045667
     11          1           0       -1.571600   -0.112698   -1.461887
     12          1           0        0.068358    2.159775   -0.096682
     13          1           0        1.662981    1.381591   -0.190564
     14          1           0        0.577774    1.350345   -1.592757
     15          1           0        0.911089    0.043780    1.759704
 ---------------------------------------------------------------------
 Rotational constants (GHZ):      4.7155428      4.7016058      4.5323384
 Standard basis: 6-31+G(d) (6D, 7F)
 There are   115 symmetry adapted cartesian basis functions of A   symmetry.
 There are   115 symmetry adapted basis functions of A   symmetry.
   115 basis functions,   200 primitive gaussians,   115 cartesian basis functions
    21 alpha electrons       21 beta electrons
       nuclear repulsion energy       199.6142202478 Hartrees.
 NAtoms=   15 NActive=   15 NUniq=   15 SFac= 1.00D+00 NAtFMM=   60 NAOKFM=F Big=F
 Integral buffers will be    131072 words long.
 Raffenetti 2 integral format.
 Two-electron integral symmetry is turned on.
 One-electron integrals computed using PRISM.
 NBasis=   115 RedAO= T EigKep=  5.46D-05  NBF=   115
 NBsUse=   115 1.00D-06 EigRej= -1.00D+00 NBFU=   115
 Initial guess from the checkpoint file:  "/srv/scratch/z5358697/gauss/Gau-2201560.chk"
 B after Tr=     0.000000    0.000000    0.000000
         Rot=    0.997143   -0.004247    0.075407    0.001094 Ang=  -8.66 deg.
 ExpMin= 4.38D-02 ExpMax= 5.48D+03 ExpMxC= 8.25D+02 IAcc=2 IRadAn=         4 AccDes= 0.00D+00
 Harris functional with IExCor= 1009 and IRadAn=       4 diagonalized for initial guess.
 HarFok:  IExCor= 1009 AccDes= 0.00D+00 IRadAn=         4 IDoV= 1 UseB2=F ITyADJ=14
 ICtDFT=  3500011 ScaDFX=  1.000000  1.000000  1.000000  1.000000
 FoFCou: FMM=F IPFlag=           0 FMFlag=      100000 FMFlg1=           0
         NFxFlg=           0 DoJE=T BraDBF=F KetDBF=T FulRan=T
         wScrn=  0.000000 ICntrl=     500 IOpCl=  0 I1Cent=   200000004 NGrid=           0
         NMat0=    1 NMatS0=      1 NMatT0=    0 NMatD0=    1 NMtDS0=    0 NMtDT0=    0
 Petite list used in FoFCou.
 Keep R1 ints in memory in canonical form, NReq=23244378.
 Requested convergence on RMS density matrix=1.00D-08 within 128 cycles.
 Requested convergence on MAX density matrix=1.00D-06.
 Requested convergence on             energy=1.00D-06.
 No special actions if energy rises.
 SCF Done:  E(RM062X) =  -233.560598697     A.U. after   10 cycles
            NFock= 10  Conv=0.67D-08     -V/T= 2.0089
 Calling FoFJK, ICntrl=      2127 FMM=F ISym2X=0 I1Cent= 0 IOpClX= 0 NMat=1 NMatS=1 NMatT=0.
 ***** Axes restored to original set *****
 -------------------------------------------------------------------
 Center     Atomic                   Forces (Hartrees/Bohr)
 Number     Number              X              Y              Z
 -------------------------------------------------------------------
      1        6          -0.000971468   -0.000962853   -0.000269649
      2        6          -0.000038172   -0.000099292   -0.000134846
      3        6           0.001993124    0.002675354    0.001009853
      4        6           0.000980036   -0.000493414    0.000700112
      5        8           0.000130992   -0.000985994   -0.002189999
      6        1           0.000003784    0.000308182    0.000251075
      7        1          -0.000287600    0.000222781    0.000181168
      8        1           0.000282680    0.000013326    0.000983282
      9        1          -0.000489318   -0.000356174   -0.000438868
     10        1          -0.000147844   -0.000469498   -0.000471455
     11        1           0.000593491    0.000314251   -0.000292208
     12        1          -0.000528181   -0.000025476    0.000221140
     13        1          -0.000307441   -0.000429388   -0.000200732
     14        1          -0.001027452    0.000455817    0.000324786
     15        1          -0.000186631   -0.000167622    0.000326343
 -------------------------------------------------------------------
 Cartesian Forces:  Max     0.002675354 RMS     0.000770547

 GradGradGradGradGradGradGradGradGradGradGradGradGradGradGradGradGradGrad
 Berny optimization.
 Using GEDIIS/GDIIS optimizer.
 FormGI is forming the generalized inverse of G from B-inverse, IUseBI=4.
 Internal  Forces:  Max     0.002896802 RMS     0.000568876
 Search for a local minimum.
 Step number   2 out of a maximum of   79
 All quantities printed in internal units (Hartrees-Bohrs-Radians)
 Mixed Optimization -- En-DIIS/RFO-DIIS
 Update second derivatives using D2CorX and points    1    2
 DE= -9.29D-04 DEPred=-1.05D-03 R= 8.82D-01
 TightC=F SS=  1.41D+00  RLast= 1.74D-01 DXNew= 5.0454D-01 5.2216D-01
 Trust test= 8.82D-01 RLast= 1.74D-01 DXMaxT set to 5.05D-01
 ITU=  1  0
 Use linear search instead of GDIIS.
     Eigenvalues ---    0.00395   0.00397   0.00405   0.01320   0.04446
     Eigenvalues ---    0.05338   0.05545   0.05612   0.05635   0.05638
     Eigenvalues ---    0.05685   0.06668   0.06688   0.14468   0.16000
     Eigenvalues ---    0.16000   0.16000   0.16000   0.16000   0.16000
     Eigenvalues ---    0.16000   0.16000   0.16055   0.16240   0.17183
     Eigenvalues ---    0.29605   0.29612   0.31265   0.34050   0.34122
     Eigenvalues ---    0.34123   0.34125   0.34131   0.34210   0.34231
     Eigenvalues ---    0.34258   0.34575   0.41950   0.53605
 RFO step:  Lambda=-1.21571878D-04 EMin= 3.94825293D-03
 Quartic linear search produced a step of -0.06957.
 Iteration  1 RMS(Cart)=  0.00875464 RMS(Int)=  0.00005032
 Iteration  2 RMS(Cart)=  0.00005505 RMS(Int)=  0.00001003
 Iteration  3 RMS(Cart)=  0.00000000 RMS(Int)=  0.00001003
 Variable       Old X    -DE/DX   Delta X   Delta X   Delta X     New X
                                 (Linear)    (Quad)   (Total)
    R1        2.88933  -0.00026  -0.00012  -0.00060  -0.00072   2.88861
    R2        2.07488  -0.00024  -0.00028  -0.00014  -0.00041   2.07446
    R3        2.06711   0.00036   0.00013   0.00073   0.00087   2.06798
    R4        2.07196  -0.00076  -0.00005  -0.00198  -0.00203   2.06993
    R5        2.86980   0.00290   0.00111   0.00702   0.00813   2.87793
    R6        2.88905  -0.00013  -0.00011  -0.00021  -0.00032   2.88873
    R7        2.70568  -0.00163  -0.00048  -0.00277  -0.00325   2.70243
    R8        2.06989  -0.00056   0.00009  -0.00168  -0.00159   2.06830
    R9        2.06960  -0.00046   0.00011  -0.00148  -0.00136   2.06823
   R10        2.06720   0.00058   0.00012   0.00136   0.00148   2.06868
   R11        2.06919  -0.00018   0.00014  -0.00074  -0.00060   2.06859
   R12        2.07213   0.00054  -0.00022   0.00187   0.00165   2.07378
   R13        2.07218  -0.00080  -0.00007  -0.00205  -0.00212   2.07007
   R14        1.83047   0.00024   0.00004   0.00034   0.00038   1.83085
    A1        1.93231   0.00014   0.00014   0.00091   0.00106   1.93337
    A2        1.92296   0.00008   0.00175  -0.00320  -0.00144   1.92152
    A3        1.94334  -0.00091  -0.00054  -0.00421  -0.00475   1.93859
    A4        1.89184  -0.00014   0.00016  -0.00128  -0.00111   1.89072
    A5        1.87558   0.00051  -0.00131   0.00619   0.00489   1.88046
    A6        1.89626   0.00035  -0.00030   0.00189   0.00158   1.89784
    A7        1.92973   0.00009   0.00004   0.00484   0.00486   1.93459
    A8        1.93221   0.00021   0.00022   0.00047   0.00065   1.93287
    A9        1.91952  -0.00046  -0.00174  -0.00450  -0.00622   1.91330
   A10        1.92908   0.00025   0.00007   0.00572   0.00577   1.93485
   A11        1.83050   0.00048   0.00322  -0.00175   0.00149   1.83199
   A12        1.92040  -0.00057  -0.00177  -0.00499  -0.00676   1.91364
   A13        1.92808  -0.00070   0.00046  -0.00504  -0.00457   1.92351
   A14        1.92383  -0.00044   0.00078  -0.00385  -0.00307   1.92076
   A15        1.92755   0.00079   0.00148   0.00183   0.00333   1.93088
   A16        1.88561   0.00058  -0.00205   0.00714   0.00508   1.89069
   A17        1.89908  -0.00008  -0.00042   0.00002  -0.00038   1.89870
   A18        1.89881  -0.00015  -0.00041   0.00012  -0.00026   1.89855
   A19        1.92086  -0.00004   0.00102  -0.00087   0.00016   1.92102
   A20        1.93435   0.00020   0.00095  -0.00171  -0.00075   1.93360
   A21        1.94333  -0.00091  -0.00063  -0.00425  -0.00488   1.93845
   A22        1.89102  -0.00006   0.00006  -0.00031  -0.00024   1.89079
   A23        1.88911   0.00075  -0.00225   0.01057   0.00832   1.89743
   A24        1.88360   0.00010   0.00074  -0.00308  -0.00236   1.88124
   A25        1.89405   0.00059  -0.00260   0.00820   0.00560   1.89965
    D1       -3.11066   0.00010  -0.00216   0.00522   0.00307  -3.10759
    D2        1.02864  -0.00043  -0.00243  -0.00573  -0.00816   1.02048
    D3       -1.09731   0.00046   0.00075   0.00326   0.00401  -1.09329
    D4       -1.01814   0.00007  -0.00070   0.00213   0.00142  -1.01671
    D5        3.12116  -0.00046  -0.00098  -0.00881  -0.00980   3.11136
    D6        0.99521   0.00043   0.00221   0.00017   0.00237   0.99759
    D7        1.08709  -0.00003  -0.00026  -0.00041  -0.00066   1.08643
    D8       -1.05679  -0.00056  -0.00053  -0.01136  -0.01188  -1.06868
    D9        3.10045   0.00033   0.00265  -0.00237   0.00029   3.10073
   D10        3.13219  -0.00029   0.00065  -0.01912  -0.01848   3.11371
   D11        1.04954  -0.00030   0.00241  -0.02234  -0.01996   1.02958
   D12       -1.04918  -0.00033   0.00141  -0.02118  -0.01978  -1.06896
   D13       -1.00529   0.00021   0.00101  -0.01125  -0.01022  -1.01551
   D14       -3.08793   0.00020   0.00277  -0.01447  -0.01170  -3.09963
   D15        1.09653   0.00017   0.00178  -0.01331  -0.01152   1.08501
   D16        1.06381  -0.00006   0.00082  -0.01526  -0.01444   1.04937
   D17       -1.01884  -0.00007   0.00257  -0.01848  -0.01591  -1.03475
   D18       -3.11756  -0.00010   0.00158  -0.01732  -0.01573  -3.13329
   D19       -3.11994   0.00054  -0.00150   0.01824   0.01674  -3.10320
   D20       -1.02849   0.00056  -0.00011   0.01619   0.01607  -1.01242
   D21        1.06841   0.00022   0.00104   0.00832   0.00937   1.07778
   D22        1.01898   0.00011  -0.00176   0.00781   0.00605   1.02503
   D23        3.11043   0.00013  -0.00037   0.00576   0.00537   3.11581
   D24       -1.07585  -0.00021   0.00078  -0.00211  -0.00133  -1.07718
   D25       -0.99451  -0.00028  -0.00467   0.00954   0.00488  -0.98963
   D26        1.09694  -0.00026  -0.00328   0.00750   0.00421   1.10115
   D27       -3.08934  -0.00060  -0.00212  -0.00038  -0.00249  -3.09183
   D28        1.06292  -0.00014  -0.00109   0.00085  -0.00025   1.06267
   D29        3.13819   0.00000  -0.00014   0.00329   0.00316   3.14135
   D30       -1.07004   0.00028   0.00083   0.00652   0.00737  -1.06267
         Item               Value     Threshold  Converged?
 Maximum Force            0.002897     0.000450     NO 
 RMS     Force            0.000569     0.000300     NO 
 Maximum Displacement     0.035127     0.001800     NO 
 RMS     Displacement     0.008756     0.001200     NO 
 Predicted change in Energy=-6.717556D-05
 GradGradGradGradGradGradGradGradGradGradGradGradGradGradGradGradGradGrad

                          Input orientation:                          
 ---------------------------------------------------------------------
 Center     Atomic      Atomic             Coordinates (Angstroms)
 Number     Number       Type             X           Y           Z
 ---------------------------------------------------------------------
      1          6           0       -0.459895   -0.071919    0.975851
      2          6           0        0.564494   -0.405234    2.060336
      3          6           0        1.617516    0.689890    2.166045
      4          6           0        1.215347   -1.762070    1.791720
      5          8           0       -0.077702   -0.424601    3.337946
      6          1           0       -1.237652   -0.844897    0.924138
      7          1           0       -0.940996    0.886276    1.194841
      8          1           0        0.015294   -0.010095   -0.009128
      9          1           0        2.328798    0.454723    2.963975
     10          1           0        1.141299    1.647009    2.400539
     11          1           0        2.165416    0.790413    1.223675
     12          1           0        1.917656   -2.007305    2.594764
     13          1           0        0.457714   -2.554394    1.741813
     14          1           0        1.757577   -1.757126    0.839915
     15          1           0       -0.764564   -1.107869    3.332570
 ---------------------------------------------------------------------
                    Distance matrix (angstroms):
                    1          2          3          4          5
     1  C    0.000000
     2  C    1.528587   0.000000
     3  C    2.512479   1.522933   0.000000
     4  C    2.515689   1.528649   2.512761   0.000000
     5  O    2.418666   1.430062   2.342906   2.419010   0.000000
     6  H    1.097760   2.175311   3.471295   2.758824   2.710830
     7  H    1.094327   2.164158   2.743681   3.466961   2.656421
     8  H    1.095359   2.177254   2.790782   2.784349   3.373924
     9  H    3.465083   2.160755   1.094496   2.743743   2.589268
    10  H    2.747412   2.158737   1.094462   3.463808   2.579974
    11  H    2.774399   2.166224   1.094697   2.782171   3.313304
    12  H    3.466893   2.164091   2.747497   1.094649   2.653059
    13  H    2.755247   2.175258   3.471382   1.097395   2.714834
    14  H    2.788474   2.177265   2.786777   1.095432   3.374023
    15  H    2.592323   1.969434   3.204219   2.592729   0.968846
                    6          7          8          9         10
     6  H    0.000000
     7  H    1.777145   0.000000
     8  H    1.771371   1.779751   0.000000
     9  H    4.309237   3.742677   3.795747   0.000000
    10  H    3.748169   2.523564   3.133747   1.774588   0.000000
    11  H    3.787458   3.108025   2.604541   1.779896   1.779770
    12  H    3.754750   4.301683   3.793162   2.523279   3.740917
    13  H    2.542683   3.754168   3.120094   3.748256   4.307319
    14  H    3.132196   3.794185   2.609318   3.119327   3.795192
    15  H    2.468503   2.928758   3.602808   3.485175   3.477118
                   11         12         13         14         15
    11  H    0.000000
    12  H    3.125459   0.000000
    13  H    3.791101   1.777150   0.000000
    14  H    2.608364   1.779806   1.771637   0.000000
    15  H    4.078688   2.923636   2.473238   3.605004   0.000000
 Stoichiometry    C4H10O
 Framework group  C1[X(C4H10O)]
 Deg. of freedom    39
 Full point group                 C1      NOp   1
 Largest Abelian subgroup         C1      NOp   1
 Largest concise Abelian subgroup C1      NOp   1
                         Standard orientation:                         
 ---------------------------------------------------------------------
 Center     Atomic      Atomic             Coordinates (Angstroms)
 Number     Number       Type             X           Y           Z
 ---------------------------------------------------------------------
      1          6           0        0.678736   -1.260071   -0.513519
      2          6           0       -0.005745    0.000149    0.015544
      3          6           0       -1.485008    0.005972   -0.346499
      4          6           0        0.688697    1.255597   -0.512060
      5          8           0        0.024517   -0.001093    1.445286
      6          1           0        1.736987   -1.279803   -0.222331
      7          1           0        0.192750   -2.151501   -0.105203
      8          1           0        0.632547   -1.303794   -1.607030
      9          1           0       -1.970551    0.898096    0.061280
     10          1           0       -1.977641   -0.876435    0.073641
     11          1           0       -1.616152   -0.001180   -1.433288
     12          1           0        0.214559    2.150117   -0.095785
     13          1           0        1.748678    1.262847   -0.228048
     14          1           0        0.634759    1.305522   -1.605024
     15          1           0        0.947854   -0.005007    1.738708
 ---------------------------------------------------------------------
 Rotational constants (GHZ):      4.7278119      4.6987482      4.5201436
 Standard basis: 6-31+G(d) (6D, 7F)
 There are   115 symmetry adapted cartesian basis functions of A   symmetry.
 There are   115 symmetry adapted basis functions of A   symmetry.
   115 basis functions,   200 primitive gaussians,   115 cartesian basis functions
    21 alpha electrons       21 beta electrons
       nuclear repulsion energy       199.6025107058 Hartrees.
 NAtoms=   15 NActive=   15 NUniq=   15 SFac= 1.00D+00 NAtFMM=   60 NAOKFM=F Big=F
 Integral buffers will be    131072 words long.
 Raffenetti 2 integral format.
 Two-electron integral symmetry is turned on.
 One-electron integrals computed using PRISM.
 NBasis=   115 RedAO= T EigKep=  5.58D-05  NBF=   115
 NBsUse=   115 1.00D-06 EigRej= -1.00D+00 NBFU=   115
 Initial guess from the checkpoint file:  "/srv/scratch/z5358697/gauss/Gau-2201560.chk"
 B after Tr=     0.000000    0.000000    0.000000
         Rot=    0.999436    0.001769   -0.009424    0.032196 Ang=   3.85 deg.
 ExpMin= 4.38D-02 ExpMax= 5.48D+03 ExpMxC= 8.25D+02 IAcc=2 IRadAn=         4 AccDes= 0.00D+00
 Harris functional with IExCor= 1009 and IRadAn=       4 diagonalized for initial guess.
 HarFok:  IExCor= 1009 AccDes= 0.00D+00 IRadAn=         4 IDoV= 1 UseB2=F ITyADJ=14
 ICtDFT=  3500011 ScaDFX=  1.000000  1.000000  1.000000  1.000000
 FoFCou: FMM=F IPFlag=           0 FMFlag=      100000 FMFlg1=           0
         NFxFlg=           0 DoJE=T BraDBF=F KetDBF=T FulRan=T
         wScrn=  0.000000 ICntrl=     500 IOpCl=  0 I1Cent=   200000004 NGrid=           0
         NMat0=    1 NMatS0=      1 NMatT0=    0 NMatD0=    1 NMtDS0=    0 NMtDT0=    0
 Petite list used in FoFCou.
 Keep R1 ints in memory in canonical form, NReq=23244378.
 Requested convergence on RMS density matrix=1.00D-08 within 128 cycles.
 Requested convergence on MAX density matrix=1.00D-06.
 Requested convergence on             energy=1.00D-06.
 No special actions if energy rises.
 SCF Done:  E(RM062X) =  -233.560654605     A.U. after   10 cycles
            NFock= 10  Conv=0.47D-08     -V/T= 2.0089
 Calling FoFJK, ICntrl=      2127 FMM=F ISym2X=0 I1Cent= 0 IOpClX= 0 NMat=1 NMatS=1 NMatT=0.
 ***** Axes restored to original set *****
 -------------------------------------------------------------------
 Center     Atomic                   Forces (Hartrees/Bohr)
 Number     Number              X              Y              Z
 -------------------------------------------------------------------
      1        6          -0.000058123    0.000021952   -0.000201405
      2        6          -0.000601018   -0.000585577    0.000295654
      3        6           0.000242070    0.000341226   -0.000175579
      4        6           0.000391633    0.000033979    0.000077217
      5        8           0.000059669    0.000167388    0.000326715
      6        1           0.000241984    0.000118062    0.000096096
      7        1          -0.000056645    0.000042731   -0.000000679
      8        1          -0.000000307    0.000064861   -0.000056666
      9        1          -0.000194661   -0.000153468   -0.000008755
     10        1          -0.000040554   -0.000084724    0.000001487
     11        1           0.000038149   -0.000000972    0.000024728
     12        1          -0.000095997    0.000008590   -0.000119060
     13        1          -0.000047158    0.000082421   -0.000012001
     14        1           0.000000455   -0.000056044   -0.000008910
     15        1           0.000120502   -0.000000424   -0.000238840
 -------------------------------------------------------------------
 Cartesian Forces:  Max     0.000601018 RMS     0.000189423

 GradGradGradGradGradGradGradGradGradGradGradGradGradGradGradGradGradGrad
 Berny optimization.
 Using GEDIIS/GDIIS optimizer.
 FormGI is forming the generalized inverse of G from B-inverse, IUseBI=4.
 Internal  Forces:  Max     0.000444593 RMS     0.000099073
 Search for a local minimum.
 Step number   3 out of a maximum of   79
 All quantities printed in internal units (Hartrees-Bohrs-Radians)
 Mixed Optimization -- En-DIIS/RFO-DIIS
 Swapping is turned off.
 Update second derivatives using D2CorX and points    1    2    3
 DE= -5.59D-05 DEPred=-6.72D-05 R= 8.32D-01
 TightC=F SS=  1.41D+00  RLast= 6.20D-02 DXNew= 8.4853D-01 1.8614D-01
 Trust test= 8.32D-01 RLast= 6.20D-02 DXMaxT set to 5.05D-01
 ITU=  1  1  0
     Eigenvalues ---    0.00388   0.00398   0.00405   0.01319   0.04501
     Eigenvalues ---    0.05245   0.05576   0.05634   0.05641   0.05646
     Eigenvalues ---    0.05735   0.06649   0.06956   0.14283   0.15997
     Eigenvalues ---    0.16000   0.16000   0.16000   0.16000   0.16000
     Eigenvalues ---    0.16000   0.16099   0.16184   0.16636   0.17392
     Eigenvalues ---    0.29581   0.29610   0.30891   0.33793   0.34122
     Eigenvalues ---    0.34123   0.34125   0.34152   0.34215   0.34255
     Eigenvalues ---    0.34267   0.34597   0.41875   0.53650
 En-DIIS/RFO-DIIS IScMMF=        0 using points:     3    2
 RFO step:  Lambda=-1.70436678D-06.
 DidBck=F Rises=F RFO-DIIS coefs:    0.97376    0.02624
 Iteration  1 RMS(Cart)=  0.00204201 RMS(Int)=  0.00000338
 Iteration  2 RMS(Cart)=  0.00000344 RMS(Int)=  0.00000030
 Iteration  3 RMS(Cart)=  0.00000000 RMS(Int)=  0.00000030
 Variable       Old X    -DE/DX   Delta X   Delta X   Delta X     New X
                                 (Linear)    (Quad)   (Total)
    R1        2.88861   0.00008   0.00002   0.00022   0.00024   2.88885
    R2        2.07446  -0.00025   0.00001  -0.00076  -0.00075   2.07372
    R3        2.06798   0.00006  -0.00002   0.00024   0.00021   2.06819
    R4        2.06993   0.00005   0.00005   0.00000   0.00006   2.06999
    R5        2.87793   0.00010  -0.00021   0.00089   0.00068   2.87860
    R6        2.88873   0.00005   0.00001   0.00015   0.00016   2.88889
    R7        2.70243   0.00000   0.00009  -0.00022  -0.00013   2.70229
    R8        2.06830  -0.00011   0.00004  -0.00041  -0.00037   2.06793
    R9        2.06823  -0.00006   0.00004  -0.00026  -0.00023   2.06800
   R10        2.06868   0.00001  -0.00004   0.00013   0.00009   2.06877
   R11        2.06859  -0.00015   0.00002  -0.00047  -0.00045   2.06814
   R12        2.07378  -0.00002  -0.00004   0.00004   0.00000   2.07378
   R13        2.07007   0.00000   0.00006  -0.00014  -0.00008   2.06998
   R14        1.83085  -0.00010  -0.00001  -0.00015  -0.00016   1.83070
    A1        1.93337  -0.00021  -0.00003  -0.00134  -0.00137   1.93200
    A2        1.92152   0.00006   0.00004   0.00027   0.00030   1.92182
    A3        1.93859   0.00009   0.00012   0.00038   0.00050   1.93909
    A4        1.89072   0.00005   0.00003  -0.00005  -0.00002   1.89071
    A5        1.88046   0.00006  -0.00013   0.00068   0.00055   1.88102
    A6        1.89784  -0.00005  -0.00004   0.00009   0.00004   1.89789
    A7        1.93459  -0.00008  -0.00013  -0.00068  -0.00081   1.93377
    A8        1.93287   0.00008  -0.00002   0.00063   0.00061   1.93348
    A9        1.91330   0.00005   0.00016   0.00057   0.00074   1.91403
   A10        1.93485  -0.00006  -0.00015  -0.00057  -0.00072   1.93414
   A11        1.83199   0.00000  -0.00004  -0.00014  -0.00018   1.83181
   A12        1.91364   0.00001   0.00018   0.00017   0.00034   1.91398
   A13        1.92351  -0.00032   0.00012  -0.00253  -0.00241   1.92110
   A14        1.92076  -0.00005   0.00008  -0.00046  -0.00038   1.92038
   A15        1.93088   0.00011  -0.00009   0.00108   0.00099   1.93187
   A16        1.89069   0.00014  -0.00013   0.00083   0.00069   1.89139
   A17        1.89870   0.00010   0.00001   0.00047   0.00048   1.89918
   A18        1.89855   0.00003   0.00001   0.00066   0.00066   1.89921
   A19        1.92102   0.00005   0.00000   0.00043   0.00043   1.92145
   A20        1.93360  -0.00017   0.00002  -0.00127  -0.00125   1.93235
   A21        1.93845   0.00011   0.00013   0.00039   0.00052   1.93897
   A22        1.89079   0.00004   0.00001   0.00007   0.00007   1.89086
   A23        1.89743  -0.00004  -0.00022   0.00073   0.00051   1.89794
   A24        1.88124   0.00001   0.00006  -0.00034  -0.00027   1.88097
   A25        1.89965  -0.00044  -0.00015  -0.00233  -0.00248   1.89717
    D1       -3.10759  -0.00002  -0.00008  -0.00339  -0.00347  -3.11106
    D2        1.02048   0.00005   0.00021  -0.00262  -0.00241   1.01808
    D3       -1.09329  -0.00004  -0.00011  -0.00361  -0.00372  -1.09701
    D4       -1.01671  -0.00006  -0.00004  -0.00413  -0.00417  -1.02088
    D5        3.11136   0.00002   0.00026  -0.00337  -0.00311   3.10825
    D6        0.99759  -0.00007  -0.00006  -0.00436  -0.00442   0.99316
    D7        1.08643  -0.00002   0.00002  -0.00360  -0.00358   1.08285
    D8       -1.06868   0.00006   0.00031  -0.00284  -0.00253  -1.07120
    D9        3.10073  -0.00004  -0.00001  -0.00383  -0.00384   3.09689
   D10        3.11371  -0.00002   0.00048  -0.00386  -0.00337   3.11034
   D11        1.02958   0.00003   0.00052  -0.00300  -0.00248   1.02710
   D12       -1.06896  -0.00004   0.00052  -0.00422  -0.00370  -1.07266
   D13       -1.01551  -0.00002   0.00027  -0.00393  -0.00366  -1.01918
   D14       -3.09963   0.00004   0.00031  -0.00308  -0.00277  -3.10241
   D15        1.08501  -0.00003   0.00030  -0.00430  -0.00399   1.08102
   D16        1.04937  -0.00004   0.00038  -0.00410  -0.00373   1.04564
   D17       -1.03475   0.00002   0.00042  -0.00325  -0.00284  -1.03759
   D18       -3.13329  -0.00005   0.00041  -0.00447  -0.00405  -3.13735
   D19       -3.10320  -0.00004  -0.00044   0.00011  -0.00032  -3.10353
   D20       -1.01242  -0.00007  -0.00042  -0.00033  -0.00076  -1.01318
   D21        1.07778  -0.00010  -0.00025  -0.00134  -0.00159   1.07619
   D22        1.02503   0.00005  -0.00016   0.00095   0.00079   1.02581
   D23        3.11581   0.00002  -0.00014   0.00050   0.00036   3.11616
   D24       -1.07718  -0.00001   0.00003  -0.00051  -0.00047  -1.07765
   D25       -0.98963   0.00007  -0.00013   0.00135   0.00122  -0.98841
   D26        1.10115   0.00005  -0.00011   0.00090   0.00079   1.10194
   D27       -3.09183   0.00002   0.00007  -0.00011  -0.00004  -3.09188
   D28        1.06267   0.00007   0.00001   0.00098   0.00099   1.06365
   D29        3.14135   0.00000  -0.00008   0.00038   0.00030  -3.14154
   D30       -1.06267  -0.00006  -0.00019  -0.00028  -0.00047  -1.06314
         Item               Value     Threshold  Converged?
 Maximum Force            0.000445     0.000450     YES
 RMS     Force            0.000099     0.000300     YES
 Maximum Displacement     0.007269     0.001800     NO 
 RMS     Displacement     0.002042     0.001200     NO 
 Predicted change in Energy=-2.562974D-06
 GradGradGradGradGradGradGradGradGradGradGradGradGradGradGradGradGradGrad

                          Input orientation:                          
 ---------------------------------------------------------------------
 Center     Atomic      Atomic             Coordinates (Angstroms)
 Number     Number       Type             X           Y           Z
 ---------------------------------------------------------------------
      1          6           0       -0.460168   -0.071369    0.976006
      2          6           0        0.564133   -0.405407    2.060529
      3          6           0        1.617648    0.689837    2.165235
      4          6           0        1.215614   -1.762030    1.791887
      5          8           0       -0.076978   -0.424148    3.338614
      6          1           0       -1.235595   -0.846047    0.923130
      7          1           0       -0.943821    0.885217    1.196963
      8          1           0        0.015138   -0.006248   -0.008738
      9          1           0        2.325815    0.454456    2.965603
     10          1           0        1.141140    1.647351    2.396945
     11          1           0        2.168294    0.788038    1.224167
     12          1           0        1.917849   -2.007395    2.594630
     13          1           0        0.457367   -2.553797    1.742468
     14          1           0        1.757050   -1.757719    0.839677
     15          1           0       -0.763189   -1.107939    3.331885
 ---------------------------------------------------------------------
                    Distance matrix (angstroms):
                    1          2          3          4          5
     1  C    0.000000
     2  C    1.528714   0.000000
     3  C    2.512175   1.523291   0.000000
     4  C    2.516395   1.528733   2.512503   0.000000
     5  O    2.419340   1.429991   2.342977   2.419316   0.000000
     6  H    1.097365   2.174135   3.470269   2.757208   2.712003
     7  H    1.094439   2.164574   2.745332   3.467709   2.655659
     8  H    1.095389   2.177749   2.789038   2.786784   3.374595
     9  H    3.463624   2.159177   1.094300   2.742803   2.585439
    10  H    2.745406   2.158686   1.094341   3.463455   2.581020
    11  H    2.776504   2.167290   1.094743   2.780783   3.313839
    12  H    3.467435   2.164296   2.747647   1.094411   2.653209
    13  H    2.755320   2.174430   3.470757   1.097395   2.714519
    14  H    2.788982   2.177678   2.786946   1.095388   3.374427
    15  H    2.591615   1.967659   3.203351   2.591350   0.968762
                    6          7          8          9         10
     6  H    0.000000
     7  H    1.776905   0.000000
     8  H    1.771433   1.779895   0.000000
     9  H    4.306582   3.742213   3.794494   0.000000
    10  H    3.746737   2.523463   3.128831   1.774775   0.000000
    11  H    3.787786   3.113751   2.605192   1.780082   1.780132
    12  H    3.753246   4.302305   3.795053   2.522849   3.741594
    13  H    2.540443   3.753361   3.122867   3.746565   4.306453
    14  H    3.129543   3.795717   2.611842   3.120381   3.794592
    15  H    2.468574   2.926293   3.602677   3.480975   3.477385
                   11         12         13         14         15
    11  H    0.000000
    12  H    3.123354   0.000000
    13  H    3.789957   1.777004   0.000000
    14  H    2.607265   1.779903   1.771426   0.000000
    15  H    4.078088   2.922419   2.471136   3.603460   0.000000
 Stoichiometry    C4H10O
 Framework group  C1[X(C4H10O)]
 Deg. of freedom    39
 Full point group                 C1      NOp   1
 Largest Abelian subgroup         C1      NOp   1
 Largest concise Abelian subgroup C1      NOp   1
                         Standard orientation:                         
 ---------------------------------------------------------------------
 Center     Atomic      Atomic             Coordinates (Angstroms)
 Number     Number       Type             X           Y           Z
 ---------------------------------------------------------------------
      1          6           0        0.673508   -1.263700   -0.512337
      2          6           0       -0.005287    0.000113    0.015848
      3          6           0       -1.484660    0.011463   -0.347120
      4          6           0        0.693559    1.252615   -0.513186
      5          8           0        0.023911    0.000397    1.445541
      6          1           0        1.731918   -1.285099   -0.223341
      7          1           0        0.186188   -2.152842   -0.100339
      8          1           0        0.624398   -1.310182   -1.605637
      9          1           0       -1.965259    0.904702    0.063538
     10          1           0       -1.980066   -0.869993    0.071438
     11          1           0       -1.616271    0.007749   -1.433917
     12          1           0        0.223280    2.149302   -0.097825
     13          1           0        1.753412    1.255247   -0.228613
     14          1           0        0.640736    1.301608   -1.606202
     15          1           0        0.947656   -0.006616    1.737340
 ---------------------------------------------------------------------
 Rotational constants (GHZ):      4.7261969      4.6995375      4.5203084
 Standard basis: 6-31+G(d) (6D, 7F)
 There are   115 symmetry adapted cartesian basis functions of A   symmetry.
 There are   115 symmetry adapted basis functions of A   symmetry.
   115 basis functions,   200 primitive gaussians,   115 cartesian basis functions
    21 alpha electrons       21 beta electrons
       nuclear repulsion energy       199.6024089789 Hartrees.
 NAtoms=   15 NActive=   15 NUniq=   15 SFac= 1.00D+00 NAtFMM=   60 NAOKFM=F Big=F
 Integral buffers will be    131072 words long.
 Raffenetti 2 integral format.
 Two-electron integral symmetry is turned on.
 One-electron integrals computed using PRISM.
 NBasis=   115 RedAO= T EigKep=  5.58D-05  NBF=   115
 NBsUse=   115 1.00D-06 EigRej= -1.00D+00 NBFU=   115
 Initial guess from the checkpoint file:  "/srv/scratch/z5358697/gauss/Gau-2201560.chk"
 B after Tr=     0.000000    0.000000    0.000000
         Rot=    0.999998    0.000461    0.000047    0.001996 Ang=   0.23 deg.
 Keep R1 ints in memory in canonical form, NReq=23244378.
 Requested convergence on RMS density matrix=1.00D-08 within 128 cycles.
 Requested convergence on MAX density matrix=1.00D-06.
 Requested convergence on             energy=1.00D-06.
 No special actions if energy rises.
 SCF Done:  E(RM062X) =  -233.560657679     A.U. after    8 cycles
            NFock=  8  Conv=0.62D-08     -V/T= 2.0089
 Calling FoFJK, ICntrl=      2127 FMM=F ISym2X=0 I1Cent= 0 IOpClX= 0 NMat=1 NMatS=1 NMatT=0.
 ***** Axes restored to original set *****
 -------------------------------------------------------------------
 Center     Atomic                   Forces (Hartrees/Bohr)
 Number     Number              X              Y              Z
 -------------------------------------------------------------------
      1        6          -0.000008162   -0.000009519    0.000001351
      2        6          -0.000029421   -0.000018251    0.000014352
      3        6           0.000068168    0.000062707   -0.000083822
      4        6          -0.000012062    0.000044036   -0.000008353
      5        8           0.000018138    0.000009840    0.000011747
      6        1          -0.000017662   -0.000018724   -0.000038277
      7        1           0.000029818   -0.000012558    0.000011844
      8        1           0.000009284    0.000018836   -0.000007850
      9        1          -0.000002492   -0.000011571    0.000059704
     10        1           0.000000484    0.000010878    0.000029409
     11        1          -0.000033868   -0.000023758    0.000059656
     12        1           0.000005724    0.000006853   -0.000023064
     13        1          -0.000002030   -0.000017579   -0.000008348
     14        1           0.000016775   -0.000008129   -0.000007766
     15        1          -0.000042694   -0.000033062   -0.000010582
 -------------------------------------------------------------------
 Cartesian Forces:  Max     0.000083822 RMS     0.000029095

 GradGradGradGradGradGradGradGradGradGradGradGradGradGradGradGradGradGrad
 Berny optimization.
 Using GEDIIS/GDIIS optimizer.
 FormGI is forming the generalized inverse of G from B-inverse, IUseBI=4.
 Internal  Forces:  Max     0.000061871 RMS     0.000018464
 Search for a local minimum.
 Step number   4 out of a maximum of   79
 All quantities printed in internal units (Hartrees-Bohrs-Radians)
 Mixed Optimization -- En-DIIS/RFO-DIIS
 Swapping is turned off.
 Update second derivatives using D2CorX and points    1    2    3    4
 DE= -3.07D-06 DEPred=-2.56D-06 R= 1.20D+00
 TightC=F SS=  1.41D+00  RLast= 1.58D-02 DXNew= 8.4853D-01 4.7375D-02
 Trust test= 1.20D+00 RLast= 1.58D-02 DXMaxT set to 5.05D-01
 ITU=  1  1  1  0
     Eigenvalues ---    0.00342   0.00401   0.00409   0.01323   0.04505
     Eigenvalues ---    0.05259   0.05595   0.05619   0.05644   0.05661
     Eigenvalues ---    0.05727   0.06647   0.06983   0.14256   0.15643
     Eigenvalues ---    0.16000   0.16000   0.16000   0.16000   0.16000
     Eigenvalues ---    0.16001   0.16086   0.16253   0.17163   0.17949
     Eigenvalues ---    0.29491   0.29625   0.30664   0.33904   0.34107
     Eigenvalues ---    0.34123   0.34124   0.34172   0.34220   0.34251
     Eigenvalues ---    0.34521   0.35287   0.41913   0.53865
 En-DIIS/RFO-DIIS IScMMF=        0 using points:     4    3    2
 RFO step:  Lambda=-5.88714438D-08.
 DidBck=F Rises=F RFO-DIIS coefs:    1.03323   -0.03295   -0.00028
 Iteration  1 RMS(Cart)=  0.00097062 RMS(Int)=  0.00000066
 Iteration  2 RMS(Cart)=  0.00000067 RMS(Int)=  0.00000001
 Variable       Old X    -DE/DX   Delta X   Delta X   Delta X     New X
                                 (Linear)    (Quad)   (Total)
    R1        2.88885   0.00001   0.00001   0.00003   0.00004   2.88889
    R2        2.07372   0.00003  -0.00002   0.00008   0.00006   2.07378
    R3        2.06819  -0.00002   0.00001  -0.00006  -0.00005   2.06814
    R4        2.06999   0.00001   0.00000   0.00002   0.00002   2.07000
    R5        2.87860   0.00006   0.00002   0.00026   0.00028   2.87888
    R6        2.88889  -0.00001   0.00001  -0.00005  -0.00004   2.88885
    R7        2.70229   0.00002  -0.00001   0.00003   0.00003   2.70232
    R8        2.06793   0.00004  -0.00001   0.00010   0.00009   2.06802
    R9        2.06800   0.00001  -0.00001   0.00003   0.00002   2.06802
   R10        2.06877  -0.00006   0.00000  -0.00017  -0.00017   2.06860
   R11        2.06814  -0.00001  -0.00002  -0.00005  -0.00006   2.06807
   R12        2.07378   0.00002   0.00000   0.00006   0.00006   2.07383
   R13        2.06998   0.00001   0.00000   0.00002   0.00002   2.07000
   R14        1.83070   0.00004  -0.00001   0.00008   0.00007   1.83077
    A1        1.93200   0.00004  -0.00005   0.00026   0.00022   1.93221
    A2        1.92182  -0.00004   0.00001  -0.00030  -0.00029   1.92153
    A3        1.93909   0.00000   0.00002   0.00000   0.00001   1.93911
    A4        1.89071   0.00001   0.00000   0.00011   0.00011   1.89082
    A5        1.88102  -0.00002   0.00002  -0.00001   0.00001   1.88102
    A6        1.89789   0.00001   0.00000  -0.00006  -0.00005   1.89783
    A7        1.93377   0.00002  -0.00003   0.00011   0.00008   1.93386
    A8        1.93348  -0.00001   0.00002  -0.00011  -0.00009   1.93338
    A9        1.91403   0.00000   0.00002   0.00006   0.00008   1.91411
   A10        1.93414  -0.00002  -0.00002  -0.00016  -0.00018   1.93396
   A11        1.83181   0.00000  -0.00001   0.00004   0.00004   1.83184
   A12        1.91398   0.00001   0.00001   0.00008   0.00009   1.91407
   A13        1.92110  -0.00002  -0.00008  -0.00024  -0.00032   1.92078
   A14        1.92038   0.00002  -0.00001   0.00015   0.00014   1.92052
   A15        1.93187  -0.00003   0.00003  -0.00013  -0.00010   1.93177
   A16        1.89139  -0.00001   0.00002  -0.00009  -0.00007   1.89132
   A17        1.89918   0.00002   0.00002   0.00014   0.00015   1.89933
   A18        1.89921   0.00001   0.00002   0.00018   0.00020   1.89941
   A19        1.92145   0.00000   0.00001  -0.00004  -0.00003   1.92142
   A20        1.93235   0.00001  -0.00004   0.00006   0.00002   1.93237
   A21        1.93897   0.00002   0.00002   0.00012   0.00014   1.93911
   A22        1.89086   0.00000   0.00000   0.00001   0.00001   1.89087
   A23        1.89794  -0.00002   0.00002  -0.00012  -0.00010   1.89784
   A24        1.88097  -0.00001  -0.00001  -0.00004  -0.00005   1.88092
   A25        1.89717   0.00001  -0.00008   0.00001  -0.00007   1.89711
    D1       -3.11106  -0.00001  -0.00011  -0.00113  -0.00124  -3.11230
    D2        1.01808   0.00000  -0.00008  -0.00092  -0.00100   1.01707
    D3       -1.09701   0.00000  -0.00012  -0.00098  -0.00110  -1.09811
    D4       -1.02088   0.00000  -0.00014  -0.00101  -0.00115  -1.02203
    D5        3.10825   0.00001  -0.00011  -0.00080  -0.00091   3.10734
    D6        0.99316   0.00000  -0.00015  -0.00087  -0.00101   0.99215
[...]
 ! A5    A(6,1,8)              107.7714         -DE/DX =    0.0                 !
 ! A6    A(7,1,8)              108.7348         -DE/DX =    0.0                 !
 ! A7    A(1,2,3)              110.805          -DE/DX =    0.0                 !
 ! A8    A(1,2,4)              110.7778         -DE/DX =    0.0                 !
 ! A9    A(1,2,5)              109.6705         -DE/DX =    0.0                 !
 ! A10   A(3,2,4)              110.8003         -DE/DX =    0.0                 !
 ! A11   A(3,2,5)              104.956          -DE/DX =    0.0                 !
 ! A12   A(4,2,5)              109.6699         -DE/DX =    0.0                 !
 ! A13   A(2,3,9)              110.0431         -DE/DX =    0.0                 !
 ! A14   A(2,3,10)             110.0447         -DE/DX =    0.0                 !
 ! A15   A(2,3,11)             110.6759         -DE/DX =    0.0                 !
 ! A16   A(9,3,10)             108.3594         -DE/DX =    0.0                 !
 ! A17   A(9,3,11)             108.8319         -DE/DX =    0.0                 !
 ! A18   A(10,3,11)            108.8346         -DE/DX =    0.0                 !
 ! A19   A(2,4,12)             110.0931         -DE/DX =    0.0                 !
 ! A20   A(2,4,13)             110.7152         -DE/DX =    0.0                 !
 ! A21   A(2,4,14)             111.1044         -DE/DX =    0.0                 !
 ! A22   A(12,4,13)            108.3382         -DE/DX =    0.0                 !
 ! A23   A(12,4,14)            108.7345         -DE/DX =    0.0                 !
 ! A24   A(13,4,14)            107.7686         -DE/DX =    0.0                 !
 ! A25   A(2,5,15)             108.697          -DE/DX =    0.0                 !
 ! D1    D(6,1,2,3)           -178.3951         -DE/DX =    0.0                 !
 ! D2    D(6,1,2,4)             58.2054         -DE/DX =    0.0                 !
 ! D3    D(6,1,2,5)            -62.99           -DE/DX =    0.0                 !
 ! D4    D(7,1,2,3)            -58.6244         -DE/DX =    0.0                 !
 ! D5    D(7,1,2,4)            177.9761         -DE/DX =    0.0                 !
 ! D6    D(7,1,2,5)             56.7807         -DE/DX =    0.0                 !
 ! D7    D(8,1,2,3)             61.8883         -DE/DX =    0.0                 !
 ! D8    D(8,1,2,4)            -61.5113         -DE/DX =    0.0                 !
 ! D9    D(8,1,2,5)            177.2933         -DE/DX =    0.0                 !
 ! D10   D(1,2,3,9)            177.9899         -DE/DX =    0.0                 !
 ! D11   D(1,2,3,10)            58.6487         -DE/DX =    0.0                 !
 ! D12   D(1,2,3,11)           -61.6829         -DE/DX =    0.0                 !
 ! D13   D(4,2,3,9)            -58.6236         -DE/DX =    0.0                 !
 ! D14   D(4,2,3,10)          -177.9647         -DE/DX =    0.0                 !
 ! D15   D(4,2,3,11)            61.7037         -DE/DX =    0.0                 !
 ! D16   D(5,2,3,9)             59.6816         -DE/DX =    0.0                 !
 ! D17   D(5,2,3,10)           -59.6595         -DE/DX =    0.0                 !
 ! D18   D(5,2,3,11)           180.0089         -DE/DX =    0.0                 !
 ! D19   D(1,2,4,12)          -177.9766         -DE/DX =    0.0                 !
 ! D20   D(1,2,4,13)           -58.2072         -DE/DX =    0.0                 !
 ! D21   D(1,2,4,14)            61.5076         -DE/DX =    0.0                 !
 ! D22   D(3,2,4,12)            58.6212         -DE/DX =    0.0                 !
 ! D23   D(3,2,4,13)           178.3906         -DE/DX =    0.0                 !
 ! D24   D(3,2,4,14)           -61.8946         -DE/DX =    0.0                 !
 ! D25   D(5,2,4,12)           -56.7809         -DE/DX =    0.0                 !
 ! D26   D(5,2,4,13)            62.9886         -DE/DX =    0.0                 !
 ! D27   D(5,2,4,14)          -177.2967         -DE/DX =    0.0                 !
 ! D28   D(1,2,5,15)            60.919          -DE/DX =    0.0                 !
 ! D29   D(3,2,5,15)          -180.0085         -DE/DX =    0.0                 !
 ! D30   D(4,2,5,15)           -60.9417         -DE/DX =    0.0                 !
 --------------------------------------------------------------------------------
 GradGradGradGradGradGradGradGradGradGradGradGradGradGradGradGradGradGrad

 1\1\GINC-KATANA1\Freq\RM062X\6-31+G(d)\C4H10O1\Z5358697\17-Mar-2025\0\
 \#N Geom=AllCheck Guess=TCheck SCRF=Check GenChk RM062X/6-31+G(d) Freq
 \\2-methylpropan-2-ol\\0,1\C,-0.460400474,-0.071240335,0.9761664753\C,
 0.5640043597,-0.4054188959,2.0605673101\C,1.6179105176,0.6897025655,2.
 1652942256\C,1.2155428013,-1.7619120411,1.7915518651\O,-0.0768807059,-
 0.4242865293,3.3387565133\H,-1.2347468986,-0.8469344875,0.9213521674\H
 ,-0.9453333954,0.8842794745,1.1987288722\H,0.0152648499,-0.0035116661,
 -0.0082382302\H,2.3235872766,0.455570168,2.9683217176\H,1.1415432439,1
 .6481199908,2.3935961528\H,2.170995665,0.7849657944,1.2255088068\H,1.9
 199291196,-2.0061779357,2.5927152573\H,0.4575841702,-2.5541548608,1.74
 4758221\H,1.7546912524,-1.7583478996,0.8380210879\H,-0.7633917821,-1.1
 078533422,3.331899558\\Version=ES64L-G09RevD.01\State=1-A\HF=-233.5606
 575\RMSD=9.645e-10\RMSF=1.476e-05\ZeroPoint=0.1369012\Thermal=0.143668
 5\Dipole=-0.1109166,-0.3791923,-0.5586429\DipoleDeriv=-0.0182868,0.047
 14,-0.122966,0.0469331,0.0326305,0.031783,-0.039159,0.0359736,-0.05359
 55,0.4906988,-0.0545965,-0.1622313,-0.0403021,0.404178,-0.0472102,-0.1
 324617,-0.0177167,0.7022686,-0.0072843,-0.0433334,0.0024398,-0.0646841
 ,-0.0195706,0.0142956,-0.0418451,-0.0295511,0.0623271,0.007057,0.06905
 69,0.0134211,0.1075645,-0.0765938,-0.0639202,0.0089129,0.0105447,0.030
 1855,-0.6076563,0.1407795,0.233195,0.1244468,-0.4644467,0.1005294,0.19
 93918,0.0669804,-0.9070508,-0.0635984,-0.0932496,-0.0369268,-0.1426842
 ,-0.0659171,-0.0071496,0.0028199,0.026478,0.0423864,0.0184626,0.064035
 1,-0.0169893,0.0949406,-0.0876556,-0.0098859,0.0167203,-0.0524204,0.04
 65357,0.0118692,-0.004557,0.1080758,0.0039282,0.0710692,0.0081943,0.04
 29842,0.0205022,-0.1021484,-0.0311537,-0.0075704,-0.0857819,0.0340608,
 0.0411326,0.0533388,-0.1146346,0.0117499,-0.0289633,0.0144572,0.093329
 2,0.0204016,0.0300337,-0.1031563,-0.0334278,0.0041067,-0.0366116,0.069
 6382,0.0176285,-0.0246271,0.0585808,-0.0020908,0.0591524,-0.0201727,0.
 1053134,0.0261387,-0.0913652,-0.021138,0.0532611,-0.0799596,0.0252372,
 0.0339159,0.0003509,-0.1078527,0.0485721,-0.0353109,-0.0753182,-0.1421
 554,0.0007184,-0.0713556,-0.0765314,-0.016235,0.005448,-0.0056861,0.06
 47258,0.0195442,0.0207555,0.0798044,-0.0090228,0.0507797,0.0341703,0.1
 008573,-0.0218301,-0.089586,0.244718,-0.118268,-0.011782,-0.1370052,0.
 2010131,-0.0446609,-0.0506015,-0.0831236,0.2899528\Polar=53.0783313,0.
 6071098,53.2381792,0.4613839,-0.1172756,51.4956719\PG=C01 [X(C4H10O1)]
 \NImag=0\\0.54349305,0.01100048,0.58773629,-0.05178279,0.01906399,0.54
 164646,-0.14041637,0.01799019,-0.05285375,0.53944160,0.01960185,-0.087
 70043,0.01825329,0.02028945,0.54787692,-0.06386617,0.01696095,-0.12515
 700,0.01454483,0.00337862,0.50317831,-0.02191453,-0.01752658,-0.007739
 93,-0.13604753,-0.05971710,-0.00852366,0.55017108,0.00210155,0.0048936
 1,-0.00273154,-0.06430771,-0.14698944,-0.00678208,-0.04949934,0.543407
 46,-0.01995335,-0.01797078,-0.00163068,-0.01805662,-0.01621182,-0.0765
 0212,-0.00900183,-0.00696414,0.59976988,-0.01304698,0.02493902,-0.0010
 7505,-0.09946281,0.03945333,0.00237225,0.01112501,-0.02037622,-0.00501
 288,0.57105775,0.00726089,-0.01081148,0.00200438,0.04607219,-0.1778049
 3,-0.01609812,0.00703005,-0.03083192,-0.00489482,0.03718452,0.50672942
 ,-0.01248008,0.02211002,0.00634141,0.00175104,-0.00708998,-0.07604711,
 -0.00110327,-0.00414316,0.00105135,0.00983655,-0.01671935,0.59502897,0
 .00983715,-0.00071952,-0.01467698,-0.10609426,-0.00482645,0.07023596,-
 0.02217170,-0.00722171,0.03549196,-0.01303923,0.00071205,0.02705942,0.
 38278877,-0.00492928,0.00220230,0.00855749,-0.02039903,-0.08409699,0.0
 0656343,-0.01968683,-0.00271470,0.02990598,0.01773281,0.00117631,-0.03
 374286,0.27059074,0.34259842,0.02133997,0.00395723,-0.04936976,0.03793
 636,-0.02544276,-0.19780964,0.00963637,0.00427860,-0.00854847,0.017608
 20,-0.00280639,-0.02547082,-0.09845719,0.02616995,0.31843077,-0.178165
 79,-0.13207434,-0.00768896,-0.01762042,-0.01781290,0.00159598,-0.00226
 704,0.00274833,-0.00404021,0.00068566,-0.00146612,0.00048524,0.0018148
 3,0.00136095,0.00135803,0.19359555,-0.13272505,-0.18411863,-0.00729662
 ,0.00544571,0.00374861,0.00125183,0.00091008,0.00062922,0.00047475,0.0
 0070900,0.00099478,-0.00003509,0.00137109,0.00069154,-0.00170896,0.145
 91291,0.19689487,-0.00736518,-0.00807698,-0.04875978,-0.01696969,-0.01
 801325,-0.00223001,-0.00262772,0.00171033,-0.00352656,0.00099282,-0.00
 112614,0.00033078,0.00031871,-0.00042212,0.00289063,0.01098593,0.00774
 362,0.05027937,-0.10031027,0.10335543,0.02517511,-0.01141708,0.0207057
 8,0.00675990,0.00078207,0.00115582,0.00101170,-0.00279157,-0.00016787,
 -0.00417314,0.00137212,-0.00182799,0.00140476,0.01158134,-0.02100385,-
 0.00529836,0.10750125,0.10399010,-0.25687454,-0.04990962,0.00318212,-0
 .00794787,-0.00279822,-0.00094765,0.00067632,-0.00023041,0.00117033,0.
 00080616,0.00217428,-0.00170196,0.00123430,0.00003798,0.01058823,-0.01
 866416,-0.00463712,-0.11449266,0.27653175,0.02693725,-0.05151466,-0.05
 977911,-0.01097877,0.02189220,0.00398068,0.00083173,0.00080973,0.00066
 169,-0.00291841,0.00058344,-0.00361325,0.00078668,-0.00095147,0.002608
 59,0.00031085,-0.00001499,-0.00122734,-0.02573226,0.05482401,0.0617924
 3,-0.10165161,-0.00659507,0.10728215,0.01133745,0.00052898,-0.01633511
 ,0.00054871,-0.00003209,0.00020920,0.00019714,-0.00012671,0.00037722,-
 0.00054618,0.00113374,-0.00683636,-0.00993966,-0.00003289,0.02063518,-
 0.00648751,-0.00253593,0.01162298,0.10736458,-0.00636608,-0.04928491,0
 .01484813,-0.00446160,-0.00224451,0.00492405,-0.00020765,-0.00009805,-
 0.00039519,-0.00009455,-0.00013390,-0.00004603,0.00075657,0.00108321,0
 .00211851,-0.00955508,-0.00145591,0.02229328,0.01191770,0.00390815,-0.
 02661081,0.00737152,0.04816824,0.10520080,0.01512915,-0.26542200,0.015
 18943,-0.00047360,-0.01638063,0.00104681,0.00008273,0.00050358,0.00060
 217,-0.00040214,0.00050270,-0.00366724,0.00207237,-0.00679914,-0.00137
 298,-0.00018192,0.00274688,0.00172007,0.00078206,-0.00474338,-0.116393
 10,-0.01633168,0.28787009,-0.00271841,-0.00436992,0.00106980,-0.016474
 04,0.00640176,-0.01839625,-0.15940052,0.03897906,-0.12723892,0.0004888
 2,0.00134569,0.00042973,0.00187666,0.00077681,0.00002716,-0.00097735,-
 0.00000709,-0.00127292,0.00034330,-0.00010117,0.00025521,0.00022893,0.
 00002030,-0.00012883,0.17167530,-0.00303428,-0.00350226,0.00031283,-0.
 01600142,0.00485006,-0.01927662,0.04023515,-0.06214693,0.04578359,-0.0
 0069898,0.00149537,-0.00088678,0.00199834,0.00084180,-0.00050207,-0.00
 128155,0.00056086,-0.00092664,-0.00029875,0.00010661,0.00005430,0.0001
 4544,-0.00015101,0.00009132,-0.04059905,0.06531696,-0.00012001,-0.0011
 9298,0.00073756,-0.00097962,0.00124902,-0.00366747,-0.12880935,0.04412
 525,-0.19559031,0.00023125,0.00036714,-0.00000343,0.00056325,-0.000022
 23,0.00106746,-0.00040916,0.00010510,0.00016404,-0.00000043,0.00013957
 ,-0.00002509,0.00018885,0.00003794,0.00034351,0.14176583,-0.04832685,0
 .20883291,0.00143852,-0.00079093,0.00028269,0.00993594,-0.02138729,-0.
 00524881,-0.10248725,0.10738302,0.02541231,-0.00315689,-0.00292529,-0.
 00000821,0.00134919,0.00125870,-0.00110517,0.00015198,0.00018111,0.000
 17424,-0.00045444,0.00015634,-0.00005692,-0.00002813,0.00012502,-0.000
 08163,-0.00895501,0.01742072,0.00600093,0.10871056,0.00127465,0.000698
 07,0.00068884,0.01276185,-0.02298026,-0.00559462,0.10497836,-0.2544769
 2,-0.04879206,-0.00514914,-0.00238269,0.00015618,0.00073495,0.00216002
 ,-0.00023176,-0.00009393,0.00032687,0.00024332,-0.00072767,0.00058992,
 -0.00042397,-0.00013020,-0.00003461,0.00005143,0.00203472,-0.00514617,
 -0.00154100,-0.11375968,0.27710065,0.00053412,-0.00051007,-0.00015268,
 0.00168954,-0.00199557,-0.00222812,0.02462163,-0.04946299,-0.06025624,
 -0.00065924,-0.00016101,0.00005442,-0.00019393,0.00072095,0.00027231,-
 0.00000829,0.00028517,-0.00001974,-0.00059557,-0.00010266,0.00004019,0
 .00002754,-0.00012478,-0.00010302,-0.01029555,0.02238250,0.00623023,-0
 .02654036,0.05497645,0.06009320,0.00042196,0.00046677,0.00058633,-0.00
 908396,0.00303767,0.01983991,-0.11714176,-0.01249697,0.11589520,0.0003
 6886,0.00093239,0.00012169,-0.00441451,-0.00481538,0.00019316,0.000341
 47,0.00008443,-0.00021841,-0.00008818,-0.00004291,0.00003095,-0.000385
 82,-0.00023208,-0.00086139,0.01288798,0.00147380,-0.01858771,-0.007339
 07,-0.00241614,0.01137652,0.12428049,0.00072141,0.00042010,0.00029174,
 -0.00784743,-0.00008602,0.02113514,-0.01147587,-0.05100337,0.01775600,
 0.00017102,0.00055181,0.00046645,-0.00498897,-0.00415032,0.00052919,0.
 00026964,-0.00009879,0.00002683,0.00002471,-0.00002131,-0.00017267,-0.
 00015853,0.00029218,-0.00039010,-0.00411362,-0.00175969,0.00585363,0.0
 1372320,0.00474909,-0.02562649,0.01460601,0.05131736,-0.00030234,-0.00
 010852,-0.00003782,-0.00274569,-0.00125630,0.00055435,0.11800181,0.019
 84372,-0.24967913,-0.00003653,-0.00017046,-0.00012373,-0.00016692,0.00
 017285,0.00123964,0.00009541,0.00009266,0.00026958,0.00000806,0.000156
 34,-0.00003078,-0.00032077,-0.00024538,0.00029723,0.01314111,0.0010300
 9,-0.01846156,0.00154979,0.00090820,-0.00474628,-0.12913271,-0.0205607
 2,0.26965057,-0.00068176,0.00314739,0.00173363,-0.01051644,0.00274694,
 -0.01163852,0.00037927,-0.00112953,0.00035200,-0.16054478,0.03675634,-
 0.12828744,0.00138254,-0.00180999,0.00056813,0.00044146,-0.00008211,0.
 00025596,-0.00035741,0.00054846,-0.00087041,0.00014729,-0.00006711,-0.
 00020477,0.00065597,0.00009231,0.00008732,-0.00004222,-0.00008213,0.00
 019385,-0.00002142,0.00001742,0.00017299,0.17135446,0.00194958,-0.0054
 7310,-0.00236951,0.01952327,-0.00724714,0.02415498,0.00090721,0.001525
 43,0.00114133,0.03632780,-0.06005368,0.04237483,-0.00260554,0.00211722
 ,0.00044773,0.00021505,0.00016483,-0.00011842,0.00162256,-0.00030736,0
 .00128253,-0.00029413,0.00004527,-0.00013694,-0.00051184,-0.00067337,-
 0.00057050,-0.00016429,0.00034450,-0.00027622,-0.00006075,-0.00006342,
 0.00001117,-0.04195035,0.06511335,0.00077024,-0.00048938,0.00055566,0.
 00455217,-0.00207043,0.00237093,0.00038470,-0.00004976,0.00021659,-0.1
 2962369,0.04441043,-0.19633356,-0.00020150,0.00006267,0.00172046,0.000
 02527,-0.00011702,-0.00007839,-0.00000131,-0.00011681,0.00043994,0.000
 08368,-0.00021202,0.00028020,0.00013292,0.00032877,0.00020246,0.000178
 88,0.00004739,0.00012370,-0.00015218,0.00004110,-0.00005418,0.14144450
 ,-0.04714674,0.20932676,0.00116863,0.00031758,0.00031072,0.00833956,0.
 01101489,0.00134992,-0.00033079,0.00217653,0.00050620,-0.17887994,-0.1
 3262143,-0.00735478,0.00213175,0.00011206,-0.00221326,0.00014622,-0.00
 005148,0.00018991,0.00021370,-0.00012796,0.00010103,-0.00003468,-0.000
 02878,-0.00016497,0.00005709,0.00022478,0.00024020,0.00073627,0.000450
 68,0.00012500,-0.00002882,0.00017013,-0.00013807,-0.01404985,-0.014679
 33,0.00111746,0.19194192,-0.00164986,0.00108101,-0.00076867,-0.0237647
 4,-0.02226735,0.00002626,0.00477584,-0.00466367,-0.00128038,-0.1322917
 3,-0.18316849,-0.00778260,0.00020516,0.00280308,0.00148102,0.00116022,
 0.00031692,0.00047244,0.00020674,0.00045166,-0.00016462,0.00009319,-0.
 00005078,-0.00004487,0.00006902,0.00021598,-0.00006654,-0.00137714,-0.
 00154814,-0.00025895,0.00015039,0.00031063,0.00017933,0.00584028,0.005
 81676,-0.00034518,0.14466084,0.20098546,0.00023421,0.00074568,-0.00023
 858,-0.00395748,-0.00437399,-0.00216137,0.00067297,-0.00094826,-0.0001
 6684,-0.00837272,-0.00769555,-0.04891003,-0.00095964,0.00041024,0.0004
 5372,-0.00013962,0.00021578,0.00025726,-0.00005193,-0.00008668,-0.0001
 3733,0.00010887,0.00011919,-0.00006355,0.00030457,0.00021980,0.0001866
 3,-0.00015932,-0.00036558,0.00055998,-0.00024735,-0.00017482,0.0002298
 8,-0.01623483,-0.01847739,-0.00008919,0.00800136,0.00935571,0.04775825
 ,0.00009017,-0.00037850,-0.00001263,-0.00676158,-0.00427216,0.01084902
 ,0.00005651,-0.00076405,-0.00023746,-0.11344436,-0.00003933,0.11518194
 ,-0.00132209,0.00375384,0.00234657,-0.00007419,0.00009948,0.00009132,0
 .00019447,-0.00008451,-0.00022841,-0.00023590,0.00069141,-0.00054079,-
 0.00001682,0.00009421,-0.00014246,-0.00008978,0.00003401,-0.00018525,0
 .00054809,-0.00001751,-0.00017520,0.01244039,-0.00040305,-0.01887801,-
 0.01122752,0.00093719,0.02005660,0.11900378,-0.00046009,0.00059687,0.0
 0011901,0.01106735,0.00535063,-0.02383129,-0.00005488,0.00098432,-0.00
 010909,-0.00101430,-0.04926275,0.00364920,0.00541153,-0.00546488,-0.00
 526018,0.00000572,-0.00005309,0.00013557,-0.00035714,0.00007831,-0.000
 01511,0.00057855,-0.00028557,0.00044719,-0.00007870,-0.00006537,-0.000
 04625,0.00001603,0.00028923,0.00025718,-0.00025516,-0.00076812,0.00005
 560,-0.00430887,-0.00113693,0.00555211,-0.01081704,0.00015009,0.021635
 35,0.00046418,0.05022090,-0.00033975,0.00037404,-0.00012130,0.00078404
 ,0.00283978,-0.00587383,0.00002958,0.00050869,-0.00009368,0.11574001,0
 .00185603,-0.25364242,0.00183307,-0.00258221,0.00052728,-0.00008182,-0
 .00014376,-0.00002324,-0.00003422,-0.00018364,0.00020006,-0.00029719,0
 .00025768,0.00050574,0.00013712,-0.00005539,-0.00008358,-0.00016140,-0
 .00008759,0.00022127,-0.00028329,-0.00044414,0.00042873,0.01289570,-0.
 00016395,-0.01862580,-0.00207307,0.00036452,0.00242270,-0.12762784,-0.
 00260661,0.27417384,0.00245623,0.00123800,-0.00061033,-0.01516006,-0.0
 1576474,-0.00353927,-0.00130153,0.00128333,0.00466270,0.00044332,0.000
 05264,-0.00183590,-0.25496505,-0.24325116,0.01619328,0.00028592,-0.000
 81134,0.00010822,-0.00008180,0.00039918,-0.00009149,-0.00051462,0.0001
 3040,-0.00034356,0.00032810,0.00022927,-0.00002888,0.00023031,0.000089
 66,-0.00009001,-0.00034533,-0.00110161,0.00004907,-0.00058751,0.000123
 81,0.00016686,-0.00018352,0.00098459,0.00074432,0.00083885,-0.00019719
 ,-0.00052092,0.26855669,0.00126412,0.00013709,-0.00106375,0.00044979,-
 0.00246128,-0.00401430,0.00027920,0.00080863,0.00178704,0.00193709,0.0
 0269598,-0.00048511,-0.25971627,-0.26048133,-0.00306809,0.00002287,0.0
 0006208,0.00069528,-0.00011281,-0.00056793,0.00042209,0.00005412,0.000
 24221,-0.00069501,0.00015404,0.00005717,-0.00011131,0.00014049,0.00031
 044,-0.00010351,-0.00043205,0.00030986,-0.00010856,0.00028093,-0.00017
 238,0.00010487,-0.00080149,-0.00043318,-0.00057948,-0.00011519,-0.0006
 3365,0.00006655,0.25659516,0.26012629,0.00119307,0.00152230,0.00138761
 ,0.03009422,0.02931478,-0.00202699,0.00258018,-0.00027712,-0.00620907,
 0.00031527,0.00085256,0.00083471,-0.01796565,-0.03691504,-0.04121302,-
 0.00111566,-0.00067054,-0.00107346,-0.00019239,-0.00004908,-0.00016729
 ,-0.00035314,-0.00063290,0.00046178,0.00006903,-0.00022883,0.00006662,
 -0.00023701,-0.00003523,-0.00008923,0.00143929,0.00126887,0.00046351,-
 0.00046809,-0.00015290,-0.00005560,0.00000234,-0.00116747,-0.00010154,
 -0.00049738,0.00001733,-0.00001578,-0.01486409,0.00715327,0.04773773\\
 -0.00001443,-0.00000447,-0.00001191,-0.00002891,-0.00002650,0.00000967
 ,0.00004072,0.00003633,-0.00003846,0.00001110,0.00001144,0.00001350,0.
 00002507,0.00002390,0.00001289,-0.00000527,-0.00000026,0.00001224,0.00
 000506,0.00000120,0.00000405,-0.00000777,-0.00000553,0.00000365,0.0000
 0963,-0.00000701,-0.00000454,0.00000426,-0.00000400,-0.00000578,-0.000
 01213,-0.00001542,-0.00000120,-0.00000493,0.00000252,-0.00000655,-0.00
 001120,-0.00000363,0.00001004,-0.00000748,-0.00001363,0.00000021,-0.00
 000372,0.00000506,0.00000221\\\@


 WAR ES EIN GOTT DER DIESE ZEICHEN SCHRIEB?
          - LUDWIG BOLTZMANN, QUOTING GOETHE, ABOUT MAXWELL'S EQUATIONS.
 Job cpu time:       0 days  0 hours  2 minutes 40.6 seconds.
 File lengths (MBytes):  RWF=    132 Int=      0 D2E=      0 Chk=      3 Scr=      2
 Normal termination of Gaussian 09 at Mon Mar 17 18:46:54 2025.
