 Entering Gaussian System, Link 0=g09
 Initial command:
 /apps/z_install_tree/linux-rocky8-ivybridge/gcc-12.2.0/gaussian-09-D.01-wczn3gur5lpur3omlkzwa2l5ecyxp5ef/g09/l1.exe "/srv/scratch/z5358697/gauss/Gau-2764185.inp" -scrdir="/srv/scratch/z5358697/gauss/"
 Entering Link 1 = /apps/z_install_tree/linux-rocky8-ivybridge/gcc-12.2.0/gaussian-09-D.01-wczn3gur5lpur3omlkzwa2l5ecyxp5ef/g09/l1.exe PID=   2764187.
  
 Copyright (c) 1988,1990,1992,1993,1995,1998,2003,2009,2013,
            Gaussian, Inc.  All Rights Reserved.
  
 This is part of the Gaussian(R) 09 program.  It is based on
 the Gaussian(R) 03 system (copyright 2003, Gaussian, Inc.),
 the Gaussian(R) 98 system (copyright 1998, Gaussian, Inc.),
 the Gaussian(R) 94 system (copyright 1995, Gaussian, Inc.),
 the Gaussian 92(TM) system (copyright 1992, Gaussian, Inc.),
 the Gaussian 90(TM) system (copyright 1990, Gaussian, Inc.),
 the Gaussian 88(TM) system (copyright 1988, Gaussian, Inc.),
 the Gaussian 86(TM) system (copyright 1986, Carnegie Mellon
 University), and the Gaussian 82(TM) system (copyright 1983,
 Carnegie Mellon University). Gaussian is a federally registered
 trademark of Gaussian, Inc.
  
 This software contains proprietary and confidential information,
 including trade secrets, belonging to Gaussian, Inc.
  
 This software is provided under written license and may be
 used, copied, transmitted, or stored only in accord with that
 written license.
  
 The following legend is applicable only to US Government
 contracts under FAR:
  
                    RESTRICTED RIGHTS LEGEND
  
 Use, reproduction and disclosure by the US Government is
 subject to restrictions as set forth in subparagraphs (a)
 and (c) of the Commercial Computer Software - Restricted
 Rights clause in FAR 52.227-19.
  
 Gaussian, Inc.
 340 Quinnipiac St., Bldg. 40, Wallingford CT 06492
  
  
 ---------------------------------------------------------------
 Warning -- This program may not be used in any manner that
 competes with the business of Gaussian, Inc. or will provide
 assistance to any competitor of Gaussian, Inc.  The licensee
 of this program is prohibited from giving any competitor of
 Gaussian, Inc. access to this program.  By using this program,
 the user acknowledges that Gaussian, Inc. is engaged in the
 business of creating and licensing software in the field of
 computational chemistry and represents and warrants to the
 licensee that it is not a competitor of Gaussian, Inc. and that
 it will not use this program in any manner prohibited above.
 ---------------------------------------------------------------
  

 Cite this work as:
 Gaussian 09, Revision D.01,
 M. J. Frisch, G. W. Trucks, H. B. Schlegel, G. E. Scuseria, 
 M. A. Robb, J. R. Cheeseman, G. Scalmani, V. Barone, B. Mennucci, 
 G. A. Petersson, H. Nakatsuji, M. Caricato, X. Li, H. P. Hratchian, 
 A. F. Izmaylov, J. Bloino, G. Zheng, J. L. Sonnenberg, M. Hada, 
 M. Ehara, K. Toyota, R. Fukuda, J. Hasegawa, M. Ishida, T. Nakajima, 
 Y. Honda, O. Kitao, H. Nakai, T. Vreven, J. A. Montgomery, Jr., 
 J. E. Peralta, F. Ogliaro, M. Bearpark, J. J. Heyd, E. Brothers, 
 K. N. Kudin, V. N. Staroverov, T. Keith, R. Kobayashi, J. Normand, 
 K. Raghavachari, A. Rendell, J. C. Burant, S. S. Iyengar, J. Tomasi, 
 M. Cossi, N. Rega, J. M. Millam, M. Klene, J. E. Knox, J. B. Cross, 
 V. Bakken, C. Adamo, J. Jaramillo, R. Gomperts, R. E. Stratmann, 
 O. Yazyev, A. J. Austin, R. Cammi, C. Pomelli, J. W. Ochterski, 
 R. L. Martin, K. Morokuma, V. G. Zakrzewski, G. A. Voth, 
 P. Salvador, J. J. Dannenberg, S. Dapprich, A. D. Daniels, 
 O. Farkas, J. B. Foresman, J. V. Ortiz, J. Cioslowski, 
 and D. J. Fox, Gaussian, Inc., Wallingford CT, 2013.
 
 ******************************************
 Gaussian 09:  ES64L-G09RevD.01 24-Apr-2013
                18-Mar-2025 
 ******************************************
 ---------------------------------
 #m062X/6-31+G(d) OPT Freq=noraman
 ---------------------------------
 1/14=-1,18=20,19=15,26=3,38=1/1,3;
 2/9=110,12=2,17=6,18=5,40=1/2;
 3/5=1,6=6,7=11,11=2,16=1,25=1,30=1,71=1,74=-55/1,2,3;
 4//1;
 5/5=2,38=5/2;
 6/7=2,8=2,9=2,10=2,28=1/1;
 7//1,2,3,16;
 1/14=-1,18=20,19=15,26=3/3(2);
 2/9=110/2;
 99//99;
 2/9=110/2;
 3/5=1,6=6,7=11,11=2,16=1,25=1,30=1,71=1,74=-55/1,2,3;
 4/5=5,16=3,69=1/1;
 5/5=2,38=5/2;
 7//1,2,3,16;
 1/14=-1,18=20,19=15,26=3/3(-5);
 2/9=110/2;
 6/7=2,8=2,9=2,10=2,19=2,28=1/1;
 99/9=1/99;
 --------------
 methyl formate
 --------------
 Symbolic Z-matrix:
 Charge =  0 Multiplicity = 1
 C                     0.3499   -1.0344    0.0714 
 O                     1.5789   -1.1921   -0.6447 
 C                     1.5117   -0.9362   -1.9766 
 O                     0.5335   -0.5918   -2.6212 
 H                     0.5111   -1.2625    1.1278 
 H                    -0.4048   -1.7055   -0.3463 
 H                     0.0106   -0.0006   -0.0282 
 H                     2.5112   -1.0903   -2.412 
 

 GradGradGradGradGradGradGradGradGradGradGradGradGradGradGradGradGradGrad
 Berny optimization.
 Initialization pass.
                           ----------------------------
                           !    Initial Parameters    !
                           ! (Angstroms and Degrees)  !
 --------------------------                            --------------------------
 ! Name  Definition              Value          Derivative Info.                !
 --------------------------------------------------------------------------------
 ! R1    R(1,2)                  1.4311         estimate D2E/DX2                !
 ! R2    R(1,5)                  1.0927         estimate D2E/DX2                !
 ! R3    R(1,6)                  1.0929         estimate D2E/DX2                !
 ! R4    R(1,7)                  1.0926         estimate D2E/DX2                !
 ! R5    R(2,3)                  1.3579         estimate D2E/DX2                !
 ! R6    R(3,4)                  1.2211         estimate D2E/DX2                !
 ! R7    R(3,8)                  1.1011         estimate D2E/DX2                !
 ! A1    A(2,1,5)              109.5155         estimate D2E/DX2                !
 ! A2    A(2,1,6)              109.5188         estimate D2E/DX2                !
 ! A3    A(2,1,7)              108.9857         estimate D2E/DX2                !
 ! A4    A(5,1,6)              110.0712         estimate D2E/DX2                !
 ! A5    A(5,1,7)              109.3572         estimate D2E/DX2                !
 ! A6    A(6,1,7)              109.3733         estimate D2E/DX2                !
 ! A7    A(1,2,3)              115.3105         estimate D2E/DX2                !
 ! A8    A(2,3,4)              127.6315         estimate D2E/DX2                !
 ! A9    A(2,3,8)              108.4552         estimate D2E/DX2                !
 ! A10   A(4,3,8)              123.9133         estimate D2E/DX2                !
 ! D1    D(5,1,2,3)           -179.9972         estimate D2E/DX2                !
 ! D2    D(6,1,2,3)             59.2094         estimate D2E/DX2                !
 ! D3    D(7,1,2,3)            -60.4047         estimate D2E/DX2                !
 ! D4    D(1,2,3,4)             -0.0098         estimate D2E/DX2                !
 ! D5    D(1,2,3,8)            179.9653         estimate D2E/DX2                !
 ! D6    D(2,3,4,8)            179.9715         estimate D2E/DX2                !
 --------------------------------------------------------------------------------
 Trust Radius=3.00D-01 FncErr=1.00D-07 GrdErr=1.00D-06
 Number of steps in this run=     33 maximum allowed number of steps=    100.
 GradGradGradGradGradGradGradGradGradGradGradGradGradGradGradGradGradGrad

                          Input orientation:                          
 ---------------------------------------------------------------------
 Center     Atomic      Atomic             Coordinates (Angstroms)
 Number     Number       Type             X           Y           Z
 ---------------------------------------------------------------------
      1          6           0        0.349900   -1.034400    0.071400
      2          8           0        1.578900   -1.192100   -0.644700
      3          6           0        1.511700   -0.936200   -1.976600
      4          8           0        0.533500   -0.591800   -2.621200
      5          1           0        0.511100   -1.262500    1.127800
      6          1           0       -0.404800   -1.705500   -0.346300
      7          1           0        0.010600   -0.000600   -0.028200
      8          1           0        2.511200   -1.090300   -2.412000
 ---------------------------------------------------------------------
                    Distance matrix (angstroms):
                    1          2          3          4          5
     1  C    0.000000
     2  O    1.431122   0.000000
     3  C    2.356635   1.357924   0.000000
     4  O    2.734904   2.315118   1.221063   0.000000
     5  H    1.092701   2.070485   3.277952   3.808588   0.000000
     6  H    1.092896   2.070673   2.631097   2.701093   1.791115
     7  H    1.092606   2.063809   2.631523   2.710460   1.783039
     8  H    3.292661   2.000724   1.101054   2.050260   4.069427
                    6          7          8
     6  H    0.000000
     7  H    1.783376   0.000000
     8  H    3.626106   3.622561   0.000000
 Stoichiometry    C2H4O2
 Framework group  C1[X(C2H4O2)]
 Deg. of freedom    18
 Full point group                 C1      NOp   1
 Largest Abelian subgroup         C1      NOp   1
 Largest concise Abelian subgroup C1      NOp   1
                         Standard orientation:                         
 ---------------------------------------------------------------------
 Center     Atomic      Atomic             Coordinates (Angstroms)
 Number     Number       Type             X           Y           Z
 ---------------------------------------------------------------------
      1          6           0        1.375906   -0.410783   -0.001061
      2          8           0        0.506547    0.726022   -0.000944
      3          6           0       -0.821227    0.441466   -0.000075
      4          8           0       -1.347589   -0.660323    0.000443
      5          1           0        2.415767   -0.075096   -0.001731
      6          1           0        1.178349   -1.021464   -0.885629
      7          1           0        1.187044   -1.002793    0.897628
      8          1           0       -1.380903    1.389666    0.000559
 ---------------------------------------------------------------------
 Rotational constants (GHZ):     20.2276811      6.6155042      5.1478643
 Standard basis: 6-31+G(d) (6D, 7F)
 There are    84 symmetry adapted cartesian basis functions of A   symmetry.
 There are    84 symmetry adapted basis functions of A   symmetry.
    84 basis functions,   144 primitive gaussians,    84 cartesian basis functions
    16 alpha electrons       16 beta electrons
       nuclear repulsion energy       121.0756087616 Hartrees.
 NAtoms=    8 NActive=    8 NUniq=    8 SFac= 1.00D+00 NAtFMM=   60 NAOKFM=F Big=F
 Integral buffers will be    131072 words long.
 Raffenetti 2 integral format.
 Two-electron integral symmetry is turned on.
 One-electron integrals computed using PRISM.
 NBasis=    84 RedAO= T EigKep=  1.61D-03  NBF=    84
 NBsUse=    84 1.00D-06 EigRej= -1.00D+00 NBFU=    84
 ExpMin= 4.38D-02 ExpMax= 5.48D+03 ExpMxC= 8.25D+02 IAcc=2 IRadAn=         4 AccDes= 0.00D+00
 Harris functional with IExCor= 1009 and IRadAn=       4 diagonalized for initial guess.
 HarFok:  IExCor= 1009 AccDes= 0.00D+00 IRadAn=         4 IDoV= 1 UseB2=F ITyADJ=14
 ICtDFT=  3500011 ScaDFX=  1.000000  1.000000  1.000000  1.000000
 FoFCou: FMM=F IPFlag=           0 FMFlag=      100000 FMFlg1=           0
         NFxFlg=           0 DoJE=T BraDBF=F KetDBF=T FulRan=T
         wScrn=  0.000000 ICntrl=     500 IOpCl=  0 I1Cent=   200000004 NGrid=           0
         NMat0=    1 NMatS0=      1 NMatT0=    0 NMatD0=    1 NMtDS0=    0 NMtDT0=    0
 Petite list used in FoFCou.
 Keep R1 ints in memory in canonical form, NReq=7322173.
 Requested convergence on RMS density matrix=1.00D-08 within 128 cycles.
 Requested convergence on MAX density matrix=1.00D-06.
 Requested convergence on             energy=1.00D-06.
 No special actions if energy rises.
 SCF Done:  E(RM062X) =  -228.969876141     A.U. after   12 cycles
            NFock= 12  Conv=0.40D-08     -V/T= 2.0090

 **********************************************************************

            Population analysis using the SCF density.

 **********************************************************************

 Orbital symmetries:
       Occupied  (A) (A) (A) (A) (A) (A) (A) (A) (A) (A) (A) (A)
                 (A) (A) (A) (A)
       Virtual   (A) (A) (A) (A) (A) (A) (A) (A) (A) (A) (A) (A)
                 (A) (A) (A) (A) (A) (A) (A) (A) (A) (A) (A) (A)
                 (A) (A) (A) (A) (A) (A) (A) (A) (A) (A) (A) (A)
                 (A) (A) (A) (A) (A) (A) (A) (A) (A) (A) (A) (A)
                 (A) (A) (A) (A) (A) (A) (A) (A) (A) (A) (A) (A)
                 (A) (A) (A) (A) (A) (A) (A) (A)
 The electronic state is 1-A.
 Alpha  occ. eigenvalues --  -19.70999 -19.65903 -10.69819 -10.61226  -1.23984
 Alpha  occ. eigenvalues --   -1.15351  -0.84155  -0.69330  -0.61989  -0.57272
 Alpha  occ. eigenvalues --   -0.56828  -0.50491  -0.47439  -0.44207  -0.38670
 Alpha  occ. eigenvalues --   -0.37209
 Alpha virt. eigenvalues --    0.02235   0.02301   0.03479   0.04890   0.05558
 Alpha virt. eigenvalues --    0.05772   0.07997   0.09215   0.13072   0.18897
 Alpha virt. eigenvalues --    0.20145   0.20400   0.22708   0.24728   0.25804
 Alpha virt. eigenvalues --    0.25987   0.27586   0.28243   0.31483   0.33199
 Alpha virt. eigenvalues --    0.34396   0.35537   0.37752   0.51014   0.68296
 Alpha virt. eigenvalues --    0.70687   0.71913   0.73161   0.81840   0.86063
 Alpha virt. eigenvalues --    0.94904   0.98412   1.03663   1.11732   1.14009
 Alpha virt. eigenvalues --    1.21552   1.22029   1.27665   1.29954   1.31217
 Alpha virt. eigenvalues --    1.37540   1.40940   1.42801   1.49783   1.58038
 Alpha virt. eigenvalues --    1.60821   1.69973   1.74114   1.84316   1.87794
 Alpha virt. eigenvalues --    1.93443   2.05495   2.08218   2.18583   2.26236
 Alpha virt. eigenvalues --    2.32949   2.34610   2.39819   2.56095   2.70267
 Alpha virt. eigenvalues --    2.75078   2.92134   3.02134   3.13737   4.14052
 Alpha virt. eigenvalues --    4.19231   4.35945   4.41506
          Condensed to atoms (all electrons):
               1          2          3          4          5          6
     1  C    5.218117   0.077726  -0.082129   0.005968   0.396514   0.394305
     2  O    0.077726   8.455007   0.136706  -0.129186  -0.047128  -0.033573
     3  C   -0.082129   0.136706   4.765439   0.467673   0.004197  -0.008917
     4  O    0.005968  -0.129186   0.467673   8.136056   0.000825   0.001352
     5  H    0.396514  -0.047128   0.004197   0.000825   0.478487  -0.026380
     6  H    0.394305  -0.033573  -0.008917   0.001352  -0.026380   0.480572
     7  H    0.395309  -0.034268  -0.009459   0.001350  -0.027212  -0.031865
     8  H    0.009535  -0.121347   0.434288  -0.050506  -0.000013  -0.000190
               7          8
     1  C    0.395309   0.009535
     2  O   -0.034268  -0.121347
     3  C   -0.009459   0.434288
     4  O    0.001350  -0.050506
     5  H   -0.027212  -0.000013
     6  H   -0.031865  -0.000190
     7  H    0.482382  -0.000196
     8  H   -0.000196   0.537183
 Mulliken charges:
               1
     1  C   -0.415345
     2  O   -0.303937
     3  C    0.292203
     4  O   -0.433532
     5  H    0.220710
     6  H    0.224696
     7  H    0.223959
     8  H    0.191247
 Sum of Mulliken charges =   0.00000
 Mulliken charges with hydrogens summed into heavy atoms:
               1
     1  C    0.254019
     2  O   -0.303937
     3  C    0.483450
     4  O   -0.433532
 Electronic spatial extent (au):  <R**2>=            260.4601
 Charge=              0.0000 electrons
 Dipole moment (field-independent basis, Debye):
    X=              1.7789    Y=              0.8464    Z=              0.0020  Tot=              1.9700
 Quadrupole moment (field-independent basis, Debye-Ang):
   XX=            -23.4857   YY=            -24.9338   ZZ=            -23.3750
   XY=             -5.0998   XZ=              0.0123   YZ=              0.0159
 Traceless Quadrupole moment (field-independent basis, Debye-Ang):
   XX=              0.4458   YY=             -1.0023   ZZ=              0.5565
   XY=             -5.0998   XZ=              0.0123   YZ=              0.0159
 Octapole moment (field-independent basis, Debye-Ang**2):
  XXX=              8.3139  YYY=              1.4457  ZZZ=              0.0198  XYY=             -1.6479
  XXY=              4.2901  XXZ=              0.0242  XZZ=             -0.6277  YZZ=             -0.6476
  YYZ=             -0.0260  XYZ=              0.0048
 Hexadecapole moment (field-independent basis, Debye-Ang**3):
 XXXX=           -209.2942 YYYY=            -83.4458 ZZZZ=            -28.0707 XXXY=             -4.1921
 XXXZ=              0.0606 YYYX=             -2.6589 YYYZ=              0.0615 ZZZX=              0.0343
 ZZZY=             -0.0001 XXYY=            -48.9697 XXZZ=            -41.3601 YYZZ=            -18.1876
 XXYZ=             -0.0020 YYXZ=             -0.0222 ZZXY=             -0.1310
 N-N= 1.210756087616D+02 E-N=-7.782371242659D+02  KE= 2.269299985949D+02
 Calling FoFJK, ICntrl=      2127 FMM=F ISym2X=0 I1Cent= 0 IOpClX= 0 NMat=1 NMatS=1 NMatT=0.
 ***** Axes restored to original set *****
 -------------------------------------------------------------------
 Center     Atomic                   Forces (Hartrees/Bohr)
 Number     Number              X              Y              Z
 -------------------------------------------------------------------
      1        6          -0.005894492    0.003360349   -0.002623000
      2        8          -0.005018326    0.003276298   -0.015486779
      3        6          -0.015133782    0.004446513   -0.004837725
      4        8           0.024675112   -0.010502776    0.026212252
      5        1           0.006295612   -0.001460036   -0.004368158
      6        1          -0.000585547    0.000686290    0.000348227
      7        1          -0.001826370   -0.000206226   -0.000220552
      8        1          -0.002512207    0.000399589    0.000975735
 -------------------------------------------------------------------
 Cartesian Forces:  Max     0.026212252 RMS     0.009308968

 GradGradGradGradGradGradGradGradGradGradGradGradGradGradGradGradGradGrad
 Berny optimization.
 FormGI is forming the generalized inverse of G from B-inverse, IUseBI=4.
 Internal  Forces:  Max     0.036573329 RMS     0.010111685
 Search for a local minimum.
 Step number   1 out of a maximum of   33
 All quantities printed in internal units (Hartrees-Bohrs-Radians)
 Mixed Optimization -- RFO/linear search
 Second derivative matrix not updated -- first step.
 ITU=  0
     Eigenvalues ---    0.01280   0.02248   0.03558   0.10317   0.10407
     Eigenvalues ---    0.16000   0.16000   0.16000   0.16000   0.22000
     Eigenvalues ---    0.25000   0.33566   0.34480   0.34502   0.34513
     Eigenvalues ---    0.40829   0.53369   0.94914
 RFO step:  Lambda=-4.81248786D-03 EMin= 1.28009905D-02
 Linear search not attempted -- first point.
 Iteration  1 RMS(Cart)=  0.04615451 RMS(Int)=  0.00093924
 Iteration  2 RMS(Cart)=  0.00085551 RMS(Int)=  0.00017204
 Iteration  3 RMS(Cart)=  0.00000040 RMS(Int)=  0.00017204
 Variable       Old X    -DE/DX   Delta X   Delta X   Delta X     New X
                                 (Linear)    (Quad)   (Total)
    R1        2.70443  -0.00143   0.00000  -0.00347  -0.00347   2.70096
    R2        2.06491  -0.00299   0.00000  -0.00855  -0.00855   2.05635
    R3        2.06527  -0.00015   0.00000  -0.00042  -0.00042   2.06485
    R4        2.06473   0.00039   0.00000   0.00113   0.00113   2.06585
    R5        2.56610  -0.02335   0.00000  -0.04335  -0.04335   2.52275
    R6        2.30748  -0.03657   0.00000  -0.03834  -0.03834   2.26914
    R7        2.08069  -0.00272   0.00000  -0.00798  -0.00798   2.07271
    A1        1.91141  -0.01183   0.00000  -0.07494  -0.07496   1.83645
    A2        1.91146   0.00264   0.00000   0.01640   0.01609   1.92756
    A3        1.90216   0.00413   0.00000   0.02777   0.02763   1.92979
    A4        1.92111   0.00254   0.00000   0.01000   0.00980   1.93090
    A5        1.90864   0.00339   0.00000   0.01971   0.01987   1.92851
    A6        1.90892  -0.00082   0.00000   0.00137   0.00097   1.90989
    A7        2.01255  -0.00384   0.00000  -0.01509  -0.01509   1.99746
    A8        2.22759  -0.01285   0.00000  -0.05715  -0.05715   2.17044
    A9        1.89290   0.00653   0.00000   0.02920   0.02920   1.92210
   A10        2.16270   0.00632   0.00000   0.02794   0.02794   2.19064
    D1       -3.14154  -0.00073   0.00000  -0.00695  -0.00664   3.13500
    D2        1.03340   0.00189   0.00000   0.01727   0.01742   1.05082
    D3       -1.05426  -0.00117   0.00000  -0.01095  -0.01141  -1.06567
    D4       -0.00017  -0.00002   0.00000  -0.00059  -0.00059  -0.00076
    D5        3.14099   0.00000   0.00000  -0.00025  -0.00025   3.14073
    D6        3.14110   0.00001   0.00000   0.00039   0.00039   3.14148
         Item               Value     Threshold  Converged?
 Maximum Force            0.036573     0.000450     NO 
 RMS     Force            0.010112     0.000300     NO 
 Maximum Displacement     0.156699     0.001800     NO 
 RMS     Displacement     0.046319     0.001200     NO 
 Predicted change in Energy=-2.446137D-03
 GradGradGradGradGradGradGradGradGradGradGradGradGradGradGradGradGradGrad

                          Input orientation:                          
 ---------------------------------------------------------------------
 Center     Atomic      Atomic             Coordinates (Angstroms)
 Number     Number       Type             X           Y           Z
 ---------------------------------------------------------------------
      1          6           0        0.338814   -1.023334    0.043662
      2          8           0        1.579704   -1.191991   -0.645251
      3          6           0        1.522428   -0.943030   -1.955562
      4          8           0        0.528478   -0.604851   -2.538278
      5          1           0        0.553098   -1.267673    1.082173
      6          1           0       -0.418024   -1.698722   -0.362517
      7          1           0       -0.011060    0.008788   -0.042386
      8          1           0        2.508662   -1.092587   -2.411641
 ---------------------------------------------------------------------
                    Distance matrix (angstroms):
                    1          2          3          4          5
     1  C    0.000000
     2  O    1.429284   0.000000
     3  C    2.324713   1.334982   0.000000
     4  O    2.622502   2.243515   1.200775   0.000000
     5  H    1.088175   2.010881   3.205126   3.680708   0.000000
     6  H    1.092673   2.080295   2.621872   2.612729   1.793324
     7  H    1.093203   2.082269   2.630169   2.626239   1.792278
     8  H    3.277431   1.998244   1.096829   2.043295   4.007696
                    6          7          8
     6  H    0.000000
     7  H    1.784291   0.000000
     8  H    3.623782   3.629793   0.000000
 Stoichiometry    C2H4O2
 Framework group  C1[X(C2H4O2)]
 Deg. of freedom    18
 Full point group                 C1      NOp   1
 Largest Abelian subgroup         C1      NOp   1
 Largest concise Abelian subgroup C1      NOp   1
                         Standard orientation:                         
 ---------------------------------------------------------------------
 Center     Atomic      Atomic             Coordinates (Angstroms)
 Number     Number       Type             X           Y           Z
 ---------------------------------------------------------------------
      1          6           0        1.340588   -0.401090   -0.000060
      2          8           0        0.473548    0.735174   -0.000172
      3          6           0       -0.827742    0.437145    0.000233
      4          8           0       -1.266998   -0.680404   -0.000096
      5          1           0        2.348614    0.008731   -0.007345
      6          1           0        1.167434   -1.013317   -0.888390
      7          1           0        1.180042   -1.006626    0.895844
      8          1           0       -1.425569    1.356729    0.001001
 ---------------------------------------------------------------------
 Rotational constants (GHZ):     19.9130842      7.0913044      5.4087039
 Standard basis: 6-31+G(d) (6D, 7F)
 There are    84 symmetry adapted cartesian basis functions of A   symmetry.
 There are    84 symmetry adapted basis functions of A   symmetry.
    84 basis functions,   144 primitive gaussians,    84 cartesian basis functions
    16 alpha electrons       16 beta electrons
       nuclear repulsion energy       122.9849654388 Hartrees.
 NAtoms=    8 NActive=    8 NUniq=    8 SFac= 1.00D+00 NAtFMM=   60 NAOKFM=F Big=F
 Integral buffers will be    131072 words long.
 Raffenetti 2 integral format.
 Two-electron integral symmetry is turned on.
 One-electron integrals computed using PRISM.
 NBasis=    84 RedAO= T EigKep=  1.52D-03  NBF=    84
 NBsUse=    84 1.00D-06 EigRej= -1.00D+00 NBFU=    84
 Initial guess from the checkpoint file:  "/srv/scratch/z5358697/gauss/Gau-2764187.chk"
 B after Tr=     0.000000    0.000000    0.000000
         Rot=    0.999941   -0.000719   -0.000095   -0.010840 Ang=  -1.24 deg.
 ExpMin= 4.38D-02 ExpMax= 5.48D+03 ExpMxC= 8.25D+02 IAcc=2 IRadAn=         4 AccDes= 0.00D+00
 Harris functional with IExCor= 1009 and IRadAn=       4 diagonalized for initial guess.
 HarFok:  IExCor= 1009 AccDes= 0.00D+00 IRadAn=         4 IDoV= 1 UseB2=F ITyADJ=14
 ICtDFT=  3500011 ScaDFX=  1.000000  1.000000  1.000000  1.000000
 FoFCou: FMM=F IPFlag=           0 FMFlag=      100000 FMFlg1=           0
         NFxFlg=           0 DoJE=T BraDBF=F KetDBF=T FulRan=T
         wScrn=  0.000000 ICntrl=     500 IOpCl=  0 I1Cent=   200000004 NGrid=           0
         NMat0=    1 NMatS0=      1 NMatT0=    0 NMatD0=    1 NMtDS0=    0 NMtDT0=    0
 Petite list used in FoFCou.
 Keep R1 ints in memory in canonical form, NReq=7322173.
 Requested convergence on RMS density matrix=1.00D-08 within 128 cycles.
 Requested convergence on MAX density matrix=1.00D-06.
 Requested convergence on             energy=1.00D-06.
 No special actions if energy rises.
 SCF Done:  E(RM062X) =  -228.971902591     A.U. after   11 cycles
            NFock= 11  Conv=0.76D-08     -V/T= 2.0082
 Calling FoFJK, ICntrl=      2127 FMM=F ISym2X=0 I1Cent= 0 IOpClX= 0 NMat=1 NMatS=1 NMatT=0.
 ***** Axes restored to original set *****
 -------------------------------------------------------------------
 Center     Atomic                   Forces (Hartrees/Bohr)
 Number     Number              X              Y              Z
 -------------------------------------------------------------------
      1        6          -0.000674336   -0.000457837    0.004062610
      2        8           0.001338488    0.000091442   -0.001234446
      3        6          -0.000240629   -0.000480484    0.003151486
      4        8          -0.001120152    0.001150880   -0.004818527
      5        1          -0.000460772   -0.000118289    0.000654808
      6        1           0.000405102    0.000426058   -0.000429610
      7        1           0.000481690   -0.000618043   -0.000832446
      8        1           0.000270608    0.000006273   -0.000553875
 -------------------------------------------------------------------
 Cartesian Forces:  Max     0.004818527 RMS     0.001572992

 GradGradGradGradGradGradGradGradGradGradGradGradGradGradGradGradGradGrad
 Berny optimization.
 Using GEDIIS/GDIIS optimizer.
 FormGI is forming the generalized inverse of G from B-inverse, IUseBI=4.
 Internal  Forces:  Max     0.005211770 RMS     0.002031297
 Search for a local minimum.
 Step number   2 out of a maximum of   33
 All quantities printed in internal units (Hartrees-Bohrs-Radians)
 Mixed Optimization -- RFO/linear search
 Update second derivatives using D2CorX and points    1    2
 DE= -2.03D-03 DEPred=-2.45D-03 R= 8.28D-01
 TightC=F SS=  1.41D+00  RLast= 1.27D-01 DXNew= 5.0454D-01 3.8228D-01
 Trust test= 8.28D-01 RLast= 1.27D-01 DXMaxT set to 3.82D-01
 ITU=  1  0
 Use linear search instead of GDIIS.
     Eigenvalues ---    0.01280   0.02248   0.03564   0.10338   0.10696
     Eigenvalues ---    0.15757   0.16000   0.16000   0.16212   0.23583
     Eigenvalues ---    0.27506   0.33612   0.34469   0.34499   0.34613
     Eigenvalues ---    0.40938   0.53950   0.95312
 RFO step:  Lambda=-1.22960555D-04 EMin= 1.28010457D-02
 Quartic linear search produced a step of -0.15196.
 Iteration  1 RMS(Cart)=  0.01593165 RMS(Int)=  0.00012557
 Iteration  2 RMS(Cart)=  0.00011594 RMS(Int)=  0.00001817
 Iteration  3 RMS(Cart)=  0.00000001 RMS(Int)=  0.00001817
 Variable       Old X    -DE/DX   Delta X   Delta X   Delta X     New X
                                 (Linear)    (Quad)   (Total)
    R1        2.70096   0.00182   0.00053   0.00313   0.00365   2.70461
    R2        2.05635   0.00055   0.00130  -0.00030   0.00100   2.05735
    R3        2.06485  -0.00038   0.00006  -0.00101  -0.00094   2.06391
    R4        2.06585  -0.00066  -0.00017  -0.00141  -0.00158   2.06427
    R5        2.52275   0.00232   0.00659  -0.00448   0.00211   2.52486
    R6        2.26914   0.00357   0.00583  -0.00386   0.00197   2.27110
    R7        2.07271   0.00048   0.00121  -0.00033   0.00089   2.07359
    A1        1.83645   0.00155   0.01139  -0.00639   0.00500   1.84145
    A2        1.92756  -0.00079  -0.00245  -0.00144  -0.00385   1.92370
    A3        1.92979  -0.00130  -0.00420  -0.00167  -0.00586   1.92392
    A4        1.93090   0.00020  -0.00149   0.00424   0.00278   1.93368
    A5        1.92851   0.00044  -0.00302   0.00790   0.00486   1.93337
    A6        1.90989  -0.00008  -0.00015  -0.00262  -0.00273   1.90716
    A7        1.99746   0.00503   0.00229   0.01403   0.01632   2.01378
    A8        2.17044   0.00521   0.00868   0.00851   0.01720   2.18764
    A9        1.92210  -0.00223  -0.00444  -0.00214  -0.00657   1.91553
   A10        2.19064  -0.00298  -0.00425  -0.00638  -0.01062   2.18002
    D1        3.13500   0.00001   0.00101   0.00002   0.00098   3.13599
    D2        1.05082  -0.00071  -0.00265  -0.00056  -0.00321   1.04761
    D3       -1.06567   0.00077   0.00173   0.00481   0.00659  -1.05908
    D4       -0.00076   0.00004   0.00009   0.00128   0.00137   0.00061
    D5        3.14073   0.00005   0.00004   0.00156   0.00160  -3.14085
    D6        3.14148   0.00001  -0.00006   0.00033   0.00027  -3.14144
         Item               Value     Threshold  Converged?
 Maximum Force            0.005212     0.000450     NO 
 RMS     Force            0.002031     0.000300     NO 
 Maximum Displacement     0.055753     0.001800     NO 
 RMS     Displacement     0.015925     0.001200     NO 
 Predicted change in Energy=-1.397328D-04
 GradGradGradGradGradGradGradGradGradGradGradGradGradGradGradGradGradGrad

                          Input orientation:                          
 ---------------------------------------------------------------------
 Center     Atomic      Atomic             Coordinates (Angstroms)
 Number     Number       Type             X           Y           Z
 ---------------------------------------------------------------------
      1          6           0        0.336396   -1.024824    0.053475
      2          8           0        1.571654   -1.189060   -0.650476
      3          6           0        1.520610   -0.940864   -1.962328
      4          8           0        0.539915   -0.600239   -2.567781
      5          1           0        0.557766   -1.269866    1.090886
      6          1           0       -0.421223   -1.699500   -0.351085
      7          1           0       -0.014570    0.005855   -0.034780
      8          1           0        2.511553   -1.094903   -2.407710
 ---------------------------------------------------------------------
                    Distance matrix (angstroms):
                    1          2          3          4          5
     1  C    0.000000
     2  O    1.431217   0.000000
     3  C    2.339417   1.336099   0.000000
     4  O    2.663208   2.255495   1.201817   0.000000
     5  H    1.088702   2.016641   3.218296   3.719485   0.000000
     6  H    1.092174   2.078881   2.634834   2.654412   1.795073
     7  H    1.092367   2.079185   2.639791   2.662874   1.795037
     8  H    3.285369   1.995031   1.097297   2.039037   4.010994
                    6          7          8
     6  H    0.000000
     7  H    1.781475   0.000000
     8  H    3.632688   3.636449   0.000000
 Stoichiometry    C2H4O2
 Framework group  C1[X(C2H4O2)]
 Deg. of freedom    18
 Full point group                 C1      NOp   1
 Largest Abelian subgroup         C1      NOp   1
 Largest concise Abelian subgroup C1      NOp   1
                         Standard orientation:                         
 ---------------------------------------------------------------------
 Center     Atomic      Atomic             Coordinates (Angstroms)
 Number     Number       Type             X           Y           Z
 ---------------------------------------------------------------------
      1          6           0        1.357790   -0.400964   -0.000126
      2          8           0        0.477004    0.727130    0.000224
      3          6           0       -0.826915    0.435657   -0.000048
      4          8           0       -1.291516   -0.672725    0.000046
      5          1           0        2.363793    0.015209   -0.005720
      6          1           0        1.186590   -1.013270   -0.888166
      7          1           0        1.194574   -1.007962    0.893283
      8          1           0       -1.414106    1.362624   -0.000513
 ---------------------------------------------------------------------
 Rotational constants (GHZ):     20.1850759      6.9270923      5.3312470
 Standard basis: 6-31+G(d) (6D, 7F)
 There are    84 symmetry adapted cartesian basis functions of A   symmetry.
 There are    84 symmetry adapted basis functions of A   symmetry.
    84 basis functions,   144 primitive gaussians,    84 cartesian basis functions
    16 alpha electrons       16 beta electrons
       nuclear repulsion energy       122.5766551760 Hartrees.
 NAtoms=    8 NActive=    8 NUniq=    8 SFac= 1.00D+00 NAtFMM=   60 NAOKFM=F Big=F
 Integral buffers will be    131072 words long.
 Raffenetti 2 integral format.
 Two-electron integral symmetry is turned on.
 One-electron integrals computed using PRISM.
 NBasis=    84 RedAO= T EigKep=  1.56D-03  NBF=    84
 NBsUse=    84 1.00D-06 EigRej= -1.00D+00 NBFU=    84
 Initial guess from the checkpoint file:  "/srv/scratch/z5358697/gauss/Gau-2764187.chk"
 B after Tr=     0.000000    0.000000    0.000000
         Rot=    0.999998   -0.000083    0.000098    0.001759 Ang=  -0.20 deg.
 ExpMin= 4.38D-02 ExpMax= 5.48D+03 ExpMxC= 8.25D+02 IAcc=2 IRadAn=         4 AccDes= 0.00D+00
 Harris functional with IExCor= 1009 and IRadAn=       4 diagonalized for initial guess.
 HarFok:  IExCor= 1009 AccDes= 0.00D+00 IRadAn=         4 IDoV= 1 UseB2=F ITyADJ=14
 ICtDFT=  3500011 ScaDFX=  1.000000  1.000000  1.000000  1.000000
 FoFCou: FMM=F IPFlag=           0 FMFlag=      100000 FMFlg1=           0
         NFxFlg=           0 DoJE=T BraDBF=F KetDBF=T FulRan=T
         wScrn=  0.000000 ICntrl=     500 IOpCl=  0 I1Cent=   200000004 NGrid=           0
         NMat0=    1 NMatS0=      1 NMatT0=    0 NMatD0=    1 NMtDS0=    0 NMtDT0=    0
 Petite list used in FoFCou.
 Keep R1 ints in memory in canonical form, NReq=7322173.
 Requested convergence on RMS density matrix=1.00D-08 within 128 cycles.
 Requested convergence on MAX density matrix=1.00D-06.
 Requested convergence on             energy=1.00D-06.
 No special actions if energy rises.
 SCF Done:  E(RM062X) =  -228.972026816     A.U. after   11 cycles
            NFock= 11  Conv=0.40D-08     -V/T= 2.0083
 Calling FoFJK, ICntrl=      2127 FMM=F ISym2X=0 I1Cent= 0 IOpClX= 0 NMat=1 NMatS=1 NMatT=0.
 ***** Axes restored to original set *****
 -------------------------------------------------------------------
 Center     Atomic                   Forces (Hartrees/Bohr)
 Number     Number              X              Y              Z
 -------------------------------------------------------------------
      1        6           0.000021376   -0.000041744    0.000551909
      2        8           0.000243089    0.000156578   -0.001213712
      3        6           0.000204200   -0.000298627    0.001443676
      4        8          -0.000787866    0.000226433   -0.000191956
      5        1          -0.000209893    0.000051434   -0.000018981
      6        1           0.000027574   -0.000075235   -0.000205564
      7        1           0.000134170    0.000030341   -0.000202114
      8        1           0.000367350   -0.000049179   -0.000163257
 -------------------------------------------------------------------
 Cartesian Forces:  Max     0.001443676 RMS     0.000461292

 GradGradGradGradGradGradGradGradGradGradGradGradGradGradGradGradGradGrad
 Berny optimization.
 Using GEDIIS/GDIIS optimizer.
 FormGI is forming the generalized inverse of G from B-inverse, IUseBI=4.
 Internal  Forces:  Max     0.001121626 RMS     0.000406372
 Search for a local minimum.
 Step number   3 out of a maximum of   33
 All quantities printed in internal units (Hartrees-Bohrs-Radians)
 Mixed Optimization -- En-DIIS/RFO-DIIS
 Update second derivatives using D2CorX and points    1    2    3
 DE= -1.24D-04 DEPred=-1.40D-04 R= 8.89D-01
 TightC=F SS=  1.41D+00  RLast= 3.03D-02 DXNew= 6.4291D-01 9.0856D-02
 Trust test= 8.89D-01 RLast= 3.03D-02 DXMaxT set to 3.82D-01
 ITU=  1  1  0
 Use linear search instead of GDIIS.
     Eigenvalues ---    0.01279   0.02249   0.03561   0.10070   0.10678
     Eigenvalues ---    0.15625   0.16000   0.16016   0.16248   0.23451
     Eigenvalues ---    0.30497   0.33658   0.34468   0.34491   0.34828
     Eigenvalues ---    0.40535   0.57624   0.94847
 RFO step:  Lambda=-1.04422157D-05 EMin= 1.27932861D-02
 Quartic linear search produced a step of -0.05730.
 Iteration  1 RMS(Cart)=  0.00397782 RMS(Int)=  0.00000780
 Iteration  2 RMS(Cart)=  0.00000800 RMS(Int)=  0.00000165
 Iteration  3 RMS(Cart)=  0.00000000 RMS(Int)=  0.00000165
 Variable       Old X    -DE/DX   Delta X   Delta X   Delta X     New X
                                 (Linear)    (Quad)   (Total)
    R1        2.70461   0.00012  -0.00021   0.00062   0.00041   2.70502
    R2        2.05735  -0.00008  -0.00006  -0.00012  -0.00018   2.05717
    R3        2.06391   0.00011   0.00005   0.00022   0.00027   2.06418
    R4        2.06427   0.00001   0.00009  -0.00012  -0.00003   2.06425
    R5        2.52486  -0.00112  -0.00012  -0.00171  -0.00184   2.52303
    R6        2.27110   0.00078  -0.00011   0.00098   0.00086   2.27197
    R7        2.07359   0.00042  -0.00005   0.00125   0.00120   2.07479
    A1        1.84145   0.00054  -0.00029   0.00421   0.00392   1.84537
    A2        1.92370  -0.00032   0.00022  -0.00248  -0.00226   1.92144
    A3        1.92392  -0.00041   0.00034  -0.00319  -0.00286   1.92107
    A4        1.93368   0.00005  -0.00016   0.00097   0.00081   1.93450
    A5        1.93337   0.00007  -0.00028   0.00123   0.00095   1.93432
    A6        1.90716   0.00006   0.00016  -0.00068  -0.00053   1.90663
    A7        2.01378  -0.00095  -0.00094  -0.00200  -0.00293   2.01085
    A8        2.18764  -0.00032  -0.00099   0.00032  -0.00066   2.18698
    A9        1.91553   0.00012   0.00038  -0.00019   0.00018   1.91571
   A10        2.18002   0.00020   0.00061  -0.00013   0.00048   2.18049
    D1        3.13599   0.00002  -0.00006   0.00121   0.00115   3.13714
    D2        1.04761  -0.00018   0.00018  -0.00109  -0.00090   1.04672
    D3       -1.05908   0.00021  -0.00038   0.00343   0.00305  -1.05603
    D4        0.00061   0.00000  -0.00008  -0.00008  -0.00016   0.00045
    D5       -3.14085  -0.00001  -0.00009  -0.00021  -0.00030  -3.14115
    D6       -3.14144  -0.00001  -0.00002  -0.00015  -0.00016   3.14159
         Item               Value     Threshold  Converged?
 Maximum Force            0.001122     0.000450     NO 
 RMS     Force            0.000406     0.000300     NO 
 Maximum Displacement     0.008872     0.001800     NO 
 RMS     Displacement     0.003980     0.001200     NO 
 Predicted change in Energy=-5.691140D-06
 GradGradGradGradGradGradGradGradGradGradGradGradGradGradGradGradGradGrad

                          Input orientation:                          
 ---------------------------------------------------------------------
 Center     Atomic      Atomic             Coordinates (Angstroms)
 Number     Number       Type             X           Y           Z
 ---------------------------------------------------------------------
      1          6           0        0.337675   -1.025311    0.053367
      2          8           0        1.573514   -1.190102   -0.649874
      3          6           0        1.519746   -0.940904   -1.960437
      4          8           0        0.536960   -0.599716   -2.563087
      5          1           0        0.554376   -1.268769    1.092037
      6          1           0       -0.418755   -1.699766   -0.354163
      7          1           0       -0.011718    0.005509   -0.039203
      8          1           0        2.510303   -1.094341   -2.408441
 ---------------------------------------------------------------------
                    Distance matrix (angstroms):
                    1          2          3          4          5
     1  C    0.000000
     2  O    1.431433   0.000000
     3  C    2.336627   1.335128   0.000000
     4  O    2.658322   2.254636   1.202274   0.000000
     5  H    1.088608   2.019675   3.218235   3.715894   0.000000
     6  H    1.092317   2.077580   2.629406   2.646289   1.795616
     7  H    1.092353   2.077345   2.632911   2.652797   1.795536
     8  H    3.284140   1.994819   1.097931   2.040257   4.013655
                    6          7          8
     6  H    0.000000
     7  H    1.781247   0.000000
     8  H    3.628496   3.630915   0.000000
 Stoichiometry    C2H4O2
 Framework group  C1[X(C2H4O2)]
 Deg. of freedom    18
 Full point group                 C1      NOp   1
 Largest Abelian subgroup         C1      NOp   1
 Largest concise Abelian subgroup C1      NOp   1
                         Standard orientation:                         
 ---------------------------------------------------------------------
 Center     Atomic      Atomic             Coordinates (Angstroms)
 Number     Number       Type             X           Y           Z
 ---------------------------------------------------------------------
      1          6           0        1.355569   -0.401400   -0.000085
      2          8           0        0.476855    0.728584    0.000133
      3          6           0       -0.825831    0.436049   -0.000064
      4          8           0       -1.288789   -0.673515    0.000043
      5          1           0        2.363917    0.008819   -0.004551
      6          1           0        1.180736   -1.012493   -0.888430
      7          1           0        1.186829   -1.007632    0.892800
      8          1           0       -1.414436    1.362869   -0.000334
 ---------------------------------------------------------------------
 Rotational constants (GHZ):     20.1413709      6.9495715      5.3414368
 Standard basis: 6-31+G(d) (6D, 7F)
 There are    84 symmetry adapted cartesian basis functions of A   symmetry.
 There are    84 symmetry adapted basis functions of A   symmetry.
    84 basis functions,   144 primitive gaussians,    84 cartesian basis functions
    16 alpha electrons       16 beta electrons
       nuclear repulsion energy       122.6280937816 Hartrees.
 NAtoms=    8 NActive=    8 NUniq=    8 SFac= 1.00D+00 NAtFMM=   60 NAOKFM=F Big=F
 Integral buffers will be    131072 words long.
 Raffenetti 2 integral format.
 Two-electron integral symmetry is turned on.
 One-electron integrals computed using PRISM.
 NBasis=    84 RedAO= T EigKep=  1.55D-03  NBF=    84
 NBsUse=    84 1.00D-06 EigRej= -1.00D+00 NBFU=    84
 Initial guess from the checkpoint file:  "/srv/scratch/z5358697/gauss/Gau-2764187.chk"
 B after Tr=     0.000000    0.000000    0.000000
         Rot=    1.000000   -0.000023    0.000041    0.000109 Ang=  -0.01 deg.
 Keep R1 ints in memory in canonical form, NReq=7322173.
 Requested convergence on RMS density matrix=1.00D-08 within 128 cycles.
 Requested convergence on MAX density matrix=1.00D-06.
 Requested convergence on             energy=1.00D-06.
 No special actions if energy rises.
 SCF Done:  E(RM062X) =  -228.972031392     A.U. after    9 cycles
            NFock=  9  Conv=0.55D-08     -V/T= 2.0083
 Calling FoFJK, ICntrl=      2127 FMM=F ISym2X=0 I1Cent= 0 IOpClX= 0 NMat=1 NMatS=1 NMatT=0.
 ***** Axes restored to original set *****
 -------------------------------------------------------------------
 Center     Atomic                   Forces (Hartrees/Bohr)
 Number     Number              X              Y              Z
 -------------------------------------------------------------------
      1        6          -0.000241723    0.000068357    0.000118912
      2        8           0.000186531   -0.000041052   -0.000266907
      3        6           0.000218064   -0.000097819    0.000368625
      4        8          -0.000163021    0.000057159   -0.000103406
      5        1           0.000112521   -0.000005939   -0.000110172
      6        1          -0.000017059    0.000003461    0.000040951
      7        1          -0.000040916   -0.000014195    0.000037945
      8        1          -0.000054398    0.000030028   -0.000085948
 -------------------------------------------------------------------
 Cartesian Forces:  Max     0.000368625 RMS     0.000138426

 GradGradGradGradGradGradGradGradGradGradGradGradGradGradGradGradGradGrad
 Berny optimization.
 Using GEDIIS/GDIIS optimizer.
 FormGI is forming the generalized inverse of G from B-inverse, IUseBI=4.
 Internal  Forces:  Max     0.000247373 RMS     0.000098037
 Search for a local minimum.
 Step number   4 out of a maximum of   33
 All quantities printed in internal units (Hartrees-Bohrs-Radians)
 Mixed Optimization -- En-DIIS/RFO-DIIS
 Swapping is turned off.
 Update second derivatives using D2CorX and points    1    2    3    4
 DE= -4.58D-06 DEPred=-5.69D-06 R= 8.04D-01
 TightC=F SS=  1.41D+00  RLast= 7.56D-03 DXNew= 6.4291D-01 2.2690D-02
 Trust test= 8.04D-01 RLast= 7.56D-03 DXMaxT set to 3.82D-01
 ITU=  1  1  1  0
     Eigenvalues ---    0.01269   0.02248   0.03561   0.10240   0.10703
     Eigenvalues ---    0.15317   0.15930   0.16004   0.19169   0.23813
     Eigenvalues ---    0.30523   0.33242   0.34462   0.34547   0.34761
     Eigenvalues ---    0.39594   0.53454   0.93299
 En-DIIS/RFO-DIIS IScMMF=        0 using points:     4    3
 RFO step:  Lambda=-3.79453746D-07.
 DidBck=F Rises=F RFO-DIIS coefs:    0.93729    0.06271
 Iteration  1 RMS(Cart)=  0.00065053 RMS(Int)=  0.00000030
 Iteration  2 RMS(Cart)=  0.00000029 RMS(Int)=  0.00000011
 Variable       Old X    -DE/DX   Delta X   Delta X   Delta X     New X
                                 (Linear)    (Quad)   (Total)
    R1        2.70502   0.00025  -0.00003   0.00065   0.00063   2.70564
    R2        2.05717  -0.00009   0.00001  -0.00027  -0.00026   2.05691
    R3        2.06418   0.00000  -0.00002   0.00004   0.00002   2.06420
    R4        2.06425   0.00001   0.00000   0.00000   0.00000   2.06425
    R5        2.52303  -0.00022   0.00012  -0.00063  -0.00051   2.52251
    R6        2.27197   0.00018  -0.00005   0.00028   0.00023   2.27220
    R7        2.07479  -0.00001  -0.00008   0.00014   0.00007   2.07486
    A1        1.84537  -0.00019  -0.00025  -0.00070  -0.00095   1.84442
    A2        1.92144   0.00007   0.00014   0.00012   0.00026   1.92170
    A3        1.92107   0.00011   0.00018   0.00027   0.00045   1.92152
    A4        1.93450   0.00002  -0.00005   0.00017   0.00012   1.93462
    A5        1.93432   0.00002  -0.00006   0.00026   0.00020   1.93452
    A6        1.90663  -0.00003   0.00003  -0.00012  -0.00009   1.90654
    A7        2.01085   0.00005   0.00018  -0.00007   0.00012   2.01097
    A8        2.18698  -0.00001   0.00004  -0.00003   0.00001   2.18698
    A9        1.91571   0.00008  -0.00001   0.00044   0.00043   1.91614
   A10        2.18049  -0.00006  -0.00003  -0.00041  -0.00044   2.18006
    D1        3.13714   0.00001  -0.00007   0.00097   0.00090   3.13803
    D2        1.04672   0.00005   0.00006   0.00111   0.00116   1.04788
    D3       -1.05603  -0.00002  -0.00019   0.00101   0.00082  -1.05521
    D4        0.00045   0.00000   0.00001  -0.00019  -0.00018   0.00027
    D5       -3.14115   0.00000   0.00002  -0.00020  -0.00018  -3.14133
    D6        3.14159   0.00000   0.00001  -0.00001   0.00000   3.14159
         Item               Value     Threshold  Converged?
 Maximum Force            0.000247     0.000450     YES
 RMS     Force            0.000098     0.000300     YES
 Maximum Displacement     0.001309     0.001800     YES
 RMS     Displacement     0.000651     0.001200     YES
 Predicted change in Energy=-3.542433D-07
 Optimization completed.
    -- Stationary point found.
                           ----------------------------
                           !   Optimized Parameters   !
                           ! (Angstroms and Degrees)  !
 --------------------------                            --------------------------
 ! Name  Definition              Value          Derivative Info.                !
 --------------------------------------------------------------------------------
 ! R1    R(1,2)                  1.4314         -DE/DX =    0.0002              !
 ! R2    R(1,5)                  1.0886         -DE/DX =   -0.0001              !
 ! R3    R(1,6)                  1.0923         -DE/DX =    0.0                 !
 ! R4    R(1,7)                  1.0924         -DE/DX =    0.0                 !
 ! R5    R(2,3)                  1.3351         -DE/DX =   -0.0002              !
 ! R6    R(3,4)                  1.2023         -DE/DX =    0.0002              !
 ! R7    R(3,8)                  1.0979         -DE/DX =    0.0                 !
 ! A1    A(2,1,5)              105.7321         -DE/DX =   -0.0002              !
 ! A2    A(2,1,6)              110.0903         -DE/DX =    0.0001              !
 ! A3    A(2,1,7)              110.069          -DE/DX =    0.0001              !
 ! A4    A(5,1,6)              110.8386         -DE/DX =    0.0                 !
 ! A5    A(5,1,7)              110.8284         -DE/DX =    0.0                 !
 ! A6    A(6,1,7)              109.2419         -DE/DX =    0.0                 !
 ! A7    A(1,2,3)              115.2133         -DE/DX =    0.0                 !
 ! A8    A(2,3,4)              125.3046         -DE/DX =    0.0                 !
 ! A9    A(2,3,8)              109.7623         -DE/DX =    0.0001              !
 ! A10   A(4,3,8)              124.9331         -DE/DX =   -0.0001              !
 ! D1    D(5,1,2,3)            179.7448         -DE/DX =    0.0                 !
 ! D2    D(6,1,2,3)             59.9724         -DE/DX =    0.0001              !
 ! D3    D(7,1,2,3)            -60.5062         -DE/DX =    0.0                 !
 ! D4    D(1,2,3,4)              0.0259         -DE/DX =    0.0                 !
 ! D5    D(1,2,3,8)           -179.9744         -DE/DX =    0.0                 !
 ! D6    D(2,3,4,8)            179.9996         -DE/DX =    0.0                 !
 --------------------------------------------------------------------------------
 GradGradGradGradGradGradGradGradGradGradGradGradGradGradGradGradGradGrad

                          Input orientation:                          
 ---------------------------------------------------------------------
 Center     Atomic      Atomic             Coordinates (Angstroms)
 Number     Number       Type             X           Y           Z
 ---------------------------------------------------------------------
      1          6           0        0.337675   -1.025311    0.053367
      2          8           0        1.573514   -1.190102   -0.649874
      3          6           0        1.519746   -0.940904   -1.960437
      4          8           0        0.536960   -0.599716   -2.563087
      5          1           0        0.554376   -1.268769    1.092037
      6          1           0       -0.418755   -1.699766   -0.354163
      7          1           0       -0.011718    0.005509   -0.039203
      8          1           0        2.510303   -1.094341   -2.408441
 ---------------------------------------------------------------------
                    Distance matrix (angstroms):
                    1          2          3          4          5
     1  C    0.000000
     2  O    1.431433   0.000000
     3  C    2.336627   1.335128   0.000000
     4  O    2.658322   2.254636   1.202274   0.000000
     5  H    1.088608   2.019675   3.218235   3.715894   0.000000
     6  H    1.092317   2.077580   2.629406   2.646289   1.795616
     7  H    1.092353   2.077345   2.632911   2.652797   1.795536
     8  H    3.284140   1.994819   1.097931   2.040257   4.013655
                    6          7          8
     6  H    0.000000
     7  H    1.781247   0.000000
     8  H    3.628496   3.630915   0.000000
 Stoichiometry    C2H4O2
 Framework group  C1[X(C2H4O2)]
 Deg. of freedom    18
 Full point group                 C1      NOp   1
 Largest Abelian subgroup         C1      NOp   1
 Largest concise Abelian subgroup C1      NOp   1
                         Standard orientation:                         
 ---------------------------------------------------------------------
 Center     Atomic      Atomic             Coordinates (Angstroms)
 Number     Number       Type             X           Y           Z
 ---------------------------------------------------------------------
      1          6           0        1.355569   -0.401400   -0.000085
      2          8           0        0.476855    0.728584    0.000133
      3          6           0       -0.825831    0.436049   -0.000064
      4          8           0       -1.288789   -0.673515    0.000043
      5          1           0        2.363917    0.008819   -0.004551
      6          1           0        1.180736   -1.012493   -0.888430
      7          1           0        1.186829   -1.007632    0.892800
      8          1           0       -1.414436    1.362869   -0.000334
 ---------------------------------------------------------------------
 Rotational constants (GHZ):     20.1413709      6.9495715      5.3414368

 **********************************************************************

            Population analysis using the SCF density.

 **********************************************************************

 Orbital symmetries:
       Occupied  (A) (A) (A) (A) (A) (A) (A) (A) (A) (A) (A) (A)
                 (A) (A) (A) (A)
       Virtual   (A) (A) (A) (A) (A) (A) (A) (A) (A) (A) (A) (A)
                 (A) (A) (A) (A) (A) (A) (A) (A) (A) (A) (A) (A)
                 (A) (A) (A) (A) (A) (A) (A) (A) (A) (A) (A) (A)
                 (A) (A) (A) (A) (A) (A) (A) (A) (A) (A) (A) (A)
                 (A) (A) (A) (A) (A) (A) (A) (A) (A) (A) (A) (A)
                 (A) (A) (A) (A) (A) (A) (A) (A)
 The electronic state is 1-A.
 Alpha  occ. eigenvalues --  -19.70674 -19.65329 -10.69147 -10.61099  -1.24994
 Alpha  occ. eigenvalues --   -1.15675  -0.84421  -0.69026  -0.62584  -0.57584
 Alpha  occ. eigenvalues --   -0.56801  -0.50320  -0.47651  -0.44348  -0.38691
 Alpha  occ. eigenvalues --   -0.37070
 Alpha virt. eigenvalues --    0.02296   0.02843   0.03536   0.04923   0.05781
 Alpha virt. eigenvalues --    0.05837   0.07956   0.09386   0.13097   0.18835
 Alpha virt. eigenvalues --    0.20121   0.20407   0.23361   0.25102   0.25907
 Alpha virt. eigenvalues --    0.26109   0.28040   0.28322   0.31681   0.33246
 Alpha virt. eigenvalues --    0.34433   0.36174   0.39588   0.52368   0.68560
 Alpha virt. eigenvalues --    0.70748   0.72078   0.73979   0.81808   0.86015
 Alpha virt. eigenvalues --    0.94967   0.98263   1.04656   1.11540   1.14109
 Alpha virt. eigenvalues --    1.20744   1.22238   1.27256   1.29772   1.30990
 Alpha virt. eigenvalues --    1.37311   1.41901   1.43383   1.49439   1.59036
 Alpha virt. eigenvalues --    1.61741   1.72109   1.73927   1.85769   1.88291
 Alpha virt. eigenvalues --    1.95682   2.08256   2.09853   2.17845   2.28706
 Alpha virt. eigenvalues --    2.34090   2.35516   2.42844   2.57243   2.72026
 Alpha virt. eigenvalues --    2.77668   2.94743   3.06022   3.15952   4.14826
 Alpha virt. eigenvalues --    4.19896   4.36817   4.41949
          Condensed to atoms (all electrons):
               1          2          3          4          5          6
     1  C    5.212919   0.079236  -0.082536   0.004654   0.401288   0.393398
     2  O    0.079236   8.471063   0.136334  -0.143672  -0.054625  -0.031480
     3  C   -0.082536   0.136334   4.754216   0.475281   0.004701  -0.009065
     4  O    0.004654  -0.143672   0.475281   8.148976   0.001299   0.000761
     5  H    0.401288  -0.054625   0.004701   0.001299   0.480754  -0.025850
     6  H    0.393398  -0.031480  -0.009065   0.000761  -0.025850   0.478943
     7  H    0.393490  -0.031484  -0.009121   0.000735  -0.025880  -0.032205
     8  H    0.008742  -0.124095   0.437211  -0.050582  -0.000005  -0.000211
               7          8
     1  C    0.393490   0.008742
     2  O   -0.031484  -0.124095
     3  C   -0.009121   0.437211
     4  O    0.000735  -0.050582
     5  H   -0.025880  -0.000005
     6  H   -0.032205  -0.000211
     7  H    0.479059  -0.000214
     8  H   -0.000214   0.541862
 Mulliken charges:
               1
     1  C   -0.411190
     2  O   -0.301277
     3  C    0.292980
     4  O   -0.437452
     5  H    0.218317
     6  H    0.225710
     7  H    0.225620
     8  H    0.187291
 Sum of Mulliken charges =   0.00000
 Mulliken charges with hydrogens summed into heavy atoms:
               1
     1  C    0.258457
     2  O   -0.301277
     3  C    0.480271
     4  O   -0.437452
 Electronic spatial extent (au):  <R**2>=            253.4526
 Charge=              0.0000 electrons
 Dipole moment (field-independent basis, Debye):
    X=              1.6722    Y=              0.8781    Z=             -0.0010  Tot=              1.8887
 Quadrupole moment (field-independent basis, Debye-Ang):
   XX=            -23.2944   YY=            -24.9555   ZZ=            -23.2727
   XY=             -4.9818   XZ=             -0.0005   YZ=              0.0002
 Traceless Quadrupole moment (field-independent basis, Debye-Ang):
   XX=              0.5465   YY=             -1.1146   ZZ=              0.5681
   XY=             -4.9818   XZ=             -0.0005   YZ=              0.0002
 Octapole moment (field-independent basis, Debye-Ang**2):
  XXX=              6.9134  YYY=              1.1968  ZZZ=              0.0085  XYY=             -1.3983
  XXY=              4.6152  XXZ=             -0.0066  XZZ=             -0.6259  YZZ=             -0.6652
  YYZ=             -0.0051  XYZ=             -0.0043
 Hexadecapole moment (field-independent basis, Debye-Ang**3):
 XXXX=           -201.7407 YYYY=            -83.4734 ZZZZ=            -27.8394 XXXY=             -3.4680
 XXXZ=             -0.0290 YYYX=             -2.7002 YYYZ=              0.0099 ZZZX=              0.0136
 ZZZY=             -0.0055 XXYY=            -47.4704 XXZZ=            -39.8245 YYZZ=            -18.0734
 XXYZ=             -0.0122 YYXZ=              0.0003 ZZXY=             -0.2127
 N-N= 1.226280937816D+02 E-N=-7.814777246969D+02  KE= 2.270862056028D+02
 1\1\GINC-KATANA1\FOpt\RM062X\6-31+G(d)\C2H4O2\Z5358697\18-Mar-2025\0\\
 #m062X/6-31+G(d) OPT Freq=noraman\\methyl formate\\0,1\C,0.3376748015,
 -1.0253114124,0.0533670757\O,1.5735139319,-1.1901017319,-0.6498737041\
 C,1.5197459637,-0.9409039499,-1.9604373081\O,0.5369601071,-0.599716294
 8,-2.5630867119\H,0.5543757434,-1.2687685264,1.0920374423\H,-0.4187553
 392,-1.6997661654,-0.3541626601\H,-0.0117178931,0.0055089995,-0.039203
 0796\H,2.5103026846,-1.0943409187,-2.4084410542\\Version=ES64L-G09RevD
 .01\State=1-A\HF=-228.9720314\RMSD=5.544e-09\RMSF=1.384e-04\Dipole=0.2
 165266,-0.1759522,0.6887236\Quadrupole=0.5079941,0.092102,-0.6000962,0
 .6185066,-3.5352448,1.019662\PG=C01 [X(C2H4O2)]\\@


 A successful marriage requires falling in love
 many times, always with the same person.
                           -- Mignon McLaughlin
 Job cpu time:       0 days  0 hours  0 minutes 32.3 seconds.
 File lengths (MBytes):  RWF=    132 Int=      0 D2E=      0 Chk=      2 Scr=      2
 Normal termination of Gaussian 09 at Tue Mar 18 22:09:26 2025.
 Link1:  Proceeding to internal job step number  2.
 ---------------------------------------------------------------------
 #N Geom=AllCheck Guess=TCheck SCRF=Check GenChk RM062X/6-31+G(d) Freq
 ---------------------------------------------------------------------
 1/10=4,29=7,30=1,38=1,40=1/1,3;
 2/12=2,40=1/2;
 3/5=1,6=6,7=11,11=2,14=-4,16=1,25=1,30=1,70=2,71=2,74=-55,116=1,140=1/1,2,3;
 4/5=101/1;
 5/5=2,98=1/2;
 8/6=4,10=90,11=11/1;
 11/6=1,8=1,9=11,15=111,16=1/1,2,10;
 10/6=1/2;
 6/7=2,8=2,9=2,10=2,18=1,28=1/1;
 7/8=1,10=1,25=1/1,2,3,16;
 1/10=4,30=1/3;
 99//99;
 Structure from the checkpoint file:  "/srv/scratch/z5358697/gauss/Gau-2764187.chk"
 --------------
 methyl formate
 --------------
 Charge =  0 Multiplicity = 1
 Redundant internal coordinates found in file.
 C,0,0.3376748015,-1.0253114124,0.0533670757
 O,0,1.5735139319,-1.1901017319,-0.6498737041
 C,0,1.5197459637,-0.9409039499,-1.9604373081
 O,0,0.5369601071,-0.5997162948,-2.5630867119
 H,0,0.5543757434,-1.2687685264,1.0920374423
 H,0,-0.4187553392,-1.6997661654,-0.3541626601
 H,0,-0.0117178931,0.0055089995,-0.0392030796
 H,0,2.5103026846,-1.0943409187,-2.4084410542
 Recover connectivity data from disk.

 GradGradGradGradGradGradGradGradGradGradGradGradGradGradGradGradGradGrad
 Berny optimization.
 Initialization pass.
                           ----------------------------
                           !    Initial Parameters    !
                           ! (Angstroms and Degrees)  !
 --------------------------                            --------------------------
 ! Name  Definition              Value          Derivative Info.                !
 --------------------------------------------------------------------------------
 ! R1    R(1,2)                  1.4314         calculate D2E/DX2 analytically  !
 ! R2    R(1,5)                  1.0886         calculate D2E/DX2 analytically  !
 ! R3    R(1,6)                  1.0923         calculate D2E/DX2 analytically  !
 ! R4    R(1,7)                  1.0924         calculate D2E/DX2 analytically  !
 ! R5    R(2,3)                  1.3351         calculate D2E/DX2 analytically  !
 ! R6    R(3,4)                  1.2023         calculate D2E/DX2 analytically  !
 ! R7    R(3,8)                  1.0979         calculate D2E/DX2 analytically  !
 ! A1    A(2,1,5)              105.7321         calculate D2E/DX2 analytically  !
 ! A2    A(2,1,6)              110.0903         calculate D2E/DX2 analytically  !
 ! A3    A(2,1,7)              110.069          calculate D2E/DX2 analytically  !
 ! A4    A(5,1,6)              110.8386         calculate D2E/DX2 analytically  !
 ! A5    A(5,1,7)              110.8284         calculate D2E/DX2 analytically  !
 ! A6    A(6,1,7)              109.2419         calculate D2E/DX2 analytically  !
 ! A7    A(1,2,3)              115.2133         calculate D2E/DX2 analytically  !
 ! A8    A(2,3,4)              125.3046         calculate D2E/DX2 analytically  !
 ! A9    A(2,3,8)              109.7623         calculate D2E/DX2 analytically  !
 ! A10   A(4,3,8)              124.9331         calculate D2E/DX2 analytically  !
 ! D1    D(5,1,2,3)            179.7448         calculate D2E/DX2 analytically  !
 ! D2    D(6,1,2,3)             59.9724         calculate D2E/DX2 analytically  !
 ! D3    D(7,1,2,3)            -60.5062         calculate D2E/DX2 analytically  !
 ! D4    D(1,2,3,4)              0.0259         calculate D2E/DX2 analytically  !
 ! D5    D(1,2,3,8)           -179.9744         calculate D2E/DX2 analytically  !
 ! D6    D(2,3,4,8)            179.9996         calculate D2E/DX2 analytically  !
 --------------------------------------------------------------------------------
 Trust Radius=3.00D-01 FncErr=1.00D-07 GrdErr=1.00D-07
 Number of steps in this run=      2 maximum allowed number of steps=      2.
 GradGradGradGradGradGradGradGradGradGradGradGradGradGradGradGradGradGrad

                          Input orientation:                          
 ---------------------------------------------------------------------
 Center     Atomic      Atomic             Coordinates (Angstroms)
 Number     Number       Type             X           Y           Z
 ---------------------------------------------------------------------
      1          6           0        0.337675   -1.025311    0.053367
      2          8           0        1.573514   -1.190102   -0.649874
      3          6           0        1.519746   -0.940904   -1.960437
      4          8           0        0.536960   -0.599716   -2.563087
      5          1           0        0.554376   -1.268769    1.092037
      6          1           0       -0.418755   -1.699766   -0.354163
      7          1           0       -0.011718    0.005509   -0.039203
      8          1           0        2.510303   -1.094341   -2.408441
 ---------------------------------------------------------------------
                    Distance matrix (angstroms):
                    1          2          3          4          5
     1  C    0.000000
     2  O    1.431433   0.000000
     3  C    2.336627   1.335128   0.000000
     4  O    2.658322   2.254636   1.202274   0.000000
     5  H    1.088608   2.019675   3.218235   3.715894   0.000000
     6  H    1.092317   2.077580   2.629406   2.646289   1.795616
     7  H    1.092353   2.077345   2.632911   2.652797   1.795536
     8  H    3.284140   1.994819   1.097931   2.040257   4.013655
                    6          7          8
     6  H    0.000000
     7  H    1.781247   0.000000
     8  H    3.628496   3.630915   0.000000
 Stoichiometry    C2H4O2
 Framework group  C1[X(C2H4O2)]
 Deg. of freedom    18
 Full point group                 C1      NOp   1
 Largest Abelian subgroup         C1      NOp   1
 Largest concise Abelian subgroup C1      NOp   1
                         Standard orientation:                         
 ---------------------------------------------------------------------
 Center     Atomic      Atomic             Coordinates (Angstroms)
 Number     Number       Type             X           Y           Z
 ---------------------------------------------------------------------
      1          6           0        1.355569   -0.401400   -0.000085
      2          8           0        0.476855    0.728584    0.000133
      3          6           0       -0.825831    0.436049   -0.000064
      4          8           0       -1.288789   -0.673515    0.000043
      5          1           0        2.363917    0.008819   -0.004551
      6          1           0        1.180736   -1.012493   -0.888430
      7          1           0        1.186829   -1.007632    0.892800
      8          1           0       -1.414436    1.362869   -0.000334
 ---------------------------------------------------------------------
 Rotational constants (GHZ):     20.1413709      6.9495715      5.3414368
 Standard basis: 6-31+G(d) (6D, 7F)
 There are    84 symmetry adapted cartesian basis functions of A   symmetry.
 There are    84 symmetry adapted basis functions of A   symmetry.
    84 basis functions,   144 primitive gaussians,    84 cartesian basis functions
    16 alpha electrons       16 beta electrons
       nuclear repulsion energy       122.6280937816 Hartrees.
 NAtoms=    8 NActive=    8 NUniq=    8 SFac= 1.00D+00 NAtFMM=   60 NAOKFM=F Big=F
 Integral buffers will be    131072 words long.
 Raffenetti 2 integral format.
 Two-electron integral symmetry is turned on.
 One-electron integrals computed using PRISM.
 NBasis=    84 RedAO= T EigKep=  1.55D-03  NBF=    84
 NBsUse=    84 1.00D-06 EigRej= -1.00D+00 NBFU=    84
 Initial guess from the checkpoint file:  "/srv/scratch/z5358697/gauss/Gau-2764187.chk"
 B after Tr=     0.000000    0.000000    0.000000
         Rot=    1.000000    0.000000    0.000000    0.000000 Ang=   0.00 deg.
 Keep R1 ints in memory in canonical form, NReq=7322173.
 Requested convergence on RMS density matrix=1.00D-08 within 128 cycles.
 Requested convergence on MAX density matrix=1.00D-06.
 Requested convergence on             energy=1.00D-06.
 No special actions if energy rises.
 SCF Done:  E(RM062X) =  -228.972031392     A.U. after    1 cycles
            NFock=  1  Conv=0.23D-08     -V/T= 2.0083
 DoSCS=F DFT=T ScalE2(SS,OS)=  1.000000  1.000000
 Range of M.O.s used for correlation:     1    84
 NBasis=    84 NAE=    16 NBE=    16 NFC=     0 NFV=     0
 NROrb=     84 NOA=    16 NOB=    16 NVA=    68 NVB=    68

 **** Warning!!: The largest alpha MO coefficient is  0.10830128D+02

 Symmetrizing basis deriv contribution to polar:
 IMax=3 JMax=2 DiffMx= 0.00D+00
 G2DrvN: will do     9 centers at a time, making    1 passes.
 Calling FoFCou, ICntrl=  3107 FMM=F I1Cent=   0 AccDes= 0.00D+00.
 End of G2Drv F.D. properties file   721 does not exist.
 End of G2Drv F.D. properties file   722 does not exist.
 End of G2Drv F.D. properties file   788 does not exist.
          IDoAtm=11111111
          Differentiating once with respect to electric field.
                with respect to dipole field.
          Differentiating once with respect to nuclear coordinates.
 Keep R1 ints in memory in canonical form, NReq=7282413.
          There are    27 degrees of freedom in the 1st order CPHF.  IDoFFX=6 NUNeed=     3.
     24 vectors produced by pass  0 Test12= 4.03D-15 3.70D-09 XBig12= 1.42D+01 1.60D+00.
 AX will form    24 AO Fock derivatives at one time.
     24 vectors produced by pass  1 Test12= 4.03D-15 3.70D-09 XBig12= 1.38D+00 3.05D-01.
     24 vectors produced by pass  2 Test12= 4.03D-15 3.70D-09 XBig12= 2.08D-02 3.75D-02.
     24 vectors produced by pass  3 Test12= 4.03D-15 3.70D-09 XBig12= 2.20D-04 3.54D-03.
     24 vectors produced by pass  4 Test12= 4.03D-15 3.70D-09 XBig12= 1.33D-06 2.68D-04.
     24 vectors produced by pass  5 Test12= 4.03D-15 3.70D-09 XBig12= 5.27D-09 1.10D-05.
     12 vectors produced by pass  6 Test12= 4.03D-15 3.70D-09 XBig12= 1.16D-11 5.67D-07.
      3 vectors produced by pass  7 Test12= 4.03D-15 3.70D-09 XBig12= 2.67D-14 3.26D-08.
 InvSVY:  IOpt=1 It=  1 EMax= 2.22D-15
 Solved reduced A of dimension   159 with    27 vectors.
 Isotropic polarizability for W=    0.000000       30.05 Bohr**3.
 End of Minotr F.D. properties file   721 does not exist.
 End of Minotr F.D. properties file   722 does not exist.
 End of Minotr F.D. properties file   788 does not exist.

 **********************************************************************

            Population analysis using the SCF density.

 **********************************************************************

 Orbital symmetries:
       Occupied  (A) (A) (A) (A) (A) (A) (A) (A) (A) (A) (A) (A)
                 (A) (A) (A) (A)
       Virtual   (A) (A) (A) (A) (A) (A) (A) (A) (A) (A) (A) (A)
                 (A) (A) (A) (A) (A) (A) (A) (A) (A) (A) (A) (A)
                 (A) (A) (A) (A) (A) (A) (A) (A) (A) (A) (A) (A)
                 (A) (A) (A) (A) (A) (A) (A) (A) (A) (A) (A) (A)
                 (A) (A) (A) (A) (A) (A) (A) (A) (A) (A) (A) (A)
                 (A) (A) (A) (A) (A) (A) (A) (A)
 The electronic state is 1-A.
 Alpha  occ. eigenvalues --  -19.70674 -19.65329 -10.69147 -10.61099  -1.24994
 Alpha  occ. eigenvalues --   -1.15675  -0.84421  -0.69026  -0.62584  -0.57584
 Alpha  occ. eigenvalues --   -0.56801  -0.50320  -0.47651  -0.44348  -0.38691
 Alpha  occ. eigenvalues --   -0.37070
 Alpha virt. eigenvalues --    0.02296   0.02843   0.03536   0.04923   0.05781
 Alpha virt. eigenvalues --    0.05837   0.07956   0.09386   0.13097   0.18835
 Alpha virt. eigenvalues --    0.20121   0.20407   0.23361   0.25102   0.25907
 Alpha virt. eigenvalues --    0.26109   0.28040   0.28322   0.31681   0.33246
 Alpha virt. eigenvalues --    0.34433   0.36174   0.39588   0.52368   0.68560
 Alpha virt. eigenvalues --    0.70748   0.72078   0.73979   0.81808   0.86015
 Alpha virt. eigenvalues --    0.94967   0.98263   1.04656   1.11540   1.14109
 Alpha virt. eigenvalues --    1.20744   1.22238   1.27256   1.29772   1.30990
 Alpha virt. eigenvalues --    1.37311   1.41901   1.43383   1.49439   1.59036
 Alpha virt. eigenvalues --    1.61741   1.72109   1.73927   1.85769   1.88291
 Alpha virt. eigenvalues --    1.95682   2.08256   2.09853   2.17845   2.28706
 Alpha virt. eigenvalues --    2.34090   2.35516   2.42844   2.57243   2.72026
 Alpha virt. eigenvalues --    2.77668   2.94743   3.06022   3.15952   4.14826
 Alpha virt. eigenvalues --    4.19896   4.36817   4.41949
          Condensed to atoms (all electrons):
               1          2          3          4          5          6
     1  C    5.212919   0.079236  -0.082536   0.004654   0.401288   0.393398
     2  O    0.079236   8.471063   0.136334  -0.143672  -0.054625  -0.031480
     3  C   -0.082536   0.136334   4.754216   0.475281   0.004701  -0.009065
     4  O    0.004654  -0.143672   0.475281   8.148976   0.001299   0.000761
     5  H    0.401288  -0.054625   0.004701   0.001299   0.480754  -0.025850
     6  H    0.393398  -0.031480  -0.009065   0.000761  -0.025850   0.478943
     7  H    0.393490  -0.031484  -0.009121   0.000735  -0.025880  -0.032205
     8  H    0.008742  -0.124095   0.437211  -0.050582  -0.000005  -0.000211
               7          8
     1  C    0.393490   0.008742
     2  O   -0.031484  -0.124095
     3  C   -0.009121   0.437211
     4  O    0.000735  -0.050582
     5  H   -0.025880  -0.000005
     6  H   -0.032205  -0.000211
     7  H    0.479059  -0.000214
     8  H   -0.000214   0.541862
 Mulliken charges:
               1
     1  C   -0.411191
     2  O   -0.301277
     3  C    0.292980
     4  O   -0.437452
     5  H    0.218317
     6  H    0.225710
     7  H    0.225620
     8  H    0.187291
 Sum of Mulliken charges =   0.00000
 Mulliken charges with hydrogens summed into heavy atoms:
               1
     1  C    0.258457
     2  O   -0.301277
     3  C    0.480271
     4  O   -0.437452
 APT charges:
               1
     1  C    0.449651
     2  O   -0.880690
     3  C    1.146701
     4  O   -0.722891
     5  H    0.015255
     6  H   -0.003588
     7  H   -0.003921
     8  H   -0.000517
 Sum of APT charges =   0.00000
 APT charges with hydrogens summed into heavy atoms:
               1
     1  C    0.457397
     2  O   -0.880690
     3  C    1.146184
     4  O   -0.722891
 Electronic spatial extent (au):  <R**2>=            253.4526
 Charge=              0.0000 electrons
 Dipole moment (field-independent basis, Debye):
    X=              1.6722    Y=              0.8781    Z=             -0.0010  Tot=              1.8887
 Quadrupole moment (field-independent basis, Debye-Ang):
   XX=            -23.2944   YY=            -24.9555   ZZ=            -23.2727
   XY=             -4.9818   XZ=             -0.0005   YZ=              0.0002
 Traceless Quadrupole moment (field-independent basis, Debye-Ang):
   XX=              0.5465   YY=             -1.1146   ZZ=              0.5681
   XY=             -4.9818   XZ=             -0.0005   YZ=              0.0002
 Octapole moment (field-independent basis, Debye-Ang**2):
  XXX=              6.9134  YYY=              1.1968  ZZZ=              0.0085  XYY=             -1.3983
  XXY=              4.6152  XXZ=             -0.0066  XZZ=             -0.6259  YZZ=             -0.6652
  YYZ=             -0.0051  XYZ=             -0.0043
 Hexadecapole moment (field-independent basis, Debye-Ang**3):
 XXXX=           -201.7407 YYYY=            -83.4733 ZZZZ=            -27.8394 XXXY=             -3.4680
 XXXZ=             -0.0290 YYYX=             -2.7002 YYYZ=              0.0099 ZZZX=              0.0136
 ZZZY=             -0.0055 XXYY=            -47.4704 XXZZ=            -39.8245 YYZZ=            -18.0734
 XXYZ=             -0.0122 YYXZ=              0.0003 ZZXY=             -0.2127
 N-N= 1.226280937816D+02 E-N=-7.814777268569D+02  KE= 2.270862063979D+02
  Exact polarizability:  35.888   0.810  31.720   0.004  -0.005  22.535
 Approx polarizability:  36.733   4.514  38.007   0.004  -0.004  25.399
 Calling FoFJK, ICntrl=    100127 FMM=F ISym2X=0 I1Cent= 0 IOpClX= 0 NMat=1 NMatS=1 NMatT=0.
 Full mass-weighted force constant matrix:
 Low frequencies ---  -25.2308   -8.9537    0.0010    0.0013    0.0015   31.8026
 Low frequencies ---  134.3211  321.3068  352.9399
 Diagonal vibrational polarizability:
       11.5723541       2.7709635       7.2566812
 Harmonic frequencies (cm**-1), IR intensities (KM/Mole), Raman scattering
 activities (A**4/AMU), depolarization ratios for plane and unpolarized
 incident light, reduced masses (AMU), force constants (mDyne/A),
 and normal coordinates:
                      1                      2                      3
                      A                      A                      A
 Frequencies --    133.1310               321.3057               352.9150
 Red. masses --      1.0786                 3.8983                 2.3689
 Frc consts  --      0.0113                 0.2371                 0.1738
 IR Inten    --      0.1024                15.5435                31.9930
  Atom  AN      X      Y      Z        X      Y      Z        X      Y      Z
     1   6     0.00   0.00  -0.01     0.31   0.10   0.00     0.00   0.00  -0.09
     2   8     0.00   0.00  -0.04     0.00  -0.15   0.00     0.00   0.00   0.20
     3   6     0.00   0.00  -0.01    -0.03  -0.05   0.00     0.00   0.00  -0.21
     4   8     0.00   0.00   0.06    -0.30   0.07   0.00     0.00   0.00   0.11
     5   1     0.00   0.00   0.57     0.18   0.42   0.00     0.00   0.00  -0.20
     6   1     0.40   0.30  -0.29     0.52   0.06  -0.01    -0.16   0.16  -0.17
     7   1    -0.40  -0.30  -0.29     0.52   0.06   0.01     0.16  -0.17  -0.17
     8   1     0.00   0.00  -0.04     0.14   0.07   0.00     0.00   0.00  -0.83
                      4                      5                      6
                      A                      A                      A
 Frequencies --    791.1984               990.4394              1058.4868
 Red. masses --      4.9781                 4.6783                 1.6534
 Frc consts  --      1.8360                 2.7039                 1.0914
 IR Inten    --      9.6400                29.8067                 0.1066
  Atom  AN      X      Y      Z        X      Y      Z        X      Y      Z
     1   6    -0.06   0.09   0.00    -0.28   0.29   0.00     0.00   0.00   0.00
     2   8     0.21   0.25   0.00     0.02  -0.27   0.00     0.00   0.00  -0.05
     3   6     0.17  -0.24   0.00     0.24  -0.07   0.00     0.00   0.00   0.23
     4   8    -0.27  -0.11   0.00     0.01   0.05   0.00     0.00   0.00  -0.06
     5   1     0.17  -0.48   0.00    -0.33   0.40   0.00     0.00   0.00   0.00
     6   1    -0.40   0.15   0.02    -0.12   0.22   0.01    -0.01   0.02  -0.01
     7   1    -0.39   0.15  -0.02    -0.12   0.22  -0.01     0.01  -0.02  -0.01
     8   1     0.17  -0.25   0.00     0.54   0.11   0.00     0.00   0.00  -0.97
                      7                      8                      9
                      A                      A                      A
 Frequencies --   1192.0880              1211.5882              1288.4373
 Red. masses --      1.2833                 1.6032                 5.2198
 Frc consts  --      1.0745                 1.3866                 5.1054
 IR Inten    --      1.6383                35.1936               318.5402
  Atom  AN      X      Y      Z        X      Y      Z        X      Y      Z
     1   6     0.00   0.00   0.14     0.09   0.13   0.00    -0.19   0.08   0.00
     2   8     0.00   0.00  -0.06     0.02  -0.10   0.00     0.39  -0.05   0.00
     3   6     0.00   0.00   0.00    -0.11   0.04   0.00    -0.34   0.08   0.00
     4   8     0.00   0.00   0.00     0.03  -0.01   0.00     0.00  -0.08   0.00
     5   1     0.00   0.00  -0.32     0.40  -0.63   0.00    -0.22   0.20   0.00
     6   1    -0.33   0.54  -0.17    -0.41   0.09   0.12     0.45  -0.05  -0.06
     7   1     0.33  -0.54  -0.17    -0.41   0.09  -0.12     0.45  -0.04   0.06
     8   1     0.00   0.00   0.07     0.00   0.11   0.00    -0.41   0.03   0.00
                     10                     11                     12
                      A                      A                      A
 Frequencies --   1410.8755              1489.9618              1509.3608
 Red. masses --      1.1539                 1.1892                 1.0423
 Frc consts  --      1.3534                 1.5555                 1.3990
 IR Inten    --      1.2640                 5.6071                 9.7208
  Atom  AN      X      Y      Z        X      Y      Z        X      Y      Z
     1   6     0.01   0.02   0.00    -0.07   0.07   0.00     0.00   0.00  -0.05
     2   8     0.01  -0.04   0.00    -0.05   0.02   0.00     0.00   0.00  -0.01
     3   6     0.06  -0.01   0.00     0.03  -0.03   0.00     0.00   0.00   0.00
     4   8     0.00   0.07   0.00     0.01   0.03   0.00     0.00   0.00   0.00
     5   1     0.00   0.03   0.00     0.21  -0.59  -0.01     0.00   0.00   0.72
     6   1    -0.08   0.02   0.02     0.45  -0.28   0.13    -0.48   0.00   0.07
     7   1    -0.08   0.02  -0.02     0.44  -0.28  -0.13     0.49   0.00   0.06
     8   1    -0.80  -0.58   0.00    -0.01  -0.06   0.00     0.00   0.00   0.02
                     13                     14                     15
                      A                      A                      A
 Frequencies --   1518.9535              1863.3690              3108.1700
 Red. masses --      1.0456                 9.3183                 1.0295
 Frc consts  --      1.4213                19.0628                 5.8600
 IR Inten    --     11.8639               363.5358                25.7174
  Atom  AN      X      Y      Z        X      Y      Z        X      Y      Z
     1   6     0.03   0.04   0.00    -0.02   0.03   0.00     0.02  -0.04   0.00
     2   8     0.02   0.01   0.00    -0.04  -0.04   0.00     0.00   0.00   0.00
     3   6     0.00   0.00   0.00     0.31   0.60   0.00     0.00  -0.01   0.00
     4   8    -0.01  -0.01   0.00    -0.18  -0.43   0.00     0.00   0.00   0.00
     5   1    -0.10   0.32   0.00     0.07  -0.18   0.00    -0.45  -0.18   0.00
     6   1    -0.18  -0.50   0.40     0.13  -0.02   0.03     0.10   0.33   0.51
     7   1    -0.19  -0.50  -0.39     0.13  -0.03  -0.03     0.10   0.33  -0.51
     8   1     0.02   0.02   0.00    -0.47   0.18   0.00    -0.03   0.06   0.00
                     16                     17                     18
                      A                      A                      A
 Frequencies --   3137.1048              3190.8429              3219.0768
 Red. masses --      1.0924                 1.1074                 1.1081
 Frc consts  --      6.3341                 6.6428                 6.7655
 IR Inten    --     41.8376                15.2140                 8.9250
  Atom  AN      X      Y      Z        X      Y      Z        X      Y      Z
     1   6     0.00   0.00   0.00     0.00   0.00   0.10    -0.08  -0.06   0.00
     2   8     0.00   0.00   0.00     0.00   0.00   0.00     0.00   0.00   0.00
     3   6     0.04  -0.07   0.00     0.00   0.00   0.00     0.00   0.00   0.00
     4   8     0.00   0.00   0.00     0.00   0.00   0.00     0.00   0.00   0.00
     5   1     0.02   0.01   0.00     0.01   0.00   0.02     0.81   0.34   0.00
     6   1    -0.01  -0.03  -0.04    -0.13  -0.39  -0.57     0.05   0.18   0.29
     7   1    -0.01  -0.03   0.04     0.12   0.39  -0.57     0.04   0.17  -0.28
     8   1    -0.55   0.83   0.00     0.00   0.00   0.00     0.00   0.01   0.00

 -------------------
 - Thermochemistry -
 -------------------
 Temperature   298.150 Kelvin.  Pressure   1.00000 Atm.
 Atom     1 has atomic number  6 and mass  12.00000
 Atom     2 has atomic number  8 and mass  15.99491
 Atom     3 has atomic number  6 and mass  12.00000
 Atom     4 has atomic number  8 and mass  15.99491
 Atom     5 has atomic number  1 and mass   1.00783
 Atom     6 has atomic number  1 and mass   1.00783
 Atom     7 has atomic number  1 and mass   1.00783
 Atom     8 has atomic number  1 and mass   1.00783
 Molecular mass:    60.02113 amu.
 Principal axes and moments of inertia in atomic units:
                           1         2         3
     Eigenvalues --    89.60369 259.69101 337.87561
           X            0.99589  -0.09052   0.00001
           Y            0.09052   0.99589  -0.00003
           Z            0.00000   0.00003   1.00000
 This molecule is an asymmetric top.
 Rotational symmetry number  1.
 Rotational temperatures (Kelvin)      0.96663     0.33353     0.25635
 Rotational constants (GHZ):          20.14137     6.94957     5.34144
 Zero-point vibrational energy     166205.0 (Joules/Mol)
                                   39.72395 (Kcal/Mol)
 Warning -- explicit consideration of   3 degrees of freedom as
           vibrations may cause significant error
 Vibrational temperatures:    191.55   462.29   507.77  1138.36  1425.02
          (Kelvin)           1522.92  1715.15  1743.20  1853.77  2029.93
                             2143.72  2171.63  2185.43  2680.97  4471.96
                             4513.59  4590.91  4631.53
 
 Zero-point correction=                           0.063304 (Hartree/Particle)
 Thermal correction to Energy=                    0.067778
 Thermal correction to Enthalpy=                  0.068722
 Thermal correction to Gibbs Free Energy=         0.036564
 Sum of electronic and zero-point Energies=           -228.908727
 Sum of electronic and thermal Energies=              -228.904253
 Sum of electronic and thermal Enthalpies=            -228.903309
 Sum of electronic and thermal Free Energies=         -228.935467
 
                     E (Thermal)             CV                S
                      KCal/Mol        Cal/Mol-Kelvin    Cal/Mol-Kelvin
 Total                   42.531             13.358             67.683
 Electronic               0.000              0.000              0.000
 Translational            0.889              2.981             38.196
 Rotational               0.889              2.981             23.579
 Vibrational             40.754              7.397              5.907
 Vibration     1          0.613              1.920              2.900
 Vibration     2          0.707              1.633              1.303
 Vibration     3          0.729              1.569              1.153
                       Q            Log10(Q)             Ln(Q)
 Total Bot       0.151947D-16        -16.818308        -38.725585
 Total V=0       0.199302D+13         12.299512         28.320674
 Vib (Bot)       0.261917D-28        -28.581836        -65.812108
 Vib (Bot)    1  0.153010D+01          0.184719          0.425332
 Vib (Bot)    2  0.584601D+00         -0.233141         -0.536826
 Vib (Bot)    3  0.521796D+00         -0.282499         -0.650479
 Vib (V=0)       0.343546D+01          0.535985          1.234150
 Vib (V=0)    1  0.210972D+01          0.324225          0.746556
 Vib (V=0)    2  0.126926D+01          0.103550          0.238433
 Vib (V=0)    3  0.122268D+01          0.087314          0.201048
 Electronic      0.100000D+01          0.000000          0.000000
 Translational   0.182773D+08          7.261911         16.721169
 Rotational      0.317407D+05          4.501616         10.365354
 ***** Axes restored to original set *****
 -------------------------------------------------------------------
 Center     Atomic                   Forces (Hartrees/Bohr)
 Number     Number              X              Y              Z
 -------------------------------------------------------------------
      1        6          -0.000241732    0.000068357    0.000118910
      2        8           0.000186540   -0.000041063   -0.000266900
      3        6           0.000218085   -0.000097820    0.000368624
      4        8          -0.000163049    0.000057165   -0.000103415
      5        1           0.000112525   -0.000005942   -0.000110165
      6        1          -0.000017060    0.000003459    0.000040949
      7        1          -0.000040916   -0.000014191    0.000037943
      8        1          -0.000054393    0.000030035   -0.000085946
 -------------------------------------------------------------------
 Cartesian Forces:  Max     0.000368624 RMS     0.000138429
 FormGI is forming the generalized inverse of G from B-inverse, IUseBI=4.

 GradGradGradGradGradGradGradGradGradGradGradGradGradGradGradGradGradGrad
 Berny optimization.
 Internal  Forces:  Max     0.000247380 RMS     0.000098039
 Search for a local minimum.
 Step number   1 out of a maximum of    2
 All quantities printed in internal units (Hartrees-Bohrs-Radians)
 Second derivative matrix not updated -- analytic derivatives used.
 ITU=  0
     Eigenvalues ---    0.00334   0.02523   0.04903   0.08579   0.08686
     Eigenvalues ---    0.13347   0.14370   0.19193   0.19255   0.25805
     Eigenvalues ---    0.28898   0.35213   0.35477   0.35587   0.36115
     Eigenvalues ---    0.39686   0.49617   0.95394
 Angle between quadratic step and forces=  71.85 degrees.
 Linear search not attempted -- first point.
 Iteration  1 RMS(Cart)=  0.00180694 RMS(Int)=  0.00000186
 Iteration  2 RMS(Cart)=  0.00000216 RMS(Int)=  0.00000005
 Iteration  3 RMS(Cart)=  0.00000000 RMS(Int)=  0.00000005
 Variable       Old X    -DE/DX   Delta X   Delta X   Delta X     New X
                                 (Linear)    (Quad)   (Total)
    R1        2.70502   0.00025   0.00000   0.00085   0.00085   2.70587
    R2        2.05717  -0.00009   0.00000  -0.00026  -0.00026   2.05691
    R3        2.06418   0.00000   0.00000  -0.00001  -0.00001   2.06417
    R4        2.06425   0.00001   0.00000  -0.00006  -0.00006   2.06419
    R5        2.52303  -0.00022   0.00000  -0.00066  -0.00066   2.52236
    R6        2.27197   0.00018   0.00000   0.00031   0.00031   2.27228
    R7        2.07479  -0.00001   0.00000  -0.00002  -0.00002   2.07477
    A1        1.84537  -0.00019   0.00000  -0.00120  -0.00120   1.84417
    A2        1.92144   0.00007   0.00000   0.00009   0.00009   1.92153
    A3        1.92107   0.00011   0.00000   0.00043   0.00043   1.92150
    A4        1.93450   0.00002   0.00000   0.00021   0.00021   1.93470
    A5        1.93432   0.00002   0.00000   0.00038   0.00038   1.93470
    A6        1.90663  -0.00003   0.00000   0.00007   0.00007   1.90670
    A7        2.01085   0.00005   0.00000   0.00011   0.00011   2.01097
    A8        2.18698  -0.00001   0.00000  -0.00001  -0.00001   2.18697
    A9        1.91571   0.00008   0.00000   0.00068   0.00068   1.91639
   A10        2.18049  -0.00006   0.00000  -0.00068  -0.00068   2.17982
    D1        3.13714   0.00001   0.00000   0.00356   0.00356   3.14070
    D2        1.04672   0.00005   0.00000   0.00397   0.00397   1.05068
    D3       -1.05603  -0.00002   0.00000   0.00354   0.00354  -1.05249
    D4        0.00045   0.00000   0.00000  -0.00039  -0.00039   0.00006
    D5       -3.14115   0.00000   0.00000  -0.00039  -0.00039  -3.14154
    D6        3.14159   0.00000   0.00000   0.00000   0.00000   3.14158
         Item               Value     Threshold  Converged?
 Maximum Force            0.000247     0.000450     YES
 RMS     Force            0.000098     0.000300     YES
 Maximum Displacement     0.004348     0.001800     NO 
 RMS     Displacement     0.001807     0.001200     NO 
 Predicted change in Energy=-4.932497D-07
 GradGradGradGradGradGradGradGradGradGradGradGradGradGradGradGradGradGrad

 1\1\GINC-KATANA1\Freq\RM062X\6-31+G(d)\C2H4O2\Z5358697\18-Mar-2025\0\\
 #N Geom=AllCheck Guess=TCheck SCRF=Check GenChk RM062X/6-31+G(d) Freq\
 \methyl formate\\0,1\C,0.3376748015,-1.0253114124,0.0533670757\O,1.573
 5139319,-1.1901017319,-0.6498737041\C,1.5197459637,-0.9409039499,-1.96
 04373081\O,0.5369601071,-0.5997162948,-2.5630867119\H,0.5543757434,-1.
 2687685264,1.0920374423\H,-0.4187553392,-1.6997661654,-0.3541626601\H,
 -0.0117178931,0.0055089995,-0.0392030796\H,2.5103026846,-1.0943409187,
 -2.4084410542\\Version=ES64L-G09RevD.01\State=1-A\HF=-228.9720314\RMSD
 =2.306e-09\RMSF=1.384e-04\ZeroPoint=0.0633041\Thermal=0.0677783\Dipole
 =0.2165265,-0.1759522,0.6887235\DipoleDeriv=0.541526,0.0003051,-0.3161
 421,-0.0222862,0.3010429,0.0373995,-0.1909785,0.0084491,0.5063831,-0.7
 156049,0.0446451,0.2592316,0.0612144,-0.3723256,0.1600071,0.1662315,0.
 1816999,-1.5541409,1.0555222,-0.2513231,0.4113245,-0.1913562,0.423489,
 -0.3956459,0.0793596,-0.3172605,1.9610909,-0.8199264,0.1953271,-0.5016
 538,0.1223325,-0.4443643,0.2138973,-0.0972061,0.1182464,-0.9043811,0.0
 478847,0.0173589,-0.0386099,0.0079108,0.0804452,0.0410517,0.012096,0.0
 2887,-0.0825639,-0.0269261,-0.0477379,0.0537356,-0.0690315,-0.0032027,
 -0.033921,-0.0459796,-0.0646086,0.0193658,0.0195848,0.0054195,0.069366
 ,0.0564937,-0.0747624,-0.0236749,0.0067356,0.0453223,0.0434137,-0.1020
 603,0.0360054,0.0627481,0.0347226,0.0896778,0.0008862,0.0697415,-0.000
 7184,0.0108324\Polar=31.1024629,-1.970155,23.4135422,-0.3298871,-2.283
 2934,35.6268904\PG=C01 [X(C2H4O2)]\NImag=0\\0.50608714,0.01177153,0.60
 842324,0.06844693,-0.01720138,0.61362847,-0.19801855,0.02347643,0.0368
 4907,0.37546193,0.01853924,-0.07447855,-0.00150181,-0.05552952,0.10821
 659,0.06429979,-0.00798651,-0.11041199,-0.07467956,-0.06541603,0.54373
 367,0.00391189,-0.00739167,0.04027386,-0.12461244,0.01112692,0.0143547
 2,1.00208029,-0.00617954,0.00467923,-0.00021132,0.00926271,-0.07595784
 ,0.04034008,-0.20928472,0.27115320,0.03331966,0.00147335,-0.04813909,0
 .02474299,0.03791657,-0.30910245,0.10946164,-0.11738819,0.70749865,-0.
 00911604,-0.00111233,0.00827236,0.00633510,0.01711269,-0.06380982,-0.6
 1057352,0.17331937,-0.25832025,0.64024577,0.00289285,-0.00715585,-0.00
 441386,0.01592075,0.02012782,0.03381791,0.17583351,-0.13347255,0.09468
 776,-0.20585059,0.10255285,-0.01367403,0.00077760,0.00641769,-0.057268
 17,0.03227762,-0.07371939,-0.27228261,0.09799468,-0.26099439,0.3409688
 1,-0.13232232,0.31632789,-0.06288010,0.01540611,-0.07229644,-0.0022505
 0,-0.00750500,0.04362861,-0.00811827,0.00209341,-0.00083006,0.00316069
 ,-0.00042889,-0.00087713,0.07293286,0.01296710,-0.06902237,0.06383774,
 -0.00002656,0.00115254,-0.00660408,0.00137308,-0.00011241,-0.00013517,
 -0.00051892,0.00074259,0.00030476,-0.01644804,0.06412420,-0.05908403,0
 .06066980,-0.30603341,0.00293869,0.00307347,-0.02070529,0.00321839,-0.
 00104114,0.00182993,-0.00028675,0.00017950,0.00007102,0.05687339,-0.06
 631032,0.33332128,-0.17119435,-0.11432661,-0.07190536,-0.03452382,-0.0
 1654086,0.00261074,-0.00238764,0.00136448,-0.00742309,0.00266418,-0.00
 094428,0.00165028,-0.00193822,-0.00344009,-0.00254594,0.19803225,-0.11
 879050,-0.16393784,-0.06863043,0.00520343,0.00723847,0.00517950,-0.001
 67506,0.00121212,-0.00194494,0.00169049,-0.00018996,-0.00043041,0.0072
 3646,0.00648582,0.00329033,0.12735694,0.16734455,-0.07889890,-0.073019
 03,-0.09697261,0.02006133,0.01489328,0.00354639,0.00446788,-0.00003045
 ,0.00389108,-0.00183180,0.00085961,-0.00093825,-0.01955063,-0.02051819
 ,-0.00833482,0.07403274,0.07546235,0.09727475,-0.07193180,0.07109786,-
 0.00877644,-0.02278858,0.03130852,0.00913547,-0.00141421,0.00220650,-0
 .00583561,0.00182763,-0.00063828,0.00180271,-0.00087044,0.00604389,-0.
 00115006,0.00927847,-0.02108799,0.00213429,0.08622558,0.07728842,-0.30
 482515,0.02604103,0.00576918,0.00372340,-0.00527588,0.00123864,-0.0002
 5745,0.00377806,-0.00185015,0.00062849,0.00000241,-0.00013303,-0.00359
 144,-0.00002770,0.00593014,-0.01772002,0.00348710,-0.08809177,0.322433
 35,-0.01116018,0.03264117,-0.05513225,0.01206881,-0.01989802,-0.004649
 84,0.00426279,-0.00332103,0.00437922,-0.00255220,0.00056844,-0.0009686
 9,-0.00852945,0.02962311,0.00062996,0.00319466,-0.01297778,0.00184439,
 0.00263631,-0.02774157,0.05386609,0.00314180,0.00107868,-0.00086398,0.
 00039686,0.00148800,0.00446005,-0.25888610,0.02721780,0.10488473,-0.03
 454380,0.01321493,-0.00031986,-0.00003602,0.00004955,0.00003632,0.0000
 6913,0.00006623,-0.00041491,-0.00032665,-0.00015143,0.00007926,0.29018
 478,0.00151090,0.00631729,0.00208003,-0.00407642,0.00997757,0.00594500
 ,0.02877929,-0.06724430,-0.01838744,0.01720944,0.01676660,0.00139566,-
 0.00022101,0.00022107,0.00016606,0.00060029,-0.00043315,-0.00113466,-0
 .00083872,-0.00039119,0.00110567,-0.04296377,0.03478610,-0.00324923,0.
 00264498,-0.00335681,0.03528685,-0.00134508,-0.02869110,0.09624331,-0.
 01634263,-0.09936296,-0.02244034,0.00662296,0.01380412,0.00158171,-0.0
 0019785,-0.00077866,0.00038598,0.00005138,-0.00031092,0.00005333,-0.00
 026345,0.00003111,-0.10786161,0.00882968,0.11866522\\0.00024173,-0.000
 06836,-0.00011891,-0.00018654,0.00004106,0.00026690,-0.00021809,0.0000
 9782,-0.00036862,0.00016305,-0.00005717,0.00010342,-0.00011253,0.00000
 594,0.00011017,0.00001706,-0.00000346,-0.00004095,0.00004092,0.0000141
 9,-0.00003794,0.00005439,-0.00003003,0.00008595\\\@


 WE SHOULD BE CAREFUL TO GET OUT OF AN EXPERIENCE ONLY THE WISDOM
 THAT IS IN IT -- AND STOP THERE;
 LEST WE BE LIKE THE CAT THAT SITS DOWN ON A HOT STOVE-LID.
 SHE WILL NEVER SIT DOWN ON A HOT STOVE LID AGAIN;
 BUT ALSO SHE WILL NEVER SIT DOWN ON A COLD ONE ANY MORE.

                                                     -- MARK TWAIN
 Job cpu time:       0 days  0 hours  0 minutes 35.7 seconds.
 File lengths (MBytes):  RWF=    132 Int=      0 D2E=      0 Chk=      2 Scr=      2
 Normal termination of Gaussian 09 at Tue Mar 18 22:10:03 2025.
