 Entering Gaussian System, Link 0=g09
 Initial command:
 /apps/z_install_tree/linux-rocky8-ivybridge/gcc-12.2.0/gaussian-09-D.01-wczn3gur5lpur3omlkzwa2l5ecyxp5ef/g09/l1.exe "/srv/scratch/z5358697/gauss/Gau-4065253.inp" -scrdir="/srv/scratch/z5358697/gauss/"
 Entering Link 1 = /apps/z_install_tree/linux-rocky8-ivybridge/gcc-12.2.0/gaussian-09-D.01-wczn3gur5lpur3omlkzwa2l5ecyxp5ef/g09/l1.exe PID=   4065255.
  
 Copyright (c) 1988,1990,1992,1993,1995,1998,2003,2009,2013,
            Gaussian, Inc.  All Rights Reserved.
  
 This is part of the Gaussian(R) 09 program.  It is based on
 the Gaussian(R) 03 system (copyright 2003, Gaussian, Inc.),
 the Gaussian(R) 98 system (copyright 1998, Gaussian, Inc.),
 the Gaussian(R) 94 system (copyright 1995, Gaussian, Inc.),
 the Gaussian 92(TM) system (copyright 1992, Gaussian, Inc.),
 the Gaussian 90(TM) system (copyright 1990, Gaussian, Inc.),
 the Gaussian 88(TM) system (copyright 1988, Gaussian, Inc.),
 the Gaussian 86(TM) system (copyright 1986, Carnegie Mellon
 University), and the Gaussian 82(TM) system (copyright 1983,
 Carnegie Mellon University). Gaussian is a federally registered
 trademark of Gaussian, Inc.
  
 This software contains proprietary and confidential information,
 including trade secrets, belonging to Gaussian, Inc.
  
 This software is provided under written license and may be
 used, copied, transmitted, or stored only in accord with that
 written license.
  
 The following legend is applicable only to US Government
 contracts under FAR:
  
                    RESTRICTED RIGHTS LEGEND
  
 Use, reproduction and disclosure by the US Government is
 subject to restrictions as set forth in subparagraphs (a)
 and (c) of the Commercial Computer Software - Restricted
 Rights clause in FAR 52.227-19.
  
 Gaussian, Inc.
 340 Quinnipiac St., Bldg. 40, Wallingford CT 06492
  
  
 ---------------------------------------------------------------
 Warning -- This program may not be used in any manner that
 competes with the business of Gaussian, Inc. or will provide
 assistance to any competitor of Gaussian, Inc.  The licensee
 of this program is prohibited from giving any competitor of
 Gaussian, Inc. access to this program.  By using this program,
 the user acknowledges that Gaussian, Inc. is engaged in the
 business of creating and licensing software in the field of
 computational chemistry and represents and warrants to the
 licensee that it is not a competitor of Gaussian, Inc. and that
 it will not use this program in any manner prohibited above.
 ---------------------------------------------------------------
  

 Cite this work as:
 Gaussian 09, Revision D.01,
 M. J. Frisch, G. W. Trucks, H. B. Schlegel, G. E. Scuseria, 
 M. A. Robb, J. R. Cheeseman, G. Scalmani, V. Barone, B. Mennucci, 
 G. A. Petersson, H. Nakatsuji, M. Caricato, X. Li, H. P. Hratchian, 
 A. F. Izmaylov, J. Bloino, G. Zheng, J. L. Sonnenberg, M. Hada, 
 M. Ehara, K. Toyota, R. Fukuda, J. Hasegawa, M. Ishida, T. Nakajima, 
 Y. Honda, O. Kitao, H. Nakai, T. Vreven, J. A. Montgomery, Jr., 
 J. E. Peralta, F. Ogliaro, M. Bearpark, J. J. Heyd, E. Brothers, 
 K. N. Kudin, V. N. Staroverov, T. Keith, R. Kobayashi, J. Normand, 
 K. Raghavachari, A. Rendell, J. C. Burant, S. S. Iyengar, J. Tomasi, 
 M. Cossi, N. Rega, J. M. Millam, M. Klene, J. E. Knox, J. B. Cross, 
 V. Bakken, C. Adamo, J. Jaramillo, R. Gomperts, R. E. Stratmann, 
 O. Yazyev, A. J. Austin, R. Cammi, C. Pomelli, J. W. Ochterski, 
 R. L. Martin, K. Morokuma, V. G. Zakrzewski, G. A. Voth, 
 P. Salvador, J. J. Dannenberg, S. Dapprich, A. D. Daniels, 
 O. Farkas, J. B. Foresman, J. V. Ortiz, J. Cioslowski, 
 and D. J. Fox, Gaussian, Inc., Wallingford CT, 2013.
 
 ******************************************
 Gaussian 09:  ES64L-G09RevD.01 24-Apr-2013
                21-Mar-2025 
 ******************************************
 ---------------------------------
 #m062X/6-31+G(d) OPT Freq=noraman
 ---------------------------------
 1/14=-1,18=20,19=15,26=3,38=1/1,3;
 2/9=110,12=2,17=6,18=5,40=1/2;
 3/5=1,6=6,7=11,11=2,16=1,25=1,30=1,71=1,74=-55/1,2,3;
 4//1;
 5/5=2,38=5/2;
 6/7=2,8=2,9=2,10=2,28=1/1;
 7//1,2,3,16;
 1/14=-1,18=20,19=15,26=3/3(2);
 2/9=110/2;
 99//99;
 2/9=110/2;
 3/5=1,6=6,7=11,11=2,16=1,25=1,30=1,71=1,74=-55/1,2,3;
 4/5=5,16=3,69=1/1;
 5/5=2,38=5/2;
 7//1,2,3,16;
 1/14=-1,18=20,19=15,26=3/3(-5);
 2/9=110/2;
 6/7=2,8=2,9=2,10=2,19=2,28=1/1;
 99/9=1/99;
 -------------
 4-bromophenol
 -------------
 Symbolic Z-matrix:
 Charge =  0 Multiplicity = 1
 C                     1.8851   -1.0363   -0.1124 
 C                     2.921    -1.6309    0.6081 
 C                     2.8783   -1.652     2.0022 
 C                     1.7997   -1.0786    2.6757 
 C                     0.7638   -0.4841    1.9551 
 C                     0.8066   -0.463     0.561 
 O                    -0.2039    0.1168   -0.1428 
 Br                    4.2813   -2.458     2.9784 
 H                     1.9241   -1.0238   -1.1981 
 H                     3.7542   -2.074     0.0683 
 H                     1.7508   -1.087     3.7615 
 H                    -0.0743   -0.04      2.4852 
 H                    -0.8765    0.4683    0.4621 
 

 GradGradGradGradGradGradGradGradGradGradGradGradGradGradGradGradGradGrad
 Berny optimization.
 Initialization pass.
                           ----------------------------
                           !    Initial Parameters    !
                           ! (Angstroms and Degrees)  !
 --------------------------                            --------------------------
 ! Name  Definition              Value          Derivative Info.                !
 --------------------------------------------------------------------------------
 ! R1    R(1,2)                  1.3949         estimate D2E/DX2                !
 ! R2    R(1,6)                  1.3947         estimate D2E/DX2                !
 ! R3    R(1,9)                  1.0865         estimate D2E/DX2                !
 ! R4    R(2,3)                  1.3949         estimate D2E/DX2                !
 ! R5    R(2,10)                 1.0872         estimate D2E/DX2                !
 ! R6    R(3,4)                  1.3949         estimate D2E/DX2                !
 ! R7    R(3,8)                  1.8897         estimate D2E/DX2                !
 ! R8    R(4,5)                  1.3949         estimate D2E/DX2                !
 ! R9    R(4,11)                 1.0869         estimate D2E/DX2                !
 ! R10   R(5,6)                  1.3949         estimate D2E/DX2                !
 ! R11   R(5,12)                 1.0866         estimate D2E/DX2                !
 ! R12   R(6,7)                  1.3611         estimate D2E/DX2                !
 ! R13   R(7,13)                 0.9705         estimate D2E/DX2                !
 ! A1    A(2,1,6)              120.0052         estimate D2E/DX2                !
 ! A2    A(2,1,9)              119.6304         estimate D2E/DX2                !
 ! A3    A(6,1,9)              120.3644         estimate D2E/DX2                !
 ! A4    A(1,2,3)              119.9958         estimate D2E/DX2                !
 ! A5    A(1,2,10)             119.1054         estimate D2E/DX2                !
 ! A6    A(3,2,10)             120.8988         estimate D2E/DX2                !
 ! A7    A(2,3,4)              119.9999         estimate D2E/DX2                !
 ! A8    A(2,3,8)              120.0007         estimate D2E/DX2                !
 ! A9    A(4,3,8)              119.9995         estimate D2E/DX2                !
 ! A10   A(3,4,5)              119.9999         estimate D2E/DX2                !
 ! A11   A(3,4,11)             120.9263         estimate D2E/DX2                !
 ! A12   A(5,4,11)             119.0738         estimate D2E/DX2                !
 ! A13   A(4,5,6)              119.9967         estimate D2E/DX2                !
 ! A14   A(4,5,12)             119.6678         estimate D2E/DX2                !
 ! A15   A(6,5,12)             120.3355         estimate D2E/DX2                !
 ! A16   A(1,6,5)              120.0026         estimate D2E/DX2                !
 ! A17   A(1,6,7)              119.9682         estimate D2E/DX2                !
 ! A18   A(5,6,7)              120.0292         estimate D2E/DX2                !
 ! A19   A(6,7,13)             110.2747         estimate D2E/DX2                !
 ! D1    D(6,1,2,3)             -0.0063         estimate D2E/DX2                !
 ! D2    D(6,1,2,10)           179.9565         estimate D2E/DX2                !
 ! D3    D(9,1,2,3)           -179.9595         estimate D2E/DX2                !
 ! D4    D(9,1,2,10)             0.0033         estimate D2E/DX2                !
 ! D5    D(2,1,6,5)              0.004          estimate D2E/DX2                !
 ! D6    D(2,1,6,7)           -179.9893         estimate D2E/DX2                !
 ! D7    D(9,1,6,5)            179.9569         estimate D2E/DX2                !
 ! D8    D(9,1,6,7)             -0.0364         estimate D2E/DX2                !
 ! D9    D(1,2,3,4)              0.0043         estimate D2E/DX2                !
 ! D10   D(1,2,3,8)            179.9793         estimate D2E/DX2                !
 ! D11   D(10,2,3,4)          -179.9579         estimate D2E/DX2                !
 ! D12   D(10,2,3,8)             0.0172         estimate D2E/DX2                !
 ! D13   D(2,3,4,5)              0.0            estimate D2E/DX2                !
 ! D14   D(2,3,4,11)           179.968          estimate D2E/DX2                !
 ! D15   D(8,3,4,5)           -179.975          estimate D2E/DX2                !
 ! D16   D(8,3,4,11)            -0.007          estimate D2E/DX2                !
 ! D17   D(3,4,5,6)             -0.0023         estimate D2E/DX2                !
 ! D18   D(3,4,5,12)           179.9347         estimate D2E/DX2                !
 ! D19   D(11,4,5,6)          -179.9709         estimate D2E/DX2                !
 ! D20   D(11,4,5,12)           -0.0339         estimate D2E/DX2                !
 ! D21   D(4,5,6,1)              0.0003         estimate D2E/DX2                !
 ! D22   D(4,5,6,7)            179.9936         estimate D2E/DX2                !
 ! D23   D(12,5,6,1)          -179.9363         estimate D2E/DX2                !
 ! D24   D(12,5,6,7)             0.057          estimate D2E/DX2                !
 ! D25   D(1,6,7,13)           179.9931         estimate D2E/DX2                !
 ! D26   D(5,6,7,13)            -0.0002         estimate D2E/DX2                !
 --------------------------------------------------------------------------------
 Trust Radius=3.00D-01 FncErr=1.00D-07 GrdErr=1.00D-06
 Number of steps in this run=     68 maximum allowed number of steps=    100.
 GradGradGradGradGradGradGradGradGradGradGradGradGradGradGradGradGradGrad

                          Input orientation:                          
 ---------------------------------------------------------------------
 Center     Atomic      Atomic             Coordinates (Angstroms)
 Number     Number       Type             X           Y           Z
 ---------------------------------------------------------------------
      1          6           0        1.885100   -1.036300   -0.112400
      2          6           0        2.921000   -1.630900    0.608100
      3          6           0        2.878300   -1.652000    2.002200
      4          6           0        1.799700   -1.078600    2.675700
      5          6           0        0.763800   -0.484100    1.955100
      6          6           0        0.806600   -0.463000    0.561000
      7          8           0       -0.203900    0.116800   -0.142800
      8         35           0        4.281300   -2.458000    2.978400
      9          1           0        1.924100   -1.023800   -1.198100
     10          1           0        3.754200   -2.074000    0.068300
     11          1           0        1.750800   -1.087000    3.761500
     12          1           0       -0.074300   -0.040000    2.485200
     13          1           0       -0.876500    0.468300    0.462100
 ---------------------------------------------------------------------
                    Distance matrix (angstroms):
                    1          2          3          4          5
     1  C    0.000000
     2  C    1.394904   0.000000
     3  C    2.416002   1.394913   0.000000
     4  C    2.789728   2.416054   1.394908   0.000000
     5  C    2.415946   2.789816   2.416054   1.394913   0.000000
     6  C    1.394741   2.415967   2.789753   2.416023   1.394916
     7  O    2.386312   3.658320   4.150860   3.658871   2.387197
     8  Br   4.161256   2.855317   1.889712   2.855295   4.161277
     9  H    1.086472   2.150521   3.398095   3.876184   3.402976
    10  H    2.145462   1.087172   2.164545   3.407261   3.876892
    11  H    3.876559   3.407217   2.164629   1.086933   2.144933
    12  H    3.402850   3.876376   3.398482   2.151013   1.086574
    13  H    3.196921   4.341539   4.578876   3.801969   2.413856
                    6          7          8          9         10
     6  C    0.000000
     7  O    1.361107   0.000000
     8  Br   4.679464   6.040571   0.000000
     9  H    2.158179   2.634959   5.005644   0.000000
    10  H    3.395058   4.528877   2.982276   2.460885   0.000000
    11  H    3.394715   4.529188   2.982669   4.963029   4.315960
    12  H    2.158115   2.635862   5.006118   4.304435   4.963464
    13  H    1.926117   0.970488   6.441886   3.581339   5.297334
                   11         12         13
    11  H    0.000000
    12  H    2.460923   0.000000
    13  H    4.495298   2.234911   0.000000
 Stoichiometry    C6H5BrO
 Framework group  C1[X(C6H5BrO)]
 Deg. of freedom    33
 Full point group                 C1      NOp   1
 Largest Abelian subgroup         C1      NOp   1
 Largest concise Abelian subgroup C1      NOp   1
                         Standard orientation:                         
 ---------------------------------------------------------------------
 Center     Atomic      Atomic             Coordinates (Angstroms)
 Number     Number       Type             X           Y           Z
 ---------------------------------------------------------------------
      1          6           0        1.752904    1.238220   -0.000158
      2          6           0        0.358085    1.222836   -0.000245
      3          6           0       -0.325918    0.007138   -0.000373
      4          6           0        0.384906   -1.193069   -0.000323
      5          6           0        1.779734   -1.177577   -0.000145
      6          6           0        2.463662    0.038167   -0.000066
      7          8           0        3.824676    0.054056    0.000239
      8         35           0       -2.215513   -0.013863    0.000100
      9          1           0        2.279611    2.188484    0.000608
     10          1           0       -0.181179    2.166838    0.000404
     11          1           0       -0.132691   -2.148850    0.000101
     12          1           0        2.328008   -2.115680    0.000970
     13          1           0        4.171575   -0.852315    0.000377
 ---------------------------------------------------------------------
 Rotational constants (GHZ):      5.6419715      0.6338249      0.5698117
 Standard basis: 6-31+G(d) (6D, 7F)
 There are   177 symmetry adapted cartesian basis functions of A   symmetry.
 There are   177 symmetry adapted basis functions of A   symmetry.
   177 basis functions,   331 primitive gaussians,   177 cartesian basis functions
    42 alpha electrons       42 beta electrons
       nuclear repulsion energy       522.0909891885 Hartrees.
 NAtoms=   13 NActive=   13 NUniq=   13 SFac= 1.00D+00 NAtFMM=   60 NAOKFM=F Big=F
 Integral buffers will be    131072 words long.
 Raffenetti 2 integral format.
 Two-electron integral symmetry is turned on.
 One-electron integrals computed using PRISM.
 NBasis=   177 RedAO= T EigKep=  4.37D-06  NBF=   177
 NBsUse=   177 1.00D-06 EigRej= -1.00D+00 NBFU=   177
 ExpMin= 3.50D-02 ExpMax= 5.74D+05 ExpMxC= 5.74D+03 IAcc=3 IRadAn=         5 AccDes= 0.00D+00
 Harris functional with IExCor= 1009 and IRadAn=       5 diagonalized for initial guess.
 HarFok:  IExCor= 1009 AccDes= 0.00D+00 IRadAn=         5 IDoV= 1 UseB2=F ITyADJ=14
 ICtDFT=  3500011 ScaDFX=  1.000000  1.000000  1.000000  1.000000
 FoFCou: FMM=F IPFlag=           0 FMFlag=      100000 FMFlg1=           0
         NFxFlg=           0 DoJE=T BraDBF=F KetDBF=T FulRan=T
         wScrn=  0.000000 ICntrl=     500 IOpCl=  0 I1Cent=   200000004 NGrid=           0
         NMat0=    1 NMatS0=      1 NMatT0=    0 NMatD0=    1 NMtDS0=    0 NMtDT0=    0
 Petite list used in FoFCou.
 Requested convergence on RMS density matrix=1.00D-08 within 128 cycles.
 Requested convergence on MAX density matrix=1.00D-06.
 Requested convergence on             energy=1.00D-06.
 No special actions if energy rises.
 SCF Done:  E(RM062X) =  -2878.54431864     A.U. after   14 cycles
            NFock= 14  Conv=0.46D-08     -V/T= 2.0071

 **********************************************************************

            Population analysis using the SCF density.

 **********************************************************************

 Orbital symmetries:
       Occupied  (A) (A) (A) (A) (A) (A) (A) (A) (A) (A) (A) (A)
                 (A) (A) (A) (A) (A) (A) (A) (A) (A) (A) (A) (A)
                 (A) (A) (A) (A) (A) (A) (A) (A) (A) (A) (A) (A)
                 (A) (A) (A) (A) (A) (A)
       Virtual   (A) (A) (A) (A) (A) (A) (A) (A) (A) (A) (A) (A)
                 (A) (A) (A) (A) (A) (A) (A) (A) (A) (A) (A) (A)
                 (A) (A) (A) (A) (A) (A) (A) (A) (A) (A) (A) (A)
                 (A) (A) (A) (A) (A) (A) (A) (A) (A) (A) (A) (A)
                 (A) (A) (A) (A) (A) (A) (A) (A) (A) (A) (A) (A)
                 (A) (A) (A) (A) (A) (A) (A) (A) (A) (A) (A) (A)
                 (A) (A) (A) (A) (A) (A) (A) (A) (A) (A) (A) (A)
                 (A) (A) (A) (A) (A) (A) (A) (A) (A) (A) (A) (A)
                 (A) (A) (A) (A) (A) (A) (A) (A) (A) (A) (A) (A)
                 (A) (A) (A) (A) (A) (A) (A) (A) (A) (A) (A) (A)
                 (A) (A) (A) (A) (A) (A) (A) (A) (A) (A) (A) (A)
                 (A) (A) (A)
 The electronic state is 1-A.
 Alpha  occ. eigenvalues -- -485.48319 -62.76379 -57.29524 -57.29256 -57.29219
 Alpha  occ. eigenvalues --  -19.69043 -10.63346 -10.61481 -10.57950 -10.57812
 Alpha  occ. eigenvalues --  -10.57375 -10.56952  -8.93471  -6.88875  -6.87839
 Alpha  occ. eigenvalues --   -6.87837  -2.91731  -2.91359  -2.91359  -2.90438
 Alpha  occ. eigenvalues --   -2.90438  -1.20177  -0.98564  -0.90067  -0.86751
 Alpha  occ. eigenvalues --   -0.81513  -0.72821  -0.69612  -0.64226  -0.57743
 Alpha  occ. eigenvalues --   -0.55282  -0.52558  -0.51023  -0.50779  -0.47937
 Alpha  occ. eigenvalues --   -0.44421  -0.43446  -0.42160  -0.36422  -0.34979
 Alpha  occ. eigenvalues --   -0.32727  -0.28110
 Alpha virt. eigenvalues --    0.00053   0.00153   0.01422   0.01592   0.02255
 Alpha virt. eigenvalues --    0.03061   0.04949   0.05249   0.06038   0.06786
 Alpha virt. eigenvalues --    0.07674   0.08053   0.08941   0.09475   0.11389
 Alpha virt. eigenvalues --    0.12003   0.12378   0.13762   0.14175   0.14268
 Alpha virt. eigenvalues --    0.16179   0.16764   0.16905   0.17418   0.17718
 Alpha virt. eigenvalues --    0.20031   0.20619   0.21162   0.21219   0.22180
 Alpha virt. eigenvalues --    0.23442   0.23734   0.24848   0.26487   0.27911
 Alpha virt. eigenvalues --    0.28334   0.29876   0.30610   0.31399   0.32528
 Alpha virt. eigenvalues --    0.33938   0.35390   0.37764   0.40285   0.40973
 Alpha virt. eigenvalues --    0.44087   0.52413   0.53321   0.53534   0.55749
 Alpha virt. eigenvalues --    0.59332   0.62271   0.62686   0.68066   0.69281
 Alpha virt. eigenvalues --    0.69390   0.69994   0.72702   0.75051   0.76717
 Alpha virt. eigenvalues --    0.77167   0.78139   0.78212   0.81554   0.82501
 Alpha virt. eigenvalues --    0.84207   0.88352   0.92006   0.95599   0.96040
 Alpha virt. eigenvalues --    0.98308   0.98325   1.03250   1.06248   1.07764
 Alpha virt. eigenvalues --    1.09253   1.11391   1.15073   1.18245   1.19943
 Alpha virt. eigenvalues --    1.24764   1.25569   1.27512   1.30301   1.32595
 Alpha virt. eigenvalues --    1.33098   1.40895   1.43078   1.45779   1.48948
 Alpha virt. eigenvalues --    1.49464   1.51944   1.53844   1.58988   1.71270
 Alpha virt. eigenvalues --    1.77274   1.82951   1.83430   1.87455   1.95040
 Alpha virt. eigenvalues --    1.98009   1.98530   2.00891   2.03570   2.04491
 Alpha virt. eigenvalues --    2.12911   2.16279   2.17020   2.17256   2.26226
 Alpha virt. eigenvalues --    2.30038   2.31589   2.31781   2.50775   2.52632
 Alpha virt. eigenvalues --    2.55111   2.63671   2.65204   2.69189   2.74274
 Alpha virt. eigenvalues --    2.75751   2.82061   2.86956   3.05897   3.11148
 Alpha virt. eigenvalues --    3.39647   4.18175   4.25447   4.25504   4.30728
 Alpha virt. eigenvalues --    4.39646   4.47032   4.77425   9.05515  80.55447
          Condensed to atoms (all electrons):
               1          2          3          4          5          6
     1  C    9.083983  -1.375397   0.810559  -0.943449  -0.683515  -1.357390
     2  C   -1.375397   7.942311  -0.513221   0.213342  -0.606325   0.749291
     3  C    0.810559  -0.513221   5.925443  -0.477271   0.392373  -0.656514
     4  C   -0.943449   0.213342  -0.477271   7.946571  -0.881816   0.521850
     5  C   -0.683515  -0.606325   0.392373  -0.881816   7.185633   0.162466
     6  C   -1.357390   0.749291  -0.656514   0.521850   0.162466   6.520159
     7  O   -0.226324   0.045158   0.009328   0.049841  -0.016745   0.120056
     8  Br  -0.023893  -0.012244   0.150241   0.010830  -0.020423   0.029400
     9  H    0.317227  -0.008282  -0.003836  -0.021564   0.014802   0.013400
    10  H    0.023383   0.208801   0.070128   0.029183  -0.005859  -0.013657
    11  H   -0.001734   0.022212   0.054022   0.198506   0.034665   0.004809
    12  H   -0.009164  -0.016464   0.008207   0.029656   0.318821  -0.022536
    13  H    0.158428  -0.015021   0.009958  -0.009901  -0.109578  -0.032182
               7          8          9         10         11         12
     1  C   -0.226324  -0.023893   0.317227   0.023383  -0.001734  -0.009164
     2  C    0.045158  -0.012244  -0.008282   0.208801   0.022212  -0.016464
     3  C    0.009328   0.150241  -0.003836   0.070128   0.054022   0.008207
     4  C    0.049841   0.010830  -0.021564   0.029183   0.198506   0.029656
     5  C   -0.016745  -0.020423   0.014802  -0.005859   0.034665   0.318821
     6  C    0.120056   0.029400   0.013400  -0.013657   0.004809  -0.022536
     7  O    8.545329   0.000954  -0.003243  -0.000471  -0.000553  -0.013044
     8  Br   0.000954  34.895853  -0.000482  -0.006183  -0.006575  -0.000416
     9  H   -0.003243  -0.000482   0.467477  -0.003967   0.000011  -0.000117
    10  H   -0.000471  -0.006183  -0.003967   0.467169  -0.000117   0.000012
    11  H   -0.000553  -0.006575   0.000011  -0.000117   0.469310  -0.003980
    12  H   -0.013044  -0.000416  -0.000117   0.000012  -0.003980   0.503711
    13  H    0.168393   0.000076  -0.000061   0.000004  -0.000008   0.007554
              13
     1  C    0.158428
     2  C   -0.015021
     3  C    0.009958
     4  C   -0.009901
     5  C   -0.109578
     6  C   -0.032182
     7  O    0.168393
     8  Br   0.000076
     9  H   -0.000061
    10  H    0.000004
    11  H   -0.000008
    12  H    0.007554
    13  H    0.338202
 Mulliken charges:
               1
     1  C    0.227285
     2  C   -0.634161
     3  C    0.220584
     4  C   -0.665777
     5  C    0.215500
     6  C   -0.039152
     7  O   -0.678678
     8  Br  -0.017138
     9  H    0.228636
    10  H    0.231574
    11  H    0.229432
    12  H    0.197759
    13  H    0.484135
 Sum of Mulliken charges =   0.00000
 Mulliken charges with hydrogens summed into heavy atoms:
               1
     1  C    0.455922
     2  C   -0.402588
     3  C    0.220584
     4  C   -0.436345
     5  C    0.413260
     6  C   -0.039152
     7  O   -0.194543
     8  Br  -0.017138
 Electronic spatial extent (au):  <R**2>=           1726.1670
 Charge=              0.0000 electrons
 Dipole moment (field-independent basis, Debye):
    X=              1.7916    Y=             -1.4068    Z=              0.0022  Tot=              2.2779
 Quadrupole moment (field-independent basis, Debye-Ang):
   XX=            -57.5563   YY=            -51.7935   ZZ=            -63.3487
   XY=             -6.9963   XZ=              0.0038   YZ=             -0.0009
 Traceless Quadrupole moment (field-independent basis, Debye-Ang):
   XX=              0.0098   YY=              5.7726   ZZ=             -5.7825
   XY=             -6.9963   XZ=              0.0038   YZ=             -0.0009
 Octapole moment (field-independent basis, Debye-Ang**2):
  XXX=            -47.2741  YYY=             -0.6863  ZZZ=              0.0093  XYY=             -5.3481
  XXY=            -31.8386  XXZ=              0.0175  XZZ=            -22.2527  YZZ=             -0.3639
  YYZ=              0.0159  XYZ=             -0.0052
 Hexadecapole moment (field-independent basis, Debye-Ang**3):
 XXXX=          -1504.8902 YYYY=           -289.1951 ZZZZ=            -74.9158 XXXY=           -140.8200
 XXXZ=              0.0295 YYYX=             -4.8037 YYYZ=             -0.0009 ZZZX=              0.0024
 ZZZY=             -0.0011 XXYY=           -280.1003 XXZZ=           -294.7404 YYZZ=            -73.9555
 XXYZ=             -0.0183 YYXZ=              0.0230 ZZXY=             -0.9364
 N-N= 5.220909891885D+02 E-N=-7.888647940344D+03  KE= 2.858322846921D+03
 Calling FoFJK, ICntrl=      2127 FMM=F ISym2X=0 I1Cent= 0 IOpClX= 0 NMat=1 NMatS=1 NMatT=0.
 ***** Axes restored to original set *****
 -------------------------------------------------------------------
 Center     Atomic                   Forces (Hartrees/Bohr)
 Number     Number              X              Y              Z
 -------------------------------------------------------------------
      1        6           0.001368805   -0.000741004   -0.001605158
      2        6          -0.003158341    0.001699151    0.000547363
      3        6          -0.001868608    0.001015896   -0.000334008
      4        6          -0.000581232    0.000319739   -0.000551680
      5        6           0.008023922   -0.004535605    0.001787769
      6        6          -0.004236218    0.002123296    0.007526027
      7        8           0.000991717   -0.000342230   -0.006642464
      8       35          -0.002377598    0.001381549   -0.001528979
      9        1          -0.002059632    0.001136493    0.000883857
     10        1          -0.000439948    0.000196590    0.002306518
     11        1           0.001947750   -0.001025097   -0.001077496
     12        1          -0.000483709    0.000303348    0.000259506
     13        1           0.002873092   -0.001532124   -0.001571256
 -------------------------------------------------------------------
 Cartesian Forces:  Max     0.008023922 RMS     0.002666248

 GradGradGradGradGradGradGradGradGradGradGradGradGradGradGradGradGradGrad
 Berny optimization.
 FormGI is forming the generalized inverse of G from B-inverse, IUseBI=4.
 Internal  Forces:  Max     0.011547186 RMS     0.002616595
 Search for a local minimum.
 Step number   1 out of a maximum of   68
 All quantities printed in internal units (Hartrees-Bohrs-Radians)
 Mixed Optimization -- RFO/linear search
 Second derivative matrix not updated -- first step.
 ITU=  0
     Eigenvalues ---    0.02156   0.02156   0.02156   0.02156   0.02156
     Eigenvalues ---    0.02156   0.02157   0.02157   0.02166   0.02206
     Eigenvalues ---    0.16000   0.16000   0.16000   0.16000   0.16000
     Eigenvalues ---    0.18763   0.22000   0.22982   0.24000   0.25000
     Eigenvalues ---    0.25000   0.35141   0.35169   0.35212   0.35224
     Eigenvalues ---    0.42131   0.42508   0.46474   0.46474   0.46475
     Eigenvalues ---    0.46494   0.52724   0.53277
 RFO step:  Lambda=-1.48281138D-03 EMin= 2.15602225D-02
 Linear search not attempted -- first point.
 Iteration  1 RMS(Cart)=  0.02305176 RMS(Int)=  0.00027438
 Iteration  2 RMS(Cart)=  0.00037980 RMS(Int)=  0.00000364
 Iteration  3 RMS(Cart)=  0.00000001 RMS(Int)=  0.00000364
 Variable       Old X    -DE/DX   Delta X   Delta X   Delta X     New X
                                 (Linear)    (Quad)   (Total)
    R1        2.63599  -0.00353   0.00000  -0.00773  -0.00773   2.62826
    R2        2.63568  -0.00326   0.00000  -0.00671  -0.00671   2.62896
    R3        2.05313  -0.00094   0.00000  -0.00267  -0.00267   2.05047
    R4        2.63600  -0.00355   0.00000  -0.00805  -0.00805   2.62796
    R5        2.05446  -0.00156   0.00000  -0.00443  -0.00443   2.05003
    R6        2.63599  -0.00540   0.00000  -0.01185  -0.01185   2.62415
    R7        3.57104  -0.00314   0.00000  -0.01663  -0.01663   3.55441
    R8        2.63600  -0.00314   0.00000  -0.00658  -0.00658   2.62943
    R9        2.05401  -0.00116   0.00000  -0.00327  -0.00327   2.05073
   R10        2.63601   0.00200   0.00000   0.00473   0.00472   2.64073
   R11        2.05333   0.00062   0.00000   0.00176   0.00176   2.05509
   R12        2.57212   0.00058   0.00000   0.00109   0.00109   2.57321
   R13        1.83396  -0.00352   0.00000  -0.00659  -0.00659   1.82736
    A1        2.09449  -0.00097   0.00000  -0.00404  -0.00404   2.09045
    A2        2.08794   0.00288   0.00000   0.01685   0.01685   2.10479
    A3        2.10076  -0.00191   0.00000  -0.01281  -0.01281   2.08795
    A4        2.09432   0.00095   0.00000   0.00313   0.00314   2.09746
    A5        2.07878   0.00133   0.00000   0.00963   0.00962   2.08840
    A6        2.11008  -0.00228   0.00000  -0.01276  -0.01276   2.09732
    A7        2.09439   0.00176   0.00000   0.00576   0.00576   2.10016
    A8        2.09441  -0.00069   0.00000  -0.00213  -0.00213   2.09227
    A9        2.09439  -0.00107   0.00000  -0.00363  -0.00363   2.09076
   A10        2.09439  -0.00146   0.00000  -0.00676  -0.00676   2.08763
   A11        2.11056  -0.00149   0.00000  -0.01039  -0.01039   2.10017
   A12        2.07823   0.00295   0.00000   0.01715   0.01715   2.09538
   A13        2.09434   0.00052   0.00000   0.00367   0.00366   2.09800
   A14        2.08860  -0.00021   0.00000  -0.00152  -0.00152   2.08708
   A15        2.10025  -0.00031   0.00000  -0.00215  -0.00214   2.09811
   A16        2.09444  -0.00080   0.00000  -0.00176  -0.00177   2.09267
   A17        2.09384  -0.01075   0.00000  -0.04345  -0.04345   2.05039
   A18        2.09490   0.01155   0.00000   0.04521   0.04522   2.14012
   A19        1.92466  -0.00147   0.00000  -0.00913  -0.00913   1.91553
    D1       -0.00011   0.00000   0.00000   0.00017   0.00017   0.00006
    D2        3.14083   0.00002   0.00000   0.00098   0.00098  -3.14137
    D3       -3.14089  -0.00002   0.00000  -0.00073  -0.00074   3.14156
    D4        0.00006   0.00000   0.00000   0.00008   0.00008   0.00013
    D5        0.00007   0.00000   0.00000  -0.00021  -0.00020  -0.00013
    D6       -3.14141  -0.00001   0.00000  -0.00040  -0.00040   3.14138
    D7        3.14084   0.00002   0.00000   0.00071   0.00071   3.14155
    D8       -0.00064   0.00001   0.00000   0.00052   0.00051  -0.00012
    D9        0.00007   0.00000   0.00000  -0.00004  -0.00005   0.00003
   D10        3.14123   0.00002   0.00000   0.00094   0.00094  -3.14102
   D11       -3.14086  -0.00002   0.00000  -0.00088  -0.00087   3.14146
   D12        0.00030   0.00000   0.00000   0.00011   0.00011   0.00041
   D13        0.00000   0.00000   0.00000  -0.00004  -0.00004  -0.00004
   D14        3.14103   0.00002   0.00000   0.00074   0.00074  -3.14142
   D15       -3.14116  -0.00002   0.00000  -0.00103  -0.00102   3.14100
   D16       -0.00012  -0.00001   0.00000  -0.00024  -0.00025  -0.00037
   D17       -0.00004   0.00000   0.00000   0.00000   0.00000  -0.00004
   D18        3.14045   0.00002   0.00000   0.00107   0.00107   3.14152
   D19       -3.14108  -0.00002   0.00000  -0.00076  -0.00076   3.14134
   D20       -0.00059   0.00001   0.00000   0.00031   0.00030  -0.00029
   D21        0.00001   0.00000   0.00000   0.00012   0.00012   0.00012
   D22        3.14148   0.00001   0.00000   0.00031   0.00031  -3.14139
   D23       -3.14048  -0.00002   0.00000  -0.00095  -0.00095  -3.14143
   D24        0.00100  -0.00002   0.00000  -0.00076  -0.00076   0.00024
   D25        3.14147   0.00000   0.00000   0.00016   0.00016  -3.14156
   D26        0.00000   0.00000   0.00000  -0.00004  -0.00004  -0.00004
         Item               Value     Threshold  Converged?
 Maximum Force            0.011547     0.000450     NO 
 RMS     Force            0.002617     0.000300     NO 
 Maximum Displacement     0.103877     0.001800     NO 
 RMS     Displacement     0.023040     0.001200     NO 
 Predicted change in Energy=-7.458812D-04
 GradGradGradGradGradGradGradGradGradGradGradGradGradGradGradGradGradGrad

                          Input orientation:                          
 ---------------------------------------------------------------------
 Center     Atomic      Atomic             Coordinates (Angstroms)
 Number     Number       Type             X           Y           Z
 ---------------------------------------------------------------------
      1          6           0        1.875507   -1.031759   -0.104433
      2          6           0        2.909348   -1.625139    0.612113
      3          6           0        2.872430   -1.649413    2.002066
      4          6           0        1.804695   -1.082325    2.685199
      5          6           0        0.769074   -0.488017    1.970797
      6          6           0        0.803030   -0.461785    0.574042
      7          8           0       -0.182983    0.106494   -0.173639
      8         35           0        4.275530   -2.453278    2.962766
      9          1           0        1.897363   -1.008952   -1.189033
     10          1           0        3.744829   -2.068841    0.081119
     11          1           0        1.775948   -1.101112    3.769856
     12          1           0       -0.066897   -0.044120    2.506315
     13          1           0       -0.867675    0.465649    0.407130
 ---------------------------------------------------------------------
                    Distance matrix (angstroms):
                    1          2          3          4          5
     1  C    0.000000
     2  C    1.390815   0.000000
     3  C    2.410952   1.390654   0.000000
     4  C    2.790989   2.410931   1.388639   0.000000
     5  C    2.413799   2.778460   2.402900   1.391432   0.000000
     6  C    1.391188   2.406537   2.780671   2.417724   1.397414
     7  O    2.353251   3.630216   4.141552   3.679281   2.420426
     8  Br   4.145906   2.842154   1.880913   2.839292   4.140228
     9  H    1.085060   2.155905   3.397655   3.876035   3.395429
    10  H    2.145772   1.084830   2.151054   3.393901   3.863290
    11  H    3.876188   3.395665   2.151276   1.085200   2.150882
    12  H    3.400642   3.865961   3.386868   2.147726   1.087507
    13  H    3.166856   4.321957   4.583197   3.837627   2.456314
                    6          7          8          9         10
     6  C    0.000000
     7  O    1.361686   0.000000
     8  Br   4.661578   6.022276   0.000000
     9  H    2.146017   2.569647   4.997919   0.000000
    10  H    3.388183   4.497187   2.955220   2.479876   0.000000
    11  H    3.401256   4.565838   2.954261   4.961231   4.291826
    12  H    2.159837   2.686692   4.986889   4.294743   4.950790
    13  H    1.918137   0.967000   6.442358   3.516763   5.273056
                   11         12         13
    11  H    0.000000
    12  H    2.471810   0.000000
    13  H    4.555371   2.303841   0.000000
 Stoichiometry    C6H5BrO
 Framework group  C1[X(C6H5BrO)]
 Deg. of freedom    33
 Full point group                 C1      NOp   1
 Largest Abelian subgroup         C1      NOp   1
 Largest concise Abelian subgroup C1      NOp   1
                         Standard orientation:                         
 ---------------------------------------------------------------------
 Center     Atomic      Atomic             Coordinates (Angstroms)
 Number     Number       Type             X           Y           Z
 ---------------------------------------------------------------------
      1          6           0        1.754810    1.219438    0.000169
      2          6           0        0.364040    1.208293    0.000385
      3          6           0       -0.325319    0.000525    0.000482
      4          6           0        0.368023   -1.202635    0.000396
      5          6           0        1.759431   -1.194357    0.000166
      6          6           0        2.455300    0.017474   -0.000023
      7          8           0        3.815413    0.082906   -0.000484
      8         35           0       -2.206225   -0.004792   -0.000167
      9          1           0        2.299577    2.157833    0.000065
     10          1           0       -0.180274    2.146684    0.000324
     11          1           0       -0.169902   -2.145130    0.000305
     12          1           0        2.301895   -2.136908    0.000167
     13          1           0        4.185558   -0.810448   -0.000607
 ---------------------------------------------------------------------
 Rotational constants (GHZ):      5.6675430      0.6383265      0.5737105
 Standard basis: 6-31+G(d) (6D, 7F)
 There are   177 symmetry adapted cartesian basis functions of A   symmetry.
 There are   177 symmetry adapted basis functions of A   symmetry.
   177 basis functions,   331 primitive gaussians,   177 cartesian basis functions
    42 alpha electrons       42 beta electrons
       nuclear repulsion energy       523.7281237748 Hartrees.
 NAtoms=   13 NActive=   13 NUniq=   13 SFac= 1.00D+00 NAtFMM=   60 NAOKFM=F Big=F
 Integral buffers will be    131072 words long.
 Raffenetti 2 integral format.
 Two-electron integral symmetry is turned on.
 One-electron integrals computed using PRISM.
 NBasis=   177 RedAO= T EigKep=  4.29D-06  NBF=   177
 NBsUse=   177 1.00D-06 EigRej= -1.00D+00 NBFU=   177
 Initial guess from the checkpoint file:  "/srv/scratch/z5358697/gauss/Gau-4065255.chk"
 B after Tr=     0.000000    0.000000    0.000000
         Rot=    0.999999   -0.000001    0.000000    0.001083 Ang=  -0.12 deg.
 ExpMin= 3.50D-02 ExpMax= 5.74D+05 ExpMxC= 5.74D+03 IAcc=3 IRadAn=         5 AccDes= 0.00D+00
 Harris functional with IExCor= 1009 and IRadAn=       5 diagonalized for initial guess.
 HarFok:  IExCor= 1009 AccDes= 0.00D+00 IRadAn=         5 IDoV= 1 UseB2=F ITyADJ=14
 ICtDFT=  3500011 ScaDFX=  1.000000  1.000000  1.000000  1.000000
 FoFCou: FMM=F IPFlag=           0 FMFlag=      100000 FMFlg1=           0
         NFxFlg=           0 DoJE=T BraDBF=F KetDBF=T FulRan=T
         wScrn=  0.000000 ICntrl=     500 IOpCl=  0 I1Cent=   200000004 NGrid=           0
         NMat0=    1 NMatS0=      1 NMatT0=    0 NMatD0=    1 NMtDS0=    0 NMtDT0=    0
 Petite list used in FoFCou.
 Requested convergence on RMS density matrix=1.00D-08 within 128 cycles.
 Requested convergence on MAX density matrix=1.00D-06.
 Requested convergence on             energy=1.00D-06.
 No special actions if energy rises.
 SCF Done:  E(RM062X) =  -2878.54504647     A.U. after   13 cycles
            NFock= 13  Conv=0.78D-08     -V/T= 2.0070
 Calling FoFJK, ICntrl=      2127 FMM=F ISym2X=0 I1Cent= 0 IOpClX= 0 NMat=1 NMatS=1 NMatT=0.
 ***** Axes restored to original set *****
 -------------------------------------------------------------------
 Center     Atomic                   Forces (Hartrees/Bohr)
 Number     Number              X              Y              Z
 -------------------------------------------------------------------
      1        6           0.003065116   -0.001680026   -0.000418166
      2        6          -0.000291783    0.000225899   -0.002243780
      3        6           0.000159672   -0.000019753    0.000111990
      4        6          -0.000737260    0.000402778    0.000088150
      5        6          -0.000911345    0.000546277   -0.001741425
      6        6          -0.001015217    0.000440701    0.003589917
      7        8           0.000298053   -0.000174188    0.000053568
      8       35           0.000834473   -0.000509712    0.000532606
      9        1          -0.000833375    0.000461817    0.000005581
     10        1           0.000455392   -0.000270294    0.000427841
     11        1           0.000179948   -0.000104161   -0.000099291
     12        1          -0.000279237    0.000165235   -0.000125234
     13        1          -0.000924437    0.000515426   -0.000181756
 -------------------------------------------------------------------
 Cartesian Forces:  Max     0.003589917 RMS     0.001020927

 GradGradGradGradGradGradGradGradGradGradGradGradGradGradGradGradGradGrad
 Berny optimization.
 Using GEDIIS/GDIIS optimizer.
 FormGI is forming the generalized inverse of G from B-inverse, IUseBI=4.
 Internal  Forces:  Max     0.002654780 RMS     0.000680155
 Search for a local minimum.
 Step number   2 out of a maximum of   68
 All quantities printed in internal units (Hartrees-Bohrs-Radians)
 Mixed Optimization -- En-DIIS/RFO-DIIS
 Update second derivatives using D2CorX and points    1    2
 DE= -7.28D-04 DEPred=-7.46D-04 R= 9.76D-01
 TightC=F SS=  1.41D+00  RLast= 7.75D-02 DXNew= 5.0454D-01 2.3264D-01
 Trust test= 9.76D-01 RLast= 7.75D-02 DXMaxT set to 3.00D-01
 ITU=  1  0
 Use linear search instead of GDIIS.
     Eigenvalues ---    0.02156   0.02156   0.02156   0.02156   0.02156
     Eigenvalues ---    0.02156   0.02157   0.02157   0.02166   0.02206
     Eigenvalues ---    0.14444   0.16000   0.16000   0.16000   0.16269
     Eigenvalues ---    0.19063   0.21752   0.22981   0.23649   0.24959
     Eigenvalues ---    0.25193   0.35146   0.35172   0.35206   0.35229
     Eigenvalues ---    0.42173   0.42823   0.46013   0.46474   0.46475
     Eigenvalues ---    0.50853   0.52704   0.54655
 RFO step:  Lambda=-8.65044045D-05 EMin= 2.15596209D-02
 Quartic linear search produced a step of -0.01807.
 Iteration  1 RMS(Cart)=  0.00425350 RMS(Int)=  0.00002078
 Iteration  2 RMS(Cart)=  0.00002167 RMS(Int)=  0.00000058
 Iteration  3 RMS(Cart)=  0.00000000 RMS(Int)=  0.00000058
 Variable       Old X    -DE/DX   Delta X   Delta X   Delta X     New X
                                 (Linear)    (Quad)   (Total)
    R1        2.62826  -0.00059   0.00014  -0.00177  -0.00163   2.62663
    R2        2.62896   0.00265   0.00012   0.00504   0.00516   2.63413
    R3        2.05047  -0.00001   0.00005  -0.00024  -0.00019   2.05028
    R4        2.62796   0.00099   0.00015   0.00162   0.00176   2.62972
    R5        2.05003   0.00025   0.00008   0.00037   0.00045   2.05048
    R6        2.62415   0.00146   0.00021   0.00224   0.00246   2.62661
    R7        3.55441   0.00111   0.00030   0.00455   0.00485   3.55926
    R8        2.62943   0.00055   0.00012   0.00058   0.00070   2.63013
    R9        2.05073  -0.00010   0.00006  -0.00054  -0.00048   2.05025
   R10        2.64073  -0.00222  -0.00009  -0.00446  -0.00454   2.63619
   R11        2.05509   0.00022  -0.00003   0.00075   0.00072   2.05581
   R12        2.57321   0.00067  -0.00002   0.00132   0.00130   2.57452
   R13        1.82736   0.00074   0.00012   0.00086   0.00098   1.82834
    A1        2.09045   0.00035   0.00007   0.00139   0.00146   2.09191
    A2        2.10479   0.00080  -0.00030   0.00645   0.00614   2.11093
    A3        2.08795  -0.00116   0.00023  -0.00784  -0.00761   2.08034
    A4        2.09746  -0.00095  -0.00006  -0.00346  -0.00352   2.09394
    A5        2.08840   0.00112  -0.00017   0.00654   0.00637   2.09477
    A6        2.09732  -0.00017   0.00023  -0.00308  -0.00285   2.09447
    A7        2.10016   0.00003  -0.00010   0.00096   0.00085   2.10101
    A8        2.09227  -0.00009   0.00004  -0.00073  -0.00070   2.09158
    A9        2.09076   0.00006   0.00007  -0.00023  -0.00016   2.09060
   A10        2.08763   0.00058   0.00012   0.00208   0.00220   2.08983
   A11        2.10017  -0.00050   0.00019  -0.00341  -0.00322   2.09696
   A12        2.09538  -0.00007  -0.00031   0.00133   0.00102   2.09640
   A13        2.09800  -0.00070  -0.00007  -0.00322  -0.00328   2.09472
   A14        2.08708   0.00062   0.00003   0.00331   0.00334   2.09041
   A15        2.09811   0.00008   0.00004  -0.00009  -0.00005   2.09805
   A16        2.09267   0.00068   0.00003   0.00226   0.00229   2.09496
   A17        2.05039  -0.00068   0.00079  -0.00583  -0.00505   2.04534
   A18        2.14012   0.00000  -0.00082   0.00358   0.00276   2.14288
   A19        1.91553   0.00142   0.00016   0.00803   0.00820   1.92372
    D1        0.00006   0.00000   0.00000  -0.00015  -0.00015  -0.00009
    D2       -3.14137  -0.00001  -0.00002  -0.00040  -0.00042   3.14140
    D3        3.14156   0.00000   0.00001   0.00000   0.00001   3.14158
    D4        0.00013  -0.00001   0.00000  -0.00025  -0.00025  -0.00012
    D5       -0.00013   0.00000   0.00000   0.00010   0.00010  -0.00003
    D6        3.14138   0.00001   0.00001   0.00024   0.00024  -3.14156
    D7        3.14155   0.00000  -0.00001  -0.00005  -0.00006   3.14149
    D8       -0.00012   0.00000  -0.00001   0.00009   0.00008  -0.00004
    D9        0.00003   0.00000   0.00000   0.00018   0.00018   0.00021
   D10       -3.14102  -0.00003  -0.00002  -0.00109  -0.00111   3.14106
   D11        3.14146   0.00001   0.00002   0.00043   0.00044  -3.14128
   D12        0.00041  -0.00002   0.00000  -0.00084  -0.00084  -0.00043
   D13       -0.00004   0.00000   0.00000  -0.00016  -0.00016  -0.00020
   D14       -3.14142  -0.00001  -0.00001  -0.00047  -0.00048   3.14129
   D15        3.14100   0.00003   0.00002   0.00111   0.00113  -3.14105
   D16       -0.00037   0.00002   0.00000   0.00080   0.00080   0.00043
   D17       -0.00004   0.00000   0.00000   0.00011   0.00011   0.00007
   D18        3.14152   0.00000  -0.00002   0.00009   0.00007   3.14159
   D19        3.14134   0.00001   0.00001   0.00042   0.00043  -3.14141
   D20       -0.00029   0.00001  -0.00001   0.00040   0.00039   0.00011
   D21        0.00012   0.00000   0.00000  -0.00008  -0.00008   0.00004
   D22       -3.14139  -0.00001  -0.00001  -0.00022  -0.00023   3.14157
   D23       -3.14143   0.00000   0.00002  -0.00006  -0.00004  -3.14147
   D24        0.00024   0.00000   0.00001  -0.00020  -0.00019   0.00005
   D25       -3.14156   0.00000   0.00000  -0.00009  -0.00009   3.14153
   D26       -0.00004   0.00000   0.00000   0.00005   0.00005   0.00001
         Item               Value     Threshold  Converged?
 Maximum Force            0.002655     0.000450     NO 
 RMS     Force            0.000680     0.000300     NO 
 Maximum Displacement     0.017933     0.001800     NO 
 RMS     Displacement     0.004256     0.001200     NO 
 Predicted change in Energy=-4.351597D-05
 GradGradGradGradGradGradGradGradGradGradGradGradGradGradGradGradGradGrad

                          Input orientation:                          
 ---------------------------------------------------------------------
 Center     Atomic      Atomic             Coordinates (Angstroms)
 Number     Number       Type             X           Y           Z
 ---------------------------------------------------------------------
      1          6           0        1.876751   -1.032289   -0.102700
      2          6           0        2.911694   -1.625994    0.610307
      3          6           0        2.873732   -1.649491    2.001178
      4          6           0        1.804882   -1.081991    2.684871
      5          6           0        0.767533   -0.487004    1.972823
      6          6           0        0.802766   -0.461718    0.578487
      7          8           0       -0.181325    0.105158   -0.174030
      8         35           0        4.277779   -2.455764    2.963503
      9          1           0        1.890218   -1.005048   -1.187234
     10          1           0        3.748916   -2.071098    0.082756
     11          1           0        1.778997   -1.102687    3.769312
     12          1           0       -0.069308   -0.042668    2.507386
     13          1           0       -0.872435    0.467994    0.397641
 ---------------------------------------------------------------------
                    Distance matrix (angstroms):
                    1          2          3          4          5
     1  C    0.000000
     2  C    1.389954   0.000000
     3  C    2.408570   1.391587   0.000000
     4  C    2.788939   2.413459   1.389940   0.000000
     5  C    2.415677   2.784093   2.405879   1.391802   0.000000
     6  C    1.393919   2.409176   2.779164   2.413675   1.395010
     7  O    2.352563   3.630268   4.140495   3.677996   2.420737
     8  Br   4.146422   2.844685   1.883479   2.842552   4.144790
     9  H    1.084960   2.158736   3.398319   3.873809   3.393339
    10  H    2.149074   1.085066   2.150359   3.395379   3.869154
    11  H    3.873885   3.396493   2.150288   1.084948   2.151627
    12  H    3.402800   3.871977   3.391108   2.150414   1.087886
    13  H    3.171627   4.330087   4.592259   3.847324   2.466316
                    6          7          8          9         10
     6  C    0.000000
     7  O    1.362375   0.000000
     8  Br   4.662642   6.023790   0.000000
     9  H    2.143718   2.559380   5.003363   0.000000
    10  H    3.393472   4.499869   2.954043   2.490802   0.000000
    11  H    3.397828   4.566366   2.953651   4.958755   4.290583
    12  H    2.157955   2.687824   4.992818   4.291403   4.957035
    13  H    1.924414   0.967518   6.454201   3.509121   5.282332
                   11         12         13
    11  H    0.000000
    12  H    2.476354   0.000000
    13  H    4.567855   2.314479   0.000000
 Stoichiometry    C6H5BrO
 Framework group  C1[X(C6H5BrO)]
 Deg. of freedom    33
 Full point group                 C1      NOp   1
 Largest Abelian subgroup         C1      NOp   1
 Largest concise Abelian subgroup C1      NOp   1
                         Standard orientation:                         
 ---------------------------------------------------------------------
 Center     Atomic      Atomic             Coordinates (Angstroms)
 Number     Number       Type             X           Y           Z
 ---------------------------------------------------------------------
      1          6           0        1.753928    1.219094   -0.000053
      2          6           0        0.363997    1.210949   -0.000250
      3          6           0       -0.324174    0.001431   -0.000480
      4          6           0        0.370433   -1.202501   -0.000264
      5          6           0        1.762222   -1.196568   -0.000054
      6          6           0        2.454961    0.014286    0.000026
      7          8           0        3.815464    0.085683    0.000260
      8         35           0       -2.207641   -0.005154    0.000117
      9          1           0        2.306409    2.152851    0.000111
     10          1           0       -0.184386    2.147242   -0.000132
     11          1           0       -0.169918   -2.143317   -0.000156
     12          1           0        2.306431   -2.138552    0.000118
     13          1           0        4.197003   -0.803428    0.000347
 ---------------------------------------------------------------------
 Rotational constants (GHZ):      5.6610789      0.6377520      0.5731801
 Standard basis: 6-31+G(d) (6D, 7F)
 There are   177 symmetry adapted cartesian basis functions of A   symmetry.
 There are   177 symmetry adapted basis functions of A   symmetry.
   177 basis functions,   331 primitive gaussians,   177 cartesian basis functions
    42 alpha electrons       42 beta electrons
       nuclear repulsion energy       523.4483774524 Hartrees.
 NAtoms=   13 NActive=   13 NUniq=   13 SFac= 1.00D+00 NAtFMM=   60 NAOKFM=F Big=F
 Integral buffers will be    131072 words long.
 Raffenetti 2 integral format.
 Two-electron integral symmetry is turned on.
 One-electron integrals computed using PRISM.
 NBasis=   177 RedAO= T EigKep=  4.30D-06  NBF=   177
 NBsUse=   177 1.00D-06 EigRej= -1.00D+00 NBFU=   177
 Initial guess from the checkpoint file:  "/srv/scratch/z5358697/gauss/Gau-4065255.chk"
 B after Tr=     0.000000    0.000000    0.000000
         Rot=    1.000000    0.000000    0.000000   -0.000128 Ang=  -0.01 deg.
 Requested convergence on RMS density matrix=1.00D-08 within 128 cycles.
 Requested convergence on MAX density matrix=1.00D-06.
 Requested convergence on             energy=1.00D-06.
 No special actions if energy rises.
 SCF Done:  E(RM062X) =  -2878.54509796     A.U. after   11 cycles
            NFock= 11  Conv=0.70D-08     -V/T= 2.0071
 Calling FoFJK, ICntrl=      2127 FMM=F ISym2X=0 I1Cent= 0 IOpClX= 0 NMat=1 NMatS=1 NMatT=0.
 ***** Axes restored to original set *****
 -------------------------------------------------------------------
 Center     Atomic                   Forces (Hartrees/Bohr)
 Number     Number              X              Y              Z
 -------------------------------------------------------------------
      1        6           0.001058771   -0.000582769    0.000041900
      2        6          -0.000211717    0.000170650   -0.001075560
      3        6          -0.000493535    0.000148890    0.000781715
      4        6           0.000649913   -0.000339022   -0.000027184
      5        6          -0.000804580    0.000468150   -0.000669296
      6        6          -0.000251721    0.000118930    0.000822474
      7        8           0.000185785   -0.000100086   -0.000041345
      8       35           0.000016595    0.000025783    0.000007301
      9        1          -0.000302544    0.000169419   -0.000079334
     10        1           0.000091153   -0.000047128    0.000079190
     11        1           0.000025719   -0.000012028    0.000095583
     12        1           0.000087666   -0.000046105   -0.000049725
     13        1          -0.000051505    0.000025315    0.000114279
 -------------------------------------------------------------------
 Cartesian Forces:  Max     0.001075560 RMS     0.000405274

 GradGradGradGradGradGradGradGradGradGradGradGradGradGradGradGradGradGrad
 Berny optimization.
 Using GEDIIS/GDIIS optimizer.
 FormGI is forming the generalized inverse of G from B-inverse, IUseBI=4.
 Internal  Forces:  Max     0.000720903 RMS     0.000208021
 Search for a local minimum.
 Step number   3 out of a maximum of   68
 All quantities printed in internal units (Hartrees-Bohrs-Radians)
 Mixed Optimization -- En-DIIS/RFO-DIIS
 Swapping is turned off.
 Update second derivatives using D2CorX and points    1    2    3
 DE= -5.15D-05 DEPred=-4.35D-05 R= 1.18D+00
 TightC=F SS=  1.41D+00  RLast= 1.99D-02 DXNew= 5.0454D-01 5.9670D-02
 Trust test= 1.18D+00 RLast= 1.99D-02 DXMaxT set to 3.00D-01
 ITU=  1  1  0
     Eigenvalues ---    0.02156   0.02156   0.02156   0.02156   0.02156
     Eigenvalues ---    0.02157   0.02157   0.02163   0.02166   0.02206
     Eigenvalues ---    0.11905   0.16000   0.16000   0.16038   0.16862
     Eigenvalues ---    0.19455   0.21079   0.22955   0.23711   0.25006
     Eigenvalues ---    0.25435   0.35170   0.35181   0.35228   0.35335
     Eigenvalues ---    0.42168   0.42729   0.43456   0.46475   0.46874
     Eigenvalues ---    0.50259   0.53169   0.54665
 En-DIIS/RFO-DIIS IScMMF=        0 using points:     3    2
 RFO step:  Lambda=-4.92356909D-06.
 DidBck=F Rises=F RFO-DIIS coefs:    1.22331   -0.22331
 Iteration  1 RMS(Cart)=  0.00138873 RMS(Int)=  0.00000254
 Iteration  2 RMS(Cart)=  0.00000260 RMS(Int)=  0.00000035
 Iteration  3 RMS(Cart)=  0.00000000 RMS(Int)=  0.00000035
 Variable       Old X    -DE/DX   Delta X   Delta X   Delta X     New X
                                 (Linear)    (Quad)   (Total)
    R1        2.62663  -0.00048  -0.00036  -0.00115  -0.00151   2.62512
    R2        2.63413   0.00057   0.00115   0.00064   0.00179   2.63592
    R3        2.05028   0.00008  -0.00004   0.00026   0.00022   2.05050
    R4        2.62972   0.00072   0.00039   0.00155   0.00194   2.63166
    R5        2.05048   0.00005   0.00010   0.00004   0.00014   2.05062
    R6        2.62661  -0.00028   0.00055  -0.00126  -0.00071   2.62590
    R7        3.55926   0.00000   0.00108  -0.00093   0.00015   3.55941
    R8        2.63013   0.00049   0.00016   0.00107   0.00122   2.63135
    R9        2.05025   0.00009  -0.00011   0.00034   0.00024   2.05049
   R10        2.63619  -0.00058  -0.00101  -0.00083  -0.00185   2.63434
   R11        2.05581  -0.00011   0.00016  -0.00046  -0.00030   2.05551
   R12        2.57452  -0.00017   0.00029  -0.00056  -0.00027   2.57425
   R13        1.82834   0.00012   0.00022   0.00002   0.00024   1.82858
    A1        2.09191  -0.00002   0.00033  -0.00034  -0.00001   2.09190
    A2        2.11093   0.00037   0.00137   0.00220   0.00358   2.11451
    A3        2.08034  -0.00035  -0.00170  -0.00186  -0.00356   2.07678
    A4        2.09394  -0.00026  -0.00079  -0.00077  -0.00155   2.09239
    A5        2.09477   0.00025   0.00142   0.00083   0.00225   2.09702
    A6        2.09447   0.00001  -0.00064  -0.00006  -0.00070   2.09377
    A7        2.10101   0.00018   0.00019   0.00100   0.00119   2.10220
    A8        2.09158  -0.00009  -0.00016  -0.00045  -0.00061   2.09097
    A9        2.09060  -0.00009  -0.00004  -0.00054  -0.00058   2.09002
   A10        2.08983   0.00001   0.00049  -0.00026   0.00023   2.09006
   A11        2.09696  -0.00004  -0.00072  -0.00006  -0.00078   2.09617
   A12        2.09640   0.00003   0.00023   0.00032   0.00055   2.09695
   A13        2.09472  -0.00025  -0.00073  -0.00089  -0.00162   2.09310
   A14        2.09041   0.00012   0.00075   0.00014   0.00089   2.09130
   A15        2.09805   0.00013  -0.00001   0.00075   0.00074   2.09879
   A16        2.09496   0.00034   0.00051   0.00126   0.00177   2.09673
   A17        2.04534  -0.00013  -0.00113  -0.00065  -0.00178   2.04356
   A18        2.14288  -0.00020   0.00062  -0.00060   0.00001   2.14290
   A19        1.92372  -0.00011   0.00183  -0.00217  -0.00034   1.92339
    D1       -0.00009   0.00001  -0.00003   0.00032   0.00029   0.00020
    D2        3.14140   0.00001  -0.00009   0.00063   0.00054  -3.14125
    D3        3.14158   0.00000   0.00000   0.00003   0.00004  -3.14157
    D4       -0.00012   0.00001  -0.00006   0.00034   0.00029   0.00017
    D5       -0.00003   0.00000   0.00002   0.00001   0.00003   0.00000
    D6       -3.14156   0.00000   0.00005  -0.00019  -0.00014   3.14149
    D7        3.14149   0.00000  -0.00001   0.00029   0.00028  -3.14142
    D8       -0.00004   0.00000   0.00002   0.00009   0.00011   0.00007
    D9        0.00021  -0.00001   0.00004  -0.00063  -0.00059  -0.00038
   D10        3.14106   0.00003  -0.00025   0.00165   0.00140  -3.14072
   D11       -3.14128  -0.00002   0.00010  -0.00094  -0.00084   3.14106
   D12       -0.00043   0.00002  -0.00019   0.00134   0.00115   0.00072
   D13       -0.00020   0.00001  -0.00004   0.00060   0.00057   0.00037
   D14        3.14129   0.00002  -0.00011   0.00094   0.00083  -3.14107
   D15       -3.14105  -0.00003   0.00025  -0.00167  -0.00142   3.14071
   D16        0.00043  -0.00002   0.00018  -0.00134  -0.00116  -0.00073
   D17        0.00007   0.00000   0.00002  -0.00027  -0.00024  -0.00017
   D18        3.14159   0.00000   0.00002  -0.00001   0.00000   3.14159
   D19       -3.14141  -0.00001   0.00010  -0.00060  -0.00051   3.14127
   D20        0.00011  -0.00001   0.00009  -0.00035  -0.00026  -0.00015
   D21        0.00004   0.00000  -0.00002  -0.00003  -0.00005  -0.00001
   D22        3.14157   0.00000  -0.00005   0.00018   0.00013  -3.14149
   D23       -3.14147   0.00000  -0.00001  -0.00029  -0.00030   3.14141
   D24        0.00005   0.00000  -0.00004  -0.00008  -0.00012  -0.00007
   D25        3.14153   0.00000  -0.00002   0.00013   0.00011  -3.14154
   D26        0.00001   0.00000   0.00001  -0.00008  -0.00006  -0.00005
         Item               Value     Threshold  Converged?
 Maximum Force            0.000721     0.000450     NO 
 RMS     Force            0.000208     0.000300     YES
 Maximum Displacement     0.005861     0.001800     NO 
 RMS     Displacement     0.001389     0.001200     NO 
 Predicted change in Energy=-5.345026D-06
 GradGradGradGradGradGradGradGradGradGradGradGradGradGradGradGradGradGrad

                          Input orientation:                          
 ---------------------------------------------------------------------
 Center     Atomic      Atomic             Coordinates (Angstroms)
 Number     Number       Type             X           Y           Z
 ---------------------------------------------------------------------
      1          6           0        1.877480   -1.032892   -0.102723
      2          6           0        2.912129   -1.626636    0.609117
      3          6           0        2.872782   -1.649950    2.000980
      4          6           0        1.804586   -1.082319    2.684823
      5          6           0        0.766551   -0.486692    1.973047
      6          6           0        0.803175   -0.462097    0.579712
      7          8           0       -0.179864    0.104667   -0.174005
      8         35           0        4.277587   -2.454369    2.963908
      9          1           0        1.887116   -1.003147   -1.187347
     10          1           0        3.750349   -2.071831    0.083076
     11          1           0        1.779888   -1.103218    3.769414
     12          1           0       -0.070181   -0.042012    2.507176
     13          1           0       -0.871398    0.467893    0.397121
 ---------------------------------------------------------------------
                    Distance matrix (angstroms):
                    1          2          3          4          5
     1  C    0.000000
     2  C    1.389152   0.000000
     3  C    2.407686   1.392615   0.000000
     4  C    2.788937   2.414848   1.389565   0.000000
     5  C    2.416882   2.786267   2.406275   1.392449   0.000000
     6  C    1.394867   2.409294   2.777458   2.412259   1.394033
     7  O    2.351975   3.629202   4.138586   3.676939   2.419760
     8  Br   4.145519   2.845111   1.883559   2.841855   4.144988
     9  H    1.085075   2.160248   3.399313   3.873859   3.392711
    10  H    2.149780   1.085141   2.150921   3.396206   3.871396
    11  H    3.874005   3.397560   2.149579   1.085073   2.152647
    12  H    3.403938   3.873994   3.391567   2.151406   1.087728
    13  H    3.171519   4.329789   4.590916   3.846769   2.465290
                    6          7          8          9         10
     6  C    0.000000
     7  O    1.362233   0.000000
     8  Br   4.661016   6.021962   0.000000
     9  H    2.142466   2.554706   5.005328   0.000000
    10  H    3.394661   4.499979   2.953558   2.495536   0.000000
    11  H    3.396940   4.566198   2.951770   4.958931   4.290689
    12  H    2.157392   2.687429   4.993110   4.290023   4.959120
    13  H    1.924167   0.967645   6.452911   3.504840   5.282932
                   11         12         13
    11  H    0.000000
    12  H    2.478338   0.000000
    13  H    4.568377   2.313933   0.000000
 Stoichiometry    C6H5BrO
 Framework group  C1[X(C6H5BrO)]
 Deg. of freedom    33
 Full point group                 C1      NOp   1
 Largest Abelian subgroup         C1      NOp   1
 Largest concise Abelian subgroup C1      NOp   1
                         Standard orientation:                         
 ---------------------------------------------------------------------
 Center     Atomic      Atomic             Coordinates (Angstroms)
 Number     Number       Type             X           Y           Z
 ---------------------------------------------------------------------
      1          6           0        1.753270    1.219500    0.000115
      2          6           0        0.364135    1.212481    0.000421
      3          6           0       -0.323644    0.001558    0.000811
      4          6           0        0.370240   -1.202359    0.000438
      5          6           0        1.762680   -1.197364    0.000118
      6          6           0        2.453789    0.013295   -0.000038
      7          8           0        3.814081    0.085988   -0.000468
      8         35           0       -2.207190   -0.005281   -0.000199
      9          1           0        2.309899    2.150925   -0.000173
     10          1           0       -0.185635    2.148047    0.000216
     11          1           0       -0.171328   -2.142618    0.000255
     12          1           0        2.307008   -2.139097   -0.000173
     13          1           0        4.196223   -0.803002   -0.000588
 ---------------------------------------------------------------------
 Rotational constants (GHZ):      5.6566703      0.6380689      0.5733908
 Standard basis: 6-31+G(d) (6D, 7F)
 There are   177 symmetry adapted cartesian basis functions of A   symmetry.
 There are   177 symmetry adapted basis functions of A   symmetry.
   177 basis functions,   331 primitive gaussians,   177 cartesian basis functions
    42 alpha electrons       42 beta electrons
       nuclear repulsion energy       523.4807364751 Hartrees.
 NAtoms=   13 NActive=   13 NUniq=   13 SFac= 1.00D+00 NAtFMM=   60 NAOKFM=F Big=F
 Integral buffers will be    131072 words long.
 Raffenetti 2 integral format.
 Two-electron integral symmetry is turned on.
 One-electron integrals computed using PRISM.
 NBasis=   177 RedAO= T EigKep=  4.31D-06  NBF=   177
 NBsUse=   177 1.00D-06 EigRej= -1.00D+00 NBFU=   177
 Initial guess from the checkpoint file:  "/srv/scratch/z5358697/gauss/Gau-4065255.chk"
 B after Tr=     0.000000    0.000000    0.000000
         Rot=    1.000000    0.000000    0.000000    0.000001 Ang=   0.00 deg.
 Requested convergence on RMS density matrix=1.00D-08 within 128 cycles.
 Requested convergence on MAX density matrix=1.00D-06.
 Requested convergence on             energy=1.00D-06.
 No special actions if energy rises.
 SCF Done:  E(RM062X) =  -2878.54510362     A.U. after   10 cycles
            NFock= 10  Conv=0.90D-08     -V/T= 2.0071
 Calling FoFJK, ICntrl=      2127 FMM=F ISym2X=0 I1Cent= 0 IOpClX= 0 NMat=1 NMatS=1 NMatT=0.
 ***** Axes restored to original set *****
 -------------------------------------------------------------------
 Center     Atomic                   Forces (Hartrees/Bohr)
 Number     Number              X              Y              Z
 -------------------------------------------------------------------
      1        6           0.000195472   -0.000108237    0.000069700
      2        6          -0.000094138    0.000021037   -0.000203582
      3        6          -0.000181908    0.000260702    0.000299768
      4        6           0.000393859   -0.000254513   -0.000008164
      5        6          -0.000239054    0.000138294   -0.000169381
      6        6           0.000050033   -0.000042423    0.000006935
      7        8          -0.000100999    0.000053079   -0.000024379
      8       35           0.000007385   -0.000062792   -0.000010559
      9        1          -0.000025220    0.000013588   -0.000006733
     10        1          -0.000016521   -0.000001333    0.000020080
     11        1          -0.000038991    0.000012628    0.000005366
     12        1           0.000042472   -0.000025151    0.000019629
     13        1           0.000007608   -0.000004881    0.000001321
 -------------------------------------------------------------------
 Cartesian Forces:  Max     0.000393859 RMS     0.000129061

 GradGradGradGradGradGradGradGradGradGradGradGradGradGradGradGradGradGrad
 Berny optimization.
 Using GEDIIS/GDIIS optimizer.
 FormGI is forming the generalized inverse of G from B-inverse, IUseBI=4.
 Internal  Forces:  Max     0.000269994 RMS     0.000061332
 Search for a local minimum.
 Step number   4 out of a maximum of   68
 All quantities printed in internal units (Hartrees-Bohrs-Radians)
 Mixed Optimization -- En-DIIS/RFO-DIIS
 Swapping is turned off.
 Update second derivatives using D2CorX and points    1    2    3    4
 DE= -5.66D-06 DEPred=-5.35D-06 R= 1.06D+00
 TightC=F SS=  1.41D+00  RLast= 8.47D-03 DXNew= 5.0454D-01 2.5407D-02
 Trust test= 1.06D+00 RLast= 8.47D-03 DXMaxT set to 3.00D-01
 ITU=  1  1  1  0
     Eigenvalues ---    0.02156   0.02156   0.02156   0.02156   0.02156
     Eigenvalues ---    0.02157   0.02157   0.02166   0.02206   0.02261
     Eigenvalues ---    0.11307   0.16000   0.16002   0.16082   0.16843
     Eigenvalues ---    0.19469   0.21511   0.22976   0.23862   0.25009
     Eigenvalues ---    0.25206   0.35171   0.35190   0.35234   0.35269
     Eigenvalues ---    0.38892   0.42208   0.43050   0.46467   0.46547
     Eigenvalues ---    0.51805   0.53435   0.55402
 En-DIIS/RFO-DIIS IScMMF=        0 using points:     4    3    2
 RFO step:  Lambda=-4.13556465D-07.
 DidBck=F Rises=F RFO-DIIS coefs:    1.04264   -0.02542   -0.01723
 Iteration  1 RMS(Cart)=  0.00060651 RMS(Int)=  0.00000064
 Iteration  2 RMS(Cart)=  0.00000054 RMS(Int)=  0.00000030
 Variable       Old X    -DE/DX   Delta X   Delta X   Delta X     New X
                                 (Linear)    (Quad)   (Total)
    R1        2.62512  -0.00012  -0.00009  -0.00033  -0.00042   2.62469
    R2        2.63592   0.00005   0.00017   0.00016   0.00033   2.63624
    R3        2.05050   0.00001   0.00001   0.00003   0.00003   2.05053
    R4        2.63166   0.00015   0.00011   0.00038   0.00049   2.63215
    R5        2.05062  -0.00002   0.00001  -0.00006  -0.00005   2.05057
    R6        2.62590  -0.00027   0.00001  -0.00064  -0.00063   2.62526
    R7        3.55941   0.00003   0.00009   0.00012   0.00021   3.55962
    R8        2.63135   0.00023   0.00006   0.00056   0.00062   2.63197
    R9        2.05049   0.00001   0.00000   0.00002   0.00003   2.05052
   R10        2.63434  -0.00002  -0.00016  -0.00008  -0.00024   2.63411
   R11        2.05551  -0.00003   0.00000  -0.00011  -0.00011   2.05540
   R12        2.57425   0.00010   0.00001   0.00018   0.00019   2.57444
   R13        1.82858   0.00000   0.00003  -0.00001   0.00002   1.82860
    A1        2.09190   0.00000   0.00002  -0.00001   0.00001   2.09191
    A2        2.11451   0.00003   0.00026   0.00035   0.00060   2.11511
    A3        2.07678  -0.00003  -0.00028  -0.00033  -0.00062   2.07616
    A4        2.09239   0.00003  -0.00013   0.00006  -0.00006   2.09233
    A5        2.09702  -0.00001   0.00021   0.00007   0.00027   2.09729
    A6        2.09377  -0.00002  -0.00008  -0.00013  -0.00021   2.09356
    A7        2.10220   0.00001   0.00007   0.00005   0.00012   2.10232
    A8        2.09097  -0.00006  -0.00004  -0.00026  -0.00030   2.09067
    A9        2.09002   0.00005  -0.00003   0.00021   0.00018   2.09019
   A10        2.09006  -0.00001   0.00005  -0.00005   0.00000   2.09006
   A11        2.09617   0.00004  -0.00009   0.00023   0.00014   2.09631
   A12        2.09695  -0.00003   0.00004  -0.00018  -0.00014   2.09681
   A13        2.09310   0.00000  -0.00013  -0.00002  -0.00014   2.09295
   A14        2.09130  -0.00005   0.00010  -0.00029  -0.00019   2.09111
   A15        2.09879   0.00005   0.00003   0.00030   0.00034   2.09912
   A16        2.09673  -0.00003   0.00011  -0.00004   0.00008   2.09680
   A17        2.04356   0.00008  -0.00016   0.00024   0.00007   2.04364
   A18        2.14290  -0.00005   0.00005  -0.00020  -0.00015   2.14275
   A19        1.92339  -0.00002   0.00013  -0.00016  -0.00003   1.92336
    D1        0.00020  -0.00001   0.00001  -0.00046  -0.00045  -0.00025
    D2       -3.14125  -0.00002   0.00002  -0.00078  -0.00077   3.14117
    D3       -3.14157   0.00000   0.00000  -0.00006  -0.00006   3.14155
    D4        0.00017  -0.00001   0.00001  -0.00038  -0.00037  -0.00021
    D5        0.00000   0.00000   0.00000   0.00003   0.00003   0.00003
    D6        3.14149   0.00001   0.00000   0.00026   0.00026  -3.14144
    D7       -3.14142  -0.00001   0.00001  -0.00036  -0.00035   3.14141
    D8        0.00007   0.00000   0.00001  -0.00013  -0.00012  -0.00006
    D9       -0.00038   0.00002  -0.00002   0.00088   0.00086   0.00047
   D10       -3.14072  -0.00004   0.00004  -0.00199  -0.00195   3.14051
   D11        3.14106   0.00003  -0.00003   0.00120   0.00117  -3.14095
   D12        0.00072  -0.00004   0.00003  -0.00167  -0.00163  -0.00091
   D13        0.00037  -0.00002   0.00002  -0.00085  -0.00083  -0.00046
   D14       -3.14107  -0.00003   0.00003  -0.00118  -0.00116   3.14096
   D15        3.14071   0.00004  -0.00004   0.00201   0.00197  -3.14050
   D16       -0.00073   0.00004  -0.00004   0.00168   0.00165   0.00092
   D17       -0.00017   0.00001  -0.00001   0.00042   0.00041   0.00024
   D18        3.14159   0.00000   0.00000   0.00004   0.00005  -3.14155
   D19        3.14127   0.00002  -0.00001   0.00075   0.00073  -3.14119
   D20       -0.00015   0.00001   0.00000   0.00037   0.00037   0.00021
   D21       -0.00001   0.00000   0.00000  -0.00001  -0.00001  -0.00002
   D22       -3.14149  -0.00001   0.00000  -0.00026  -0.00026   3.14144
   D23        3.14141   0.00001  -0.00001   0.00037   0.00035  -3.14142
   D24       -0.00007   0.00000  -0.00001   0.00012   0.00011   0.00004
   D25       -3.14154   0.00000   0.00000  -0.00014  -0.00014   3.14151
   D26       -0.00005   0.00000   0.00000   0.00010   0.00010   0.00004
         Item               Value     Threshold  Converged?
 Maximum Force            0.000270     0.000450     YES
 RMS     Force            0.000061     0.000300     YES
 Maximum Displacement     0.002803     0.001800     NO 
 RMS     Displacement     0.000607     0.001200     YES
 Predicted change in Energy=-5.358817D-07
 GradGradGradGradGradGradGradGradGradGradGradGradGradGradGradGradGradGrad

                          Input orientation:                          
 ---------------------------------------------------------------------
 Center     Atomic      Atomic             Coordinates (Angstroms)
 Number     Number       Type             X           Y           Z
 ---------------------------------------------------------------------
      1          6           0        1.877819   -1.032765   -0.102745
      2          6           0        2.912396   -1.626170    0.609044
      3          6           0        2.873232   -1.648827    2.001185
      4          6           0        1.805002   -1.081873    2.684857
      5          6           0        0.766577   -0.486355    1.972912
      6          6           0        0.803282   -0.461998    0.579699
      7          8           0       -0.180118    0.104310   -0.174072
      8         35           0        4.276911   -2.455852    2.963789
      9          1           0        1.886700   -1.003138   -1.187397
     10          1           0        3.750443   -2.071980    0.083303
     11          1           0        1.779908   -1.103191    3.769444
     12          1           0       -0.070230   -0.042139    2.507190
     13          1           0       -0.871721    0.467376    0.397091
 ---------------------------------------------------------------------
                    Distance matrix (angstroms):
                    1          2          3          4          5
     1  C    0.000000
     2  C    1.388928   0.000000
     3  C    2.407675   1.392876   0.000000
     4  C    2.788985   2.414867   1.389230   0.000000
     5  C    2.416976   2.786369   2.406270   1.392779   0.000000
     6  C    1.395040   2.409258   2.777387   2.412339   1.393909
     7  O    2.352261   3.629253   4.138620   3.677119   2.419639
     8  Br   4.145412   2.845188   1.883669   2.841822   4.145262
     9  H    1.085093   2.160422   3.399590   3.873916   3.392535
    10  H    2.149721   1.085114   2.151007   3.396047   3.871471
    11  H    3.874067   3.397671   2.149376   1.085087   2.152871
    12  H    3.404115   3.874038   3.391380   2.151536   1.087670
    13  H    3.171786   4.329827   4.590871   3.846932   2.465123
                    6          7          8          9         10
     6  C    0.000000
     7  O    1.362333   0.000000
     8  Br   4.661055   6.022101   0.000000
     9  H    2.142255   2.554409   5.005580   0.000000
    10  H    3.394733   4.500199   2.953257   2.496125   0.000000
    11  H    3.396969   4.566298   2.951914   4.959001   4.290594
    12  H    2.157435   2.687506   4.993208   4.289880   4.959136
    13  H    1.924244   0.967656   6.453030   3.504554   5.283104
                   11         12         13
    11  H    0.000000
    12  H    2.478332   0.000000
    13  H    4.568433   2.313981   0.000000
 Stoichiometry    C6H5BrO
 Framework group  C1[X(C6H5BrO)]
 Deg. of freedom    33
 Full point group                 C1      NOp   1
 Largest Abelian subgroup         C1      NOp   1
 Largest concise Abelian subgroup C1      NOp   1
                         Standard orientation:                         
 ---------------------------------------------------------------------
 Center     Atomic      Atomic             Coordinates (Angstroms)
 Number     Number       Type             X           Y           Z
 ---------------------------------------------------------------------
      1          6           0        1.753083    1.219621   -0.000155
      2          6           0        0.364173    1.212507   -0.000528
      3          6           0       -0.323575    0.001266   -0.001006
      4          6           0        0.370157   -1.202352   -0.000547
      5          6           0        1.762927   -1.197336   -0.000161
      6          6           0        2.453786    0.013324    0.000047
      7          8           0        3.814177    0.086030    0.000601
      8         35           0       -2.207232   -0.005264    0.000251
      9          1           0        2.310220    2.150763    0.000185
     10          1           0       -0.185903    2.147862   -0.000291
     11          1           0       -0.171272   -2.142707   -0.000328
     12          1           0        2.307057   -2.139116    0.000158
     13          1           0        4.196302   -0.802979    0.000774
 ---------------------------------------------------------------------
 Rotational constants (GHZ):      5.6565243      0.6380445      0.5733696
 Standard basis: 6-31+G(d) (6D, 7F)
 There are   177 symmetry adapted cartesian basis functions of A   symmetry.
 There are   177 symmetry adapted basis functions of A   symmetry.
   177 basis functions,   331 primitive gaussians,   177 cartesian basis functions
    42 alpha electrons       42 beta electrons
       nuclear repulsion energy       523.4706124033 Hartrees.
 NAtoms=   13 NActive=   13 NUniq=   13 SFac= 1.00D+00 NAtFMM=   60 NAOKFM=F Big=F
 Integral buffers will be    131072 words long.
 Raffenetti 2 integral format.
 Two-electron integral symmetry is turned on.
 One-electron integrals computed using PRISM.
 NBasis=   177 RedAO= T EigKep=  4.31D-06  NBF=   177
 NBsUse=   177 1.00D-06 EigRej= -1.00D+00 NBFU=   177
 Initial guess from the checkpoint file:  "/srv/scratch/z5358697/gauss/Gau-4065255.chk"
 B after Tr=     0.000000    0.000000    0.000000
         Rot=    1.000000    0.000000    0.000000   -0.000005 Ang=   0.00 deg.
 Requested convergence on RMS density matrix=1.00D-08 within 128 cycles.
 Requested convergence on MAX density matrix=1.00D-06.
 Requested convergence on             energy=1.00D-06.
 No special actions if energy rises.
 SCF Done:  E(RM062X) =  -2878.54510392     A.U. after   10 cycles
            NFock= 10  Conv=0.48D-08     -V/T= 2.0071
 Calling FoFJK, ICntrl=      2127 FMM=F ISym2X=0 I1Cent= 0 IOpClX= 0 NMat=1 NMatS=1 NMatT=0.
 ***** Axes restored to original set *****
 -------------------------------------------------------------------
[...]
    D1       -0.00025   0.00001   0.00000   0.00025   0.00025   0.00000
    D2        3.14117   0.00002   0.00000   0.00042   0.00042   3.14159
    D3        3.14155   0.00000   0.00000   0.00005   0.00005  -3.14158
    D4       -0.00021   0.00001   0.00000   0.00021   0.00021   0.00000
    D5        0.00003   0.00000   0.00000  -0.00001  -0.00001   0.00002
    D6       -3.14144  -0.00001   0.00000  -0.00013  -0.00013  -3.14157
    D7        3.14141   0.00001   0.00000   0.00019   0.00019  -3.14158
    D8       -0.00006   0.00000   0.00000   0.00007   0.00007   0.00002
    D9        0.00047  -0.00002   0.00000  -0.00049  -0.00049  -0.00002
   D10        3.14051   0.00005   0.00000   0.00104   0.00104   3.14155
   D11       -3.14095  -0.00003   0.00000  -0.00066  -0.00066   3.14158
   D12       -0.00091   0.00005   0.00000   0.00087   0.00087  -0.00004
   D13       -0.00046   0.00002   0.00000   0.00048   0.00048   0.00002
   D14        3.14096   0.00003   0.00000   0.00065   0.00065  -3.14158
   D15       -3.14050  -0.00005   0.00000  -0.00104  -0.00104  -3.14155
   D16        0.00092  -0.00005   0.00000  -0.00088  -0.00088   0.00004
   D17        0.00024  -0.00001   0.00000  -0.00024  -0.00024   0.00000
   D18       -3.14155   0.00000   0.00000  -0.00005  -0.00005   3.14158
   D19       -3.14119  -0.00002   0.00000  -0.00040  -0.00040  -3.14159
   D20        0.00021  -0.00001   0.00000  -0.00022  -0.00022   0.00000
   D21       -0.00002   0.00000   0.00000   0.00000   0.00000  -0.00002
   D22        3.14144   0.00001   0.00000   0.00013   0.00013   3.14156
   D23       -3.14142  -0.00001   0.00000  -0.00018  -0.00018   3.14158
   D24        0.00004   0.00000   0.00000  -0.00006  -0.00006  -0.00002
   D25        3.14151   0.00000   0.00000   0.00007   0.00007   3.14158
   D26        0.00004   0.00000   0.00000  -0.00005  -0.00005  -0.00001
         Item               Value     Threshold  Converged?
 Maximum Force            0.000072     0.000450     YES
 RMS     Force            0.000025     0.000300     YES
 Maximum Displacement     0.001250     0.001800     YES
 RMS     Displacement     0.000356     0.001200     YES
 Predicted change in Energy=-2.022746D-07
 Optimization completed.
    -- Stationary point found.
                           ----------------------------
                           !   Optimized Parameters   !
                           ! (Angstroms and Degrees)  !
 --------------------------                            --------------------------
 ! Name  Definition              Value          Derivative Info.                !
 --------------------------------------------------------------------------------
 ! R1    R(1,2)                  1.3889         -DE/DX =    0.0                 !
 ! R2    R(1,6)                  1.395          -DE/DX =    0.0                 !
 ! R3    R(1,9)                  1.0851         -DE/DX =    0.0                 !
 ! R4    R(2,3)                  1.3929         -DE/DX =    0.0                 !
 ! R5    R(2,10)                 1.0851         -DE/DX =    0.0                 !
 ! R6    R(3,4)                  1.3892         -DE/DX =   -0.0001              !
 ! R7    R(3,8)                  1.8837         -DE/DX =    0.0                 !
 ! R8    R(4,5)                  1.3928         -DE/DX =    0.0                 !
 ! R9    R(4,11)                 1.0851         -DE/DX =    0.0                 !
 ! R10   R(5,6)                  1.3939         -DE/DX =    0.0                 !
 ! R11   R(5,12)                 1.0877         -DE/DX =    0.0                 !
 ! R12   R(6,7)                  1.3623         -DE/DX =    0.0                 !
 ! R13   R(7,13)                 0.9677         -DE/DX =    0.0                 !
 ! A1    A(2,1,6)              119.8576         -DE/DX =    0.0                 !
 ! A2    A(2,1,9)              121.1871         -DE/DX =    0.0                 !
 ! A3    A(6,1,9)              118.9553         -DE/DX =    0.0                 !
 ! A4    A(1,2,3)              119.8815         -DE/DX =    0.0                 !
 ! A5    A(1,2,10)             120.1661         -DE/DX =    0.0                 !
 ! A6    A(3,2,10)             119.9524         -DE/DX =    0.0                 !
 ! A7    A(2,3,4)              120.454          -DE/DX =    0.0                 !
 ! A8    A(2,3,8)              119.7867         -DE/DX =    0.0                 !
 ! A9    A(4,3,8)              119.7593         -DE/DX =    0.0                 !
 ! A10   A(3,4,5)              119.7516         -DE/DX =    0.0                 !
 ! A11   A(3,4,11)             120.11           -DE/DX =    0.0                 !
 ! A12   A(5,4,11)             120.1384         -DE/DX =    0.0                 !
 ! A13   A(4,5,6)              119.9175         -DE/DX =    0.0                 !
 ! A14   A(4,5,12)             119.8115         -DE/DX =    0.0                 !
 ! A15   A(6,5,12)             120.271          -DE/DX =    0.0                 !
 ! A16   A(1,6,5)              120.1378         -DE/DX =    0.0                 !
 ! A17   A(1,6,7)              117.0918         -DE/DX =    0.0                 !
 ! A18   A(5,6,7)              122.7704         -DE/DX =    0.0                 !
 ! A19   A(6,7,13)             110.2003         -DE/DX =    0.0                 !
 ! D1    D(6,1,2,3)             -0.0146         -DE/DX =    0.0                 !
 ! D2    D(6,1,2,10)           179.9758         -DE/DX =    0.0                 !
 ! D3    D(9,1,2,3)           -180.0022         -DE/DX =    0.0                 !
 ! D4    D(9,1,2,10)            -0.0118         -DE/DX =    0.0                 !
 ! D5    D(2,1,6,5)              0.0017         -DE/DX =    0.0                 !
 ! D6    D(2,1,6,7)           -179.9911         -DE/DX =    0.0                 !
 ! D7    D(9,1,6,5)           -180.0104         -DE/DX =    0.0                 !
 ! D8    D(9,1,6,7)             -0.0032         -DE/DX =    0.0                 !
 ! D9    D(1,2,3,4)              0.0271         -DE/DX =    0.0                 !
 ! D10   D(1,2,3,8)            179.9382         -DE/DX =    0.0001              !
 ! D11   D(10,2,3,4)           180.0367         -DE/DX =    0.0                 !
 ! D12   D(10,2,3,8)            -0.0522         -DE/DX =    0.0                 !
 ! D13   D(2,3,4,5)             -0.0266         -DE/DX =    0.0                 !
 ! D14   D(2,3,4,11)          -180.0363         -DE/DX =    0.0                 !
 ! D15   D(8,3,4,5)           -179.9377         -DE/DX =   -0.0001              !
 ! D16   D(8,3,4,11)             0.0526         -DE/DX =    0.0                 !
 ! D17   D(3,4,5,6)              0.0135         -DE/DX =    0.0                 !
 ! D18   D(3,4,5,12)           180.0025         -DE/DX =    0.0                 !
 ! D19   D(11,4,5,6)          -179.9767         -DE/DX =    0.0                 !
 ! D20   D(11,4,5,12)            0.0123         -DE/DX =    0.0                 !
 ! D21   D(4,5,6,1)             -0.0012         -DE/DX =    0.0                 !
 ! D22   D(4,5,6,7)            179.9912         -DE/DX =    0.0                 !
 ! D23   D(12,5,6,1)           180.0099         -DE/DX =    0.0                 !
 ! D24   D(12,5,6,7)             0.0023         -DE/DX =    0.0                 !
 ! D25   D(1,6,7,13)           179.995          -DE/DX =    0.0                 !
 ! D26   D(5,6,7,13)             0.0024         -DE/DX =    0.0                 !
 --------------------------------------------------------------------------------
 GradGradGradGradGradGradGradGradGradGradGradGradGradGradGradGradGradGrad

 1\1\GINC-KATANA1\Freq\RM062X\6-31+G(d)\C6H5Br1O1\Z5358697\21-Mar-2025\
 0\\#N Geom=AllCheck Guess=TCheck SCRF=Check GenChk RM062X/6-31+G(d) Fr
 eq\\4-bromophenol\\0,1\C,1.877819,-1.0327654983,-0.1027447522\C,2.9123
 963743,-1.6261695593,0.6090440106\C,2.8732318216,-1.648826675,2.001184
 9338\C,1.8050015326,-1.0818734022,2.6848569125\C,0.766576691,-0.486354
 8477,1.9729117507\C,0.8032817297,-0.4619977032,0.5796989945\O,-0.18011
 80471,0.104310216,-0.1740717518\Br,4.2769105182,-2.4558521451,2.963788
 768\H,1.8867002783,-1.0031375189,-1.1873968191\H,3.7504430482,-2.07197
 96529,0.0833026209\H,1.7799077588,-1.1031907391,3.7694441007\H,-0.0702
 301078,-0.0421386452,2.5071900047\H,-0.8717205977,0.467376171,0.397091
 2265\\Version=ES64L-G09RevD.01\State=1-A\HF=-2878.5451039\RMSD=3.411e-
 09\RMSF=4.426e-05\ZeroPoint=0.0962377\Thermal=0.1029135\Dipole=-0.8060
 51,0.440732,0.1112054\DipoleDeriv=-0.2533092,0.0622358,-0.1933616,0.05
 43993,-0.1849631,0.1004664,0.0518047,-0.0346102,0.0404343,-0.0764044,-
 0.0057332,-0.055233,-0.0047298,-0.0884049,0.0253691,-0.0813432,0.03960
 65,0.0794889,0.4701587,-0.3211644,0.4637659,-0.3210921,0.1017907,-0.26
 17145,0.4431631,-0.2498895,0.0729331,-0.0474226,-0.0187588,-0.1301662,
 -0.0206748,-0.0802319,0.0690025,-0.0654193,0.0331166,0.003105,-0.12377
 02,-0.025936,-0.0296006,-0.0172834,-0.163719,0.015699,-0.3012488,0.165
 5393,-0.1547354,0.9844352,-0.5024087,0.6187342,-0.5018077,0.3973067,-0
 .3525427,0.6022307,-0.3435822,0.4676595,-1.1409177,0.4276444,-0.592285
 6,0.4273768,-0.6462223,0.3319503,-0.5874825,0.3294114,-0.5687027,-0.35
 37474,0.1757965,-0.1962304,0.1764009,-0.1478312,0.113685,-0.2004068,0.
 1156699,-0.2026642,0.0844277,0.0379972,-0.0116067,0.0379186,0.131311,0
 .0120811,-0.0114882,0.0120476,-0.0261083,0.0303389,0.0550228,0.0396247
 ,0.0553478,0.102494,-0.0200224,0.0305637,-0.0149715,0.073176,0.0975164
 ,0.0202287,-0.0086515,0.02,0.122365,0.0096479,-0.0022788,0.0060679,-0.
 0160829,-0.0416466,0.1063211,0.0311443,0.1063983,0.0947119,-0.0138659,
 0.0265257,-0.011261,0.0484093,0.3703415,-0.0112453,0.0638666,-0.012253
 7,0.361393,-0.0297557,0.0953799,-0.0471448,0.1830875\Polar=102.1023589
 ,-28.4077792,67.3879886,13.8849165,-9.1286813,97.11111\PG=C01 [X(C6H5B
 r1O1)]\NImag=0\\0.57989527,-0.24531230,0.27178436,0.00989388,-0.025574
 09,0.76443821,-0.25191994,0.10535577,-0.12678465,0.61840115,0.10324518
 ,-0.12746103,0.07400148,-0.25523246,0.29491412,-0.05847339,0.03628321,
 -0.19403499,-0.02922145,-0.00141482,0.70325625,0.03516068,-0.01078275,
 -0.01963408,-0.10622699,0.01283040,-0.01679210,0.47460684,-0.00895233,
 0.01895542,0.01206893,0.01066642,-0.09028705,0.01760807,-0.16432252,0.
 26264112,-0.07806919,0.04436681,-0.02572940,0.05066585,-0.01969757,-0.
 34394319,-0.06736472,0.02250432,0.63025454,-0.06025655,0.03021542,-0.0
 0009169,0.02959526,-0.00997655,0.07493137,-0.24101893,0.08480524,0.063
 61776,0.56775269,0.03008852,-0.02208860,0.00008221,-0.00820031,0.02167
 665,-0.04009868,0.08257106,-0.12806240,-0.03200165,-0.22991201,0.27770
 568,0.00341901,-0.00194672,-0.00507938,0.02113134,-0.01033114,-0.02355
 148,0.13087621,-0.06914497,-0.17995888,-0.00784799,-0.01544083,0.76478
 473,0.02968109,-0.01234260,0.02071825,-0.01653821,0.00650808,-0.027595
 54,-0.04182608,0.03002362,0.02695021,-0.24362937,0.10230362,-0.1245120
 7,0.60548705,-0.01381406,0.01655141,-0.01060957,0.00626121,-0.01040850
 ,0.01700601,0.03200734,-0.00284443,-0.01663930,0.10003659,-0.12298640,
 0.07256778,-0.26238157,0.27355231,0.06780409,-0.03651156,-0.01843488,-
 0.02193113,0.01382656,-0.06127805,-0.03267924,0.01623661,0.07024665,-0
 .05591824,0.03479474,-0.18866741,-0.01945611,-0.00777313,0.70633331,-0
 .22459297,0.08009378,0.12818130,-0.04247399,0.02847386,-0.03437664,-0.
 02536282,0.00424864,0.03799471,0.04005076,-0.01820631,-0.02482435,-0.1
 1880355,0.02887554,-0.01785391,0.59864339,0.08246419,-0.11538733,-0.06
 672733,0.02677752,-0.00802437,0.01656157,0.00418055,-0.01728132,-0.019
 23980,-0.01636784,0.01423654,0.01467899,0.02632597,-0.08269402,0.01847
 568,-0.24136772,0.29327514,0.05250812,-0.02501462,-0.19450529,0.021242
 11,-0.01410898,0.08158426,0.03739168,-0.01884203,-0.06977391,-0.081129
 26,0.04564095,-0.02380468,0.06155890,-0.02525718,-0.33779091,-0.019467
 86,-0.00752915,0.72984790,-0.04426590,0.02898057,-0.02252031,0.0032686
 0,0.00062293,0.00804384,0.00090890,-0.00164925,-0.00478594,-0.00063894
 ,0.00464021,0.00230031,-0.00343670,0.00708422,-0.01043135,-0.20482594,
 0.09373311,-0.11130614,0.51292872,0.02787542,-0.00875875,0.01198828,0.
 00080044,0.00452870,-0.00400322,-0.00166685,-0.00146939,0.00241941,0.0
 0441709,0.00548781,-0.00088857,0.00819032,0.00407433,0.00705625,0.0922
 5312,-0.09426665,0.06579942,-0.26528334,0.17216428,0.01214803,-0.00712
 967,0.02045965,0.00225459,-0.00081219,-0.00859453,-0.00358748,0.001742
 11,0.00459291,0.00921374,-0.00469083,-0.00398104,-0.04495878,0.0260908
 9,-0.03204174,-0.06525239,0.04041444,-0.17984287,-0.08343836,0.0334926
 9,0.41845482,0.00212730,0.00109104,-0.00049013,-0.00852384,0.00859850,
 -0.00668650,-0.10135688,0.03686871,-0.04647172,-0.02422467,0.01779104,
 -0.01911040,0.00071532,0.00174377,0.00383188,0.00125490,0.00032110,0.0
 0011211,-0.00189214,0.00110207,-0.00143783,0.13274740,0.00095940,0.003
 51632,0.00048174,0.00930159,0.00137172,0.00445990,0.03688215,-0.058547
 71,0.02653025,0.01708421,-0.00288698,0.01069455,0.00184838,0.00311830,
 -0.00195083,0.00032835,0.00167494,-0.00006140,0.00110741,-0.00061440,0
 .00082298,-0.06584821,0.05536553,0.00348185,-0.00169919,-0.00256764,-0
 .02851517,0.01651469,-0.01746154,-0.04651234,0.02654556,-0.06376033,0.
 00260462,-0.00129373,0.00262410,0.00026092,0.00001778,-0.00088638,-0.0
 0019030,0.00010911,0.00164666,-0.00139874,0.00079561,-0.00075828,0.071
 12434,-0.04130081,0.08019847,-0.05354965,0.00942276,0.00400748,0.00469
 471,-0.00006973,-0.02408605,-0.00068654,0.00454448,-0.00162502,-0.0013
 1120,0.00038025,-0.00027423,-0.00270552,0.00419554,0.00194492,0.005264
 44,-0.00056615,0.02494668,0.00078866,-0.00228813,-0.00068480,-0.000440
 81,0.00033759,-0.00099223,0.04831503,0.00936835,-0.04163660,0.00775744
 ,-0.00089145,0.00323983,0.01369555,0.00455228,0.00491124,0.00109969,0.
 00036430,-0.00084231,0.00010609,0.00417835,0.00274216,-0.00091421,0.00
 031143,0.00592578,-0.01318896,-0.00228772,-0.00214712,0.00024169,0.000
 30964,-0.00007707,0.00056457,-0.01275656,0.03220375,0.00583395,0.00675
 387,-0.34926273,0.00167921,-0.00051176,-0.00984412,-0.00193685,0.00126
 503,0.00130771,0.00035599,-0.00024130,0.00076944,0.00251020,-0.0012237
 1,-0.00002919,-0.00270055,0.00205469,-0.01208832,-0.00070618,0.0002542
 1,0.00084875,-0.00014998,0.00010097,-0.00045875,-0.00466287,-0.0083749
 2,0.36855535,-0.01218673,0.00923166,0.01198913,-0.22760162,0.09988896,
 0.11080341,0.00230099,0.00060607,-0.00238366,0.00241426,0.00165968,-0.
 00033888,0.00002732,-0.00028137,-0.00066191,0.00065937,0.00405863,-0.0
 0297809,-0.00099737,0.00055134,0.00071277,0.00022167,-0.00120642,-0.00
 069989,-0.00036061,-0.00237409,-0.00010245,0.23572893,0.01004169,-0.00
 008684,-0.00683862,0.09998698,-0.09354598,-0.05838957,-0.00025420,0.00
 334883,0.00176168,0.00166314,0.00446394,0.00055426,-0.00027032,-0.0003
 8305,0.00036953,0.00404644,0.00554304,0.00192887,0.00059574,-0.0002707
 5,-0.00041349,-0.00124944,-0.00132368,0.00030185,-0.00238666,-0.003346
 70,-0.00011345,-0.11181660,0.08619832,-0.01372016,0.00734946,0.0122186
 9,0.10794978,-0.05682668,-0.12669520,0.02492080,-0.01329146,-0.0110934
 7,-0.00072045,0.00075885,-0.00599794,-0.00091946,0.00050835,-0.0005453
 8,-0.00268256,0.00177007,-0.00130255,-0.00065961,0.00034251,0.00069321
 ,0.00056618,-0.00039639,0.00060155,0.00033964,-0.00035629,0.00066159,-
 0.11618131,0.06075890,0.13200736,-0.00100978,0.00019262,-0.00026295,-0
 .00258929,0.00445671,0.00218877,0.00260975,-0.00040607,0.02485657,-0.0
 5366341,0.00783236,0.00561179,0.00488073,0.00074651,-0.02381343,-0.001
 61764,0.00493841,-0.00151086,-0.00012386,0.00011032,-0.00147262,-0.000
 01786,-0.00119221,0.00068815,-0.00006125,-0.00031686,-0.00001010,0.000
 23681,-0.00011564,0.00131724,0.05145877,0.00018750,-0.00078305,0.00009
 991,0.00444239,0.00320613,-0.00104822,0.00047038,0.00349388,-0.0132235
 8,0.00775021,-0.04362651,0.00693917,-0.00008741,0.00444630,0.01360223,
 0.00494873,0.00448619,0.00102567,0.00006972,-0.00007199,0.00083979,-0.
 00115175,-0.00148628,-0.00048008,-0.00031631,-0.00046160,-0.00001250,-
 0.00007293,0.00016402,-0.00070641,-0.01388263,0.03369938,0.00001496,-0
 .00005459,0.00075096,0.00265531,-0.00129388,0.00040792,-0.00247202,0.0
 0183170,-0.01124683,0.00855058,0.00531697,-0.34878207,0.00183328,-0.00
 053338,-0.00997252,-0.00197928,0.00128458,0.00135524,-0.00014857,0.000
 10927,-0.00086740,-0.00061924,0.00024353,0.00088830,-0.00001651,-0.000
 00950,-0.00006524,-0.00003899,0.00004024,-0.00048966,-0.00782495,-0.00
 674545,0.36733948,0.00240070,0.00150220,-0.00004184,0.00002346,-0.0002
 7951,-0.00053076,0.00050201,0.00368250,-0.00285182,-0.01400007,0.00896
 697,0.01311587,-0.21788169,0.09810867,0.10719505,0.00045049,0.00236046
 ,-0.00248169,0.00155693,-0.00306925,-0.00013559,-0.00089934,0.00057469
 ,0.00002440,0.00002484,-0.00008284,-0.00004358,-0.00019192,-0.00027028
 ,0.00005430,-0.00028704,-0.00224612,-0.00010259,0.22821227,0.00152355,
 0.00427237,0.00038264,-0.00025734,-0.00038242,0.00031561,0.00367349,0.
 00492821,0.00179940,0.00981931,-0.00214087,-0.00752345,0.09810571,-0.0
 8599080,-0.05604640,0.00146292,0.00372449,0.00179922,-0.00309475,-0.00
 230814,-0.00014095,0.00059783,-0.00018640,-0.00000750,-0.00012868,-0.0
 0005827,0.00003674,-0.00027085,-0.00052871,-0.00005382,-0.00225739,-0.
 00311768,-0.00010779,-0.10950059,0.08134301,-0.00074305,0.00076740,-0.
 00605845,-0.00116745,0.00066251,-0.00109869,-0.00245792,0.00158755,-0.
 00020320,-0.01351069,0.00715698,0.01204980,0.10724502,-0.05607883,-0.1
 2887041,0.02555995,-0.01365776,-0.00896175,0.00063315,-0.00056455,0.00
 271619,-0.00073470,0.00041159,-0.00003210,0.00137257,-0.00074510,-0.00
 051594,0.00005225,-0.00005261,0.00007277,0.00025418,-0.00030260,0.0006
 8839,-0.11525154,0.06006397,0.13151279,-0.00148353,0.00235182,-0.00496
 440,-0.00010929,0.00093362,0.00179505,0.00038907,-0.00011553,-0.000533
 04,-0.00106984,0.00008491,0.00045339,0.00402961,-0.00258237,0.00196937
 ,-0.02864644,0.01314178,0.02111429,-0.26327097,0.13700746,0.17663871,0
 .00028896,-0.00017693,0.00012440,0.00002789,-0.00037481,-0.00006680,-0
 .00025109,0.00002914,-0.00026440,0.00018406,-0.00011176,0.00014801,0.0
 0008936,0.00032680,-0.00125178,0.28982222,0.00232489,0.00112230,0.0028
 8699,0.00098925,0.00117220,-0.00097541,-0.00014133,0.00021359,0.000320
 33,0.00010089,-0.00093654,-0.00026517,-0.00240215,0.00082240,-0.001165
 48,0.01453124,-0.01121244,-0.01219179,0.13548114,-0.07634794,-0.090457
 46,-0.00017430,0.00007569,-0.00006786,-0.00036840,-0.00045309,0.000012
 14,0.00002592,-0.00023244,0.00014291,-0.00010613,0.00005121,-0.0000817
 2,0.00025310,0.00044522,0.00075143,-0.15051412,0.08527983,-0.00409811,
 0.00240969,-0.00219474,0.00004165,-0.00000823,0.00125336,0.00024807,-0
 .00011143,-0.00069257,-0.00005575,0.00001633,-0.00040519,-0.00363481,0
 .00192429,0.00193691,-0.02240812,0.01180491,0.01363623,0.22441789,-0.1
 1680132,-0.22167966,0.00006597,-0.00003606,-0.00003406,-0.00026958,0.0
 0012396,0.00012145,-0.00017239,0.00009241,-0.00013096,-0.00002178,0.00
 001206,-0.00000655,0.00104979,-0.00051767,-0.00129941,-0.19516282,0.10
 109108,0.20949518\\0.00001457,-0.00000425,-0.00001908,-0.00000770,-0.0
 0004447,0.00000551,0.00014851,0.00013258,-0.00006477,-0.00012768,0.000
 02187,-0.00000063,0.00002565,-0.00001458,0.00004586,-0.00002173,-0.000
 00677,0.00001180,0.00002516,-0.00001960,0.00001685,-0.00003068,-0.0000
 5689,0.00001696,-0.00002679,0.00001493,-0.00000079,0.00000178,-0.00001
 264,0.00000152,0.00002925,-0.00002691,0.00000324,-0.00000906,0.0000060
 8,-0.00001834,-0.00002127,0.00001065,0.00000187\\\@


 TO DETECT ERRORS, THE PROGRAMMER MUST HAVE A CONNIVING MIND,
 ONE THAT DELIGHTS IN UNCOVERING FLAWS WHERE BEAUTY AND
 PERFECTION WERE ONCE THOUGHT TO LIE.

             -- THE PSYCHOLOGY OF COMPUTER PROGRAMMING
                GERALD M. WEINBERG
 Job cpu time:       0 days  0 hours  5 minutes 21.8 seconds.
 File lengths (MBytes):  RWF=    134 Int=      0 D2E=      0 Chk=      4 Scr=      2
 Normal termination of Gaussian 09 at Fri Mar 21 00:38:58 2025.
