 Entering Gaussian System, Link 0=g09
 Initial command:
 /apps/z_install_tree/linux-rocky8-ivybridge/gcc-12.2.0/gaussian-09-D.01-wczn3gur5lpur3omlkzwa2l5ecyxp5ef/g09/l1.exe "/srv/scratch/z5358697/gauss/Gau-2175774.inp" -scrdir="/srv/scratch/z5358697/gauss/"
 Entering Link 1 = /apps/z_install_tree/linux-rocky8-ivybridge/gcc-12.2.0/gaussian-09-D.01-wczn3gur5lpur3omlkzwa2l5ecyxp5ef/g09/l1.exe PID=   2175775.
  
 Copyright (c) 1988,1990,1992,1993,1995,1998,2003,2009,2013,
            Gaussian, Inc.  All Rights Reserved.
  
 This is part of the Gaussian(R) 09 program.  It is based on
 the Gaussian(R) 03 system (copyright 2003, Gaussian, Inc.),
 the Gaussian(R) 98 system (copyright 1998, Gaussian, Inc.),
 the Gaussian(R) 94 system (copyright 1995, Gaussian, Inc.),
 the Gaussian 92(TM) system (copyright 1992, Gaussian, Inc.),
 the Gaussian 90(TM) system (copyright 1990, Gaussian, Inc.),
 the Gaussian 88(TM) system (copyright 1988, Gaussian, Inc.),
 the Gaussian 86(TM) system (copyright 1986, Carnegie Mellon
 University), and the Gaussian 82(TM) system (copyright 1983,
 Carnegie Mellon University). Gaussian is a federally registered
 trademark of Gaussian, Inc.
  
 This software contains proprietary and confidential information,
 including trade secrets, belonging to Gaussian, Inc.
  
 This software is provided under written license and may be
 used, copied, transmitted, or stored only in accord with that
 written license.
  
 The following legend is applicable only to US Government
 contracts under FAR:
  
                    RESTRICTED RIGHTS LEGEND
  
 Use, reproduction and disclosure by the US Government is
 subject to restrictions as set forth in subparagraphs (a)
 and (c) of the Commercial Computer Software - Restricted
 Rights clause in FAR 52.227-19.
  
 Gaussian, Inc.
 340 Quinnipiac St., Bldg. 40, Wallingford CT 06492
  
  
 ---------------------------------------------------------------
 Warning -- This program may not be used in any manner that
 competes with the business of Gaussian, Inc. or will provide
 assistance to any competitor of Gaussian, Inc.  The licensee
 of this program is prohibited from giving any competitor of
 Gaussian, Inc. access to this program.  By using this program,
 the user acknowledges that Gaussian, Inc. is engaged in the
 business of creating and licensing software in the field of
 computational chemistry and represents and warrants to the
 licensee that it is not a competitor of Gaussian, Inc. and that
 it will not use this program in any manner prohibited above.
 ---------------------------------------------------------------
  

 Cite this work as:
 Gaussian 09, Revision D.01,
 M. J. Frisch, G. W. Trucks, H. B. Schlegel, G. E. Scuseria, 
 M. A. Robb, J. R. Cheeseman, G. Scalmani, V. Barone, B. Mennucci, 
 G. A. Petersson, H. Nakatsuji, M. Caricato, X. Li, H. P. Hratchian, 
 A. F. Izmaylov, J. Bloino, G. Zheng, J. L. Sonnenberg, M. Hada, 
 M. Ehara, K. Toyota, R. Fukuda, J. Hasegawa, M. Ishida, T. Nakajima, 
 Y. Honda, O. Kitao, H. Nakai, T. Vreven, J. A. Montgomery, Jr., 
 J. E. Peralta, F. Ogliaro, M. Bearpark, J. J. Heyd, E. Brothers, 
 K. N. Kudin, V. N. Staroverov, T. Keith, R. Kobayashi, J. Normand, 
 K. Raghavachari, A. Rendell, J. C. Burant, S. S. Iyengar, J. Tomasi, 
 M. Cossi, N. Rega, J. M. Millam, M. Klene, J. E. Knox, J. B. Cross, 
 V. Bakken, C. Adamo, J. Jaramillo, R. Gomperts, R. E. Stratmann, 
 O. Yazyev, A. J. Austin, R. Cammi, C. Pomelli, J. W. Ochterski, 
 R. L. Martin, K. Morokuma, V. G. Zakrzewski, G. A. Voth, 
 P. Salvador, J. J. Dannenberg, S. Dapprich, A. D. Daniels, 
 O. Farkas, J. B. Foresman, J. V. Ortiz, J. Cioslowski, 
 and D. J. Fox, Gaussian, Inc., Wallingford CT, 2013.
 
 ******************************************
 Gaussian 09:  ES64L-G09RevD.01 24-Apr-2013
                14-Mar-2025 
 ******************************************
 ---------------------------------
 #m062X/6-31+G(d) OPT Freq=noraman
 ---------------------------------
 1/14=-1,18=20,19=15,26=3,38=1/1,3;
 2/9=110,12=2,17=6,18=5,40=1/2;
 3/5=1,6=6,7=11,11=2,16=1,25=1,30=1,71=1,74=-55/1,2,3;
 4//1;
 5/5=2,38=5/2;
 6/7=2,8=2,9=2,10=2,28=1/1;
 7//1,2,3,16;
 1/14=-1,18=20,19=15,26=3/3(2);
 2/9=110/2;
 99//99;
 2/9=110/2;
 3/5=1,6=6,7=11,11=2,16=1,25=1,30=1,71=1,74=-55/1,2,3;
 4/5=5,16=3,69=1/1;
 5/5=2,38=5/2;
 7//1,2,3,16;
 1/14=-1,18=20,19=15,26=3/3(-5);
 2/9=110/2;
 6/7=2,8=2,9=2,10=2,19=2,28=1/1;
 99/9=1/99;
 -------------------------
 1,1,1,2-tetrachloroethane
 -------------------------
 Symbolic Z-matrix:
 Charge =  0 Multiplicity = 1
 C                    -0.2264   -0.3196    0.7145 
 C                     0.1493    0.1837   -0.6821 
 Cl                    1.9206    0.3779   -0.8496 
 Cl                   -0.3946   -1.0246   -1.8938 
 Cl                   -0.6548    1.7393   -1.0509 
 Cl                    0.286     0.775     2.0295 
 H                     0.2327   -1.2929    0.9204 
 H                    -1.3112   -0.4397    0.8121 
 

 GradGradGradGradGradGradGradGradGradGradGradGradGradGradGradGradGradGrad
 Berny optimization.
 Initialization pass.
                           ----------------------------
                           !    Initial Parameters    !
                           ! (Angstroms and Degrees)  !
 --------------------------                            --------------------------
 ! Name  Definition              Value          Derivative Info.                !
 --------------------------------------------------------------------------------
 ! R1    R(1,2)                  1.5313         estimate D2E/DX2                !
 ! R2    R(1,6)                  1.786          estimate D2E/DX2                !
 ! R3    R(1,7)                  1.0957         estimate D2E/DX2                !
 ! R4    R(1,8)                  1.0958         estimate D2E/DX2                !
 ! R5    R(2,3)                  1.7898         estimate D2E/DX2                !
 ! R6    R(2,4)                  1.7956         estimate D2E/DX2                !
 ! R7    R(2,5)                  1.7895         estimate D2E/DX2                !
 ! A1    A(2,1,6)              113.5578         estimate D2E/DX2                !
 ! A2    A(2,1,7)              111.134          estimate D2E/DX2                !
 ! A3    A(2,1,8)              111.1088         estimate D2E/DX2                !
 ! A4    A(6,1,7)              106.6095         estimate D2E/DX2                !
 ! A5    A(6,1,8)              106.5953         estimate D2E/DX2                !
 ! A6    A(7,1,8)              107.5006         estimate D2E/DX2                !
 ! A7    A(1,2,3)              111.3355         estimate D2E/DX2                !
 ! A8    A(1,2,4)              108.661          estimate D2E/DX2                !
 ! A9    A(1,2,5)              111.3102         estimate D2E/DX2                !
 ! A10   A(3,2,4)              108.0381         estimate D2E/DX2                !
 ! A11   A(3,2,5)              109.3348         estimate D2E/DX2                !
 ! A12   A(4,2,5)              108.0461         estimate D2E/DX2                !
 ! D1    D(6,1,2,3)             59.9984         estimate D2E/DX2                !
 ! D2    D(6,1,2,4)            178.8664         estimate D2E/DX2                !
 ! D3    D(6,1,2,5)            -62.271          estimate D2E/DX2                !
 ! D4    D(7,1,2,3)            -60.1912         estimate D2E/DX2                !
 ! D5    D(7,1,2,4)             58.6768         estimate D2E/DX2                !
 ! D6    D(7,1,2,5)            177.5394         estimate D2E/DX2                !
 ! D7    D(8,1,2,3)           -179.8488         estimate D2E/DX2                !
 ! D8    D(8,1,2,4)            -60.9808         estimate D2E/DX2                !
 ! D9    D(8,1,2,5)             57.8818         estimate D2E/DX2                !
 --------------------------------------------------------------------------------
 Trust Radius=3.00D-01 FncErr=1.00D-07 GrdErr=1.00D-06
 Number of steps in this run=     38 maximum allowed number of steps=    100.
 GradGradGradGradGradGradGradGradGradGradGradGradGradGradGradGradGradGrad

                          Input orientation:                          
 ---------------------------------------------------------------------
 Center     Atomic      Atomic             Coordinates (Angstroms)
 Number     Number       Type             X           Y           Z
 ---------------------------------------------------------------------
      1          6           0       -0.226400   -0.319600    0.714500
      2          6           0        0.149300    0.183700   -0.682100
      3         17           0        1.920600    0.377900   -0.849600
      4         17           0       -0.394600   -1.024600   -1.893800
      5         17           0       -0.654800    1.739300   -1.050900
      6         17           0        0.286000    0.775000    2.029500
      7          1           0        0.232700   -1.292900    0.920400
      8          1           0       -1.311200   -0.439700    0.812100
 ---------------------------------------------------------------------
                    Distance matrix (angstroms):
                    1          2          3          4          5
     1  C    0.000000
     2  C    1.531324   0.000000
     3  Cl   2.746366   1.789769   0.000000
     4  Cl   2.707129   1.795559   2.901295   0.000000
     5  Cl   2.745766   1.789548   2.920037   2.901263   0.000000
     6  Cl   1.786037   2.778686   3.334490   4.369675   3.362119
     7  H    1.095664   2.180667   2.962006   2.895723   3.723965
     8  H    1.095783   2.180441   3.724815   2.916189   2.941032
                    6          7          8
     6  Cl   0.000000
     7  H    2.347159   0.000000
     8  H    2.347042   1.767288   0.000000
 Stoichiometry    C2H2Cl4
 Framework group  C1[X(C2H2Cl4)]
 Deg. of freedom    18
 Full point group                 C1      NOp   1
 Largest Abelian subgroup         C1      NOp   1
 Largest concise Abelian subgroup C1      NOp   1
                         Standard orientation:                         
 ---------------------------------------------------------------------
 Center     Atomic      Atomic             Coordinates (Angstroms)
 Number     Number       Type             X           Y           Z
 ---------------------------------------------------------------------
      1          6           0        0.766427    0.001714    1.089231
      2          6           0       -0.380450    0.000390    0.074527
      3         17           0       -0.315632   -1.444600   -0.979547
      4         17           0       -1.937757   -0.032349    0.967699
      5         17           0       -0.353648    1.474910   -0.939157
      6         17           0        2.385899    0.000971    0.336079
      7          1           0        0.721844   -0.880873    1.736945
      8          1           0        0.721649    0.886413    1.734246
 ---------------------------------------------------------------------
 Rotational constants (GHZ):      1.8581014      1.0766231      1.0133194
 Standard basis: 6-31+G(d) (6D, 7F)
 There are   134 symmetry adapted cartesian basis functions of A   symmetry.
 There are   134 symmetry adapted basis functions of A   symmetry.
   134 basis functions,   296 primitive gaussians,   134 cartesian basis functions
    41 alpha electrons       41 beta electrons
       nuclear repulsion energy       529.6549675113 Hartrees.
 NAtoms=    8 NActive=    8 NUniq=    8 SFac= 1.00D+00 NAtFMM=   60 NAOKFM=F Big=F
 Integral buffers will be    131072 words long.
 Raffenetti 2 integral format.
 Two-electron integral symmetry is turned on.
 One-electron integrals computed using PRISM.
 NBasis=   134 RedAO= T EigKep=  4.05D-05  NBF=   134
 NBsUse=   134 1.00D-06 EigRej= -1.00D+00 NBFU=   134
 ExpMin= 4.38D-02 ExpMax= 2.52D+04 ExpMxC= 3.78D+03 IAcc=2 IRadAn=         4 AccDes= 0.00D+00
 Harris functional with IExCor= 1009 and IRadAn=       4 diagonalized for initial guess.
 HarFok:  IExCor= 1009 AccDes= 0.00D+00 IRadAn=         4 IDoV= 1 UseB2=F ITyADJ=14
 ICtDFT=  3500011 ScaDFX=  1.000000  1.000000  1.000000  1.000000
 FoFCou: FMM=F IPFlag=           0 FMFlag=      100000 FMFlg1=           0
         NFxFlg=           0 DoJE=T BraDBF=F KetDBF=T FulRan=T
         wScrn=  0.000000 ICntrl=     500 IOpCl=  0 I1Cent=   200000004 NGrid=           0
         NMat0=    1 NMatS0=      1 NMatT0=    0 NMatD0=    1 NMtDS0=    0 NMtDT0=    0
 Petite list used in FoFCou.
 Requested convergence on RMS density matrix=1.00D-08 within 128 cycles.
 Requested convergence on MAX density matrix=1.00D-06.
 Requested convergence on             energy=1.00D-06.
 No special actions if energy rises.
 SCF Done:  E(RM062X) =  -1918.02817124     A.U. after   12 cycles
            NFock= 12  Conv=0.89D-08     -V/T= 2.0029

 **********************************************************************

            Population analysis using the SCF density.

 **********************************************************************

 Orbital symmetries:
       Occupied  (A) (A) (A) (A) (A) (A) (A) (A) (A) (A) (A) (A)
                 (A) (A) (A) (A) (A) (A) (A) (A) (A) (A) (A) (A)
                 (A) (A) (A) (A) (A) (A) (A) (A) (A) (A) (A) (A)
                 (A) (A) (A) (A) (A)
       Virtual   (A) (A) (A) (A) (A) (A) (A) (A) (A) (A) (A) (A)
                 (A) (A) (A) (A) (A) (A) (A) (A) (A) (A) (A) (A)
                 (A) (A) (A) (A) (A) (A) (A) (A) (A) (A) (A) (A)
                 (A) (A) (A) (A) (A) (A) (A) (A) (A) (A) (A) (A)
                 (A) (A) (A) (A) (A) (A) (A) (A) (A) (A) (A) (A)
                 (A) (A) (A) (A) (A) (A) (A) (A) (A) (A) (A) (A)
                 (A) (A) (A) (A) (A) (A) (A) (A) (A) (A) (A) (A)
                 (A) (A) (A) (A) (A) (A) (A) (A) (A)
 The electronic state is 1-A.
 Alpha  occ. eigenvalues -- -102.70419-102.69983-102.69963-102.68413 -10.76137
 Alpha  occ. eigenvalues --  -10.65652  -9.85122  -9.84677  -9.84657  -9.83086
 Alpha  occ. eigenvalues --   -7.57561  -7.57124  -7.57104  -7.56808  -7.56799
 Alpha  occ. eigenvalues --   -7.56361  -7.56352  -7.56341  -7.56331  -7.55521
 Alpha  occ. eigenvalues --   -7.54804  -7.54776  -1.07375  -0.97850  -0.94864
 Alpha  occ. eigenvalues --   -0.94788  -0.83048  -0.69800  -0.59284  -0.58155
 Alpha  occ. eigenvalues --   -0.56197  -0.51683  -0.49460  -0.43160  -0.42933
 Alpha  occ. eigenvalues --   -0.41502  -0.39940  -0.39520  -0.38602  -0.38462
 Alpha  occ. eigenvalues --   -0.37869
 Alpha virt. eigenvalues --   -0.01277   0.00059   0.01573   0.02082   0.03851
 Alpha virt. eigenvalues --    0.04357   0.04395   0.05739   0.07759   0.08780
 Alpha virt. eigenvalues --    0.08972   0.09966   0.10664   0.11173   0.11984
 Alpha virt. eigenvalues --    0.12611   0.12669   0.12909   0.13402   0.13417
 Alpha virt. eigenvalues --    0.15223   0.15484   0.16473   0.18696   0.19236
 Alpha virt. eigenvalues --    0.19907   0.21604   0.24249   0.25002   0.26943
 Alpha virt. eigenvalues --    0.36540   0.55521   0.55862   0.56404   0.57978
 Alpha virt. eigenvalues --    0.58440   0.59223   0.59615   0.61522   0.61859
 Alpha virt. eigenvalues --    0.62555   0.65701   0.65811   0.66319   0.66853
 Alpha virt. eigenvalues --    0.67771   0.69791   0.70747   0.70934   0.72952
 Alpha virt. eigenvalues --    0.77633   0.78578   0.83900   0.84289   0.89844
 Alpha virt. eigenvalues --    0.90467   0.90793   0.92138   0.92678   0.93033
 Alpha virt. eigenvalues --    0.93494   0.93753   0.96211   0.96942   0.98466
 Alpha virt. eigenvalues --    1.00236   1.04265   1.07642   1.09589   1.14159
 Alpha virt. eigenvalues --    1.14570   1.18147   1.23865   1.28621   1.29793
 Alpha virt. eigenvalues --    1.39505   1.61838   1.64285   1.64419   1.87217
 Alpha virt. eigenvalues --    1.96517   1.96773   2.14507   2.16599   2.25885
 Alpha virt. eigenvalues --    2.30743   2.56001   4.02929   4.28143   4.40635
 Alpha virt. eigenvalues --    4.40760   4.43992   4.45918
          Condensed to atoms (all electrons):
               1          2          3          4          5          6
     1  C    5.942440   0.009313  -0.140600   0.041919  -0.143608   0.178541
     2  C    0.009313   6.040662   0.293857   0.039921   0.302217  -0.103002
     3  Cl  -0.140600   0.293857  17.028512  -0.147064  -0.179452   0.005845
     4  Cl   0.041919   0.039921  -0.147064  17.065812  -0.140989   0.016910
     5  Cl  -0.143608   0.302217  -0.179452  -0.140989  17.017042   0.002669
     6  Cl   0.178541  -0.103002   0.005845   0.016910   0.002669  16.880681
     7  H    0.348773  -0.000987  -0.030230  -0.003689   0.013461  -0.047160
     8  H    0.347095   0.001754   0.014153  -0.006773  -0.029481  -0.046653
               7          8
     1  C    0.348773   0.347095
     2  C   -0.000987   0.001754
     3  Cl  -0.030230   0.014153
     4  Cl  -0.003689  -0.006773
     5  Cl   0.013461  -0.029481
     6  Cl  -0.047160  -0.046653
     7  H    0.444543  -0.028574
     8  H   -0.028574   0.443977
 Mulliken charges:
               1
     1  C   -0.583872
     2  C   -0.583734
     3  Cl   0.154980
     4  Cl   0.133954
     5  Cl   0.158140
     6  Cl   0.112169
     7  H    0.303863
     8  H    0.304501
 Sum of Mulliken charges =   0.00000
 Mulliken charges with hydrogens summed into heavy atoms:
               1
     1  C    0.024492
     2  C   -0.583734
     3  Cl   0.154980
     4  Cl   0.133954
     5  Cl   0.158140
     6  Cl   0.112169
 Electronic spatial extent (au):  <R**2>=           1234.1918
 Charge=              0.0000 electrons
 Dipole moment (field-independent basis, Debye):
    X=             -0.1561    Y=              0.0004    Z=              1.6800  Tot=              1.6872
 Quadrupole moment (field-independent basis, Debye-Ang):
   XX=            -66.3236   YY=            -62.6196   ZZ=            -60.2494
   XY=             -0.0105   XZ=              0.4565   YZ=              0.0065
 Traceless Quadrupole moment (field-independent basis, Debye-Ang):
   XX=             -3.2594   YY=              0.4446   ZZ=              2.8148
   XY=             -0.0105   XZ=              0.4565   YZ=              0.0065
 Octapole moment (field-independent basis, Debye-Ang**2):
  XXX=             -7.0571  YYY=              0.2109  ZZZ=              1.5778  XYY=              0.1182
  XXY=             -0.1160  XXZ=             -1.3146  XZZ=              1.1277  YZZ=             -0.1250
  YYZ=             -3.5645  XYZ=              0.1216
 Hexadecapole moment (field-independent basis, Debye-Ang**3):
 XXXX=           -811.4245 YYYY=           -382.6150 ZZZZ=           -340.9811 XXXY=              0.3959
 XXXZ=            -25.2027 YYYX=             -0.4214 YYYZ=             -0.1793 ZZZX=              1.1084
 ZZZY=              0.3635 XXYY=           -211.1560 XXZZ=           -195.0059 YYZZ=           -111.3204
 XXYZ=             -0.2802 YYXZ=              2.6350 ZZXY=             -0.0226
 N-N= 5.296549675113D+02 E-N=-5.612489852896D+03  KE= 1.912440326987D+03
 Calling FoFJK, ICntrl=      2127 FMM=F ISym2X=0 I1Cent= 0 IOpClX= 0 NMat=1 NMatS=1 NMatT=0.
 ***** Axes restored to original set *****
 -------------------------------------------------------------------
 Center     Atomic                   Forces (Hartrees/Bohr)
 Number     Number              X              Y              Z
 -------------------------------------------------------------------
      1        6          -0.003047560   -0.004432892    0.008505752
      2        6           0.002344958    0.002774090   -0.006667483
      3       17          -0.005044259   -0.000625555    0.003256161
      4       17          -0.000483366    0.000383563    0.006852085
      5       17           0.001847422   -0.004146554    0.003958324
      6       17          -0.000072590   -0.000147235   -0.003946448
      7        1           0.002087924    0.003265726   -0.005949330
      8        1           0.002367471    0.002928858   -0.006009063
 -------------------------------------------------------------------
 Cartesian Forces:  Max     0.008505752 RMS     0.004058394

 GradGradGradGradGradGradGradGradGradGradGradGradGradGradGradGradGradGrad
 Berny optimization.
 FormGI is forming the generalized inverse of G from B-inverse, IUseBI=4.
 Internal  Forces:  Max     0.009950846 RMS     0.004616742
 Search for a local minimum.
 Step number   1 out of a maximum of   38
 All quantities printed in internal units (Hartrees-Bohrs-Radians)
 Mixed Optimization -- RFO/linear search
 Second derivative matrix not updated -- first step.
 ITU=  0
     Eigenvalues ---    0.00352   0.05224   0.05726   0.08346   0.08927
     Eigenvalues ---    0.16000   0.16000   0.22218   0.25000   0.25000
     Eigenvalues ---    0.25000   0.26470   0.26939   0.26958   0.27248
     Eigenvalues ---    0.29301   0.34153   0.34166
 RFO step:  Lambda=-2.70592301D-03 EMin= 3.51592061D-03
 Linear search not attempted -- first point.
 Iteration  1 RMS(Cart)=  0.04436573 RMS(Int)=  0.00080384
 Iteration  2 RMS(Cart)=  0.00071828 RMS(Int)=  0.00028955
 Iteration  3 RMS(Cart)=  0.00000033 RMS(Int)=  0.00028955
 Variable       Old X    -DE/DX   Delta X   Delta X   Delta X     New X
                                 (Linear)    (Quad)   (Total)
    R1        2.89378  -0.00761   0.00000  -0.02574  -0.02574   2.86804
    R2        3.37512  -0.00300   0.00000  -0.01091  -0.01091   3.36421
    R3        2.07051  -0.00315   0.00000  -0.00916  -0.00916   2.06135
    R4        2.07073  -0.00320   0.00000  -0.00931  -0.00931   2.06142
    R5        3.38217  -0.00537   0.00000  -0.01974  -0.01974   3.36244
    R6        3.39312  -0.00472   0.00000  -0.01767  -0.01767   3.37545
    R7        3.38176  -0.00526   0.00000  -0.01931  -0.01931   3.36245
    A1        1.98196  -0.00304   0.00000  -0.01313  -0.01340   1.96856
    A2        1.93965  -0.00642   0.00000  -0.04014  -0.04070   1.89896
    A3        1.93921  -0.00649   0.00000  -0.04138  -0.04197   1.89724
    A4        1.86069   0.00529   0.00000   0.03166   0.03142   1.89211
    A5        1.86044   0.00517   0.00000   0.02943   0.02914   1.88958
    A6        1.87624   0.00687   0.00000   0.04184   0.04095   1.91719
    A7        1.94317  -0.00337   0.00000  -0.01320  -0.01339   1.92978
    A8        1.89649  -0.00995   0.00000  -0.03918  -0.03952   1.85698
    A9        1.94273  -0.00387   0.00000  -0.01564  -0.01587   1.92686
   A10        1.88562   0.00688   0.00000   0.02793   0.02762   1.91324
   A11        1.90825   0.00392   0.00000   0.01517   0.01507   1.92332
   A12        1.88576   0.00694   0.00000   0.02715   0.02677   1.91253
    D1        1.04717   0.00011   0.00000   0.01881   0.01874   1.06591
    D2        3.12181   0.00026   0.00000   0.02047   0.02044  -3.14094
    D3       -1.08683   0.00019   0.00000   0.01972   0.01979  -1.06705
    D4       -1.05053   0.00005   0.00000   0.01624   0.01636  -1.03417
    D5        1.02410   0.00020   0.00000   0.01790   0.01806   1.04216
    D6        3.09865   0.00013   0.00000   0.01715   0.01741   3.11606
    D7       -3.13895  -0.00004   0.00000   0.01763   0.01740  -3.12155
    D8       -1.06432   0.00011   0.00000   0.01929   0.01910  -1.04522
    D9        1.01023   0.00004   0.00000   0.01854   0.01845   1.02868
         Item               Value     Threshold  Converged?
 Maximum Force            0.009951     0.000450     NO 
 RMS     Force            0.004617     0.000300     NO 
 Maximum Displacement     0.111618     0.001800     NO 
 RMS     Displacement     0.044740     0.001200     NO 
 Predicted change in Energy=-1.373867D-03
 GradGradGradGradGradGradGradGradGradGradGradGradGradGradGradGradGradGrad

                          Input orientation:                          
 ---------------------------------------------------------------------
 Center     Atomic      Atomic             Coordinates (Angstroms)
 Number     Number       Type             X           Y           Z
 ---------------------------------------------------------------------
      1          6           0       -0.222696   -0.318657    0.706159
      2          6           0        0.151531    0.185912   -0.675428
      3         17           0        1.916079    0.364005   -0.819136
      4         17           0       -0.423436   -1.045335   -1.834734
      5         17           0       -0.651698    1.738553   -1.007318
      6         17           0        0.276125    0.792460    2.004593
      7          1           0        0.261855   -1.281796    0.871872
      8          1           0       -1.306160   -0.436042    0.754092
 ---------------------------------------------------------------------
                    Distance matrix (angstroms):
                    1          2          3          4          5
     1  C    0.000000
     2  C    1.517702   0.000000
     3  Cl   2.714205   1.779325   0.000000
     4  Cl   2.650377   1.786210   2.913933   0.000000
     5  Cl   2.711486   1.779332   2.918608   2.913203   0.000000
     6  Cl   1.780261   2.750625   3.293397   4.313618   3.290524
     7  H    1.090820   2.135527   2.881774   2.802009   3.672661
     8  H    1.090858   2.134296   3.673955   2.802225   2.873979
                    6          7          8
     6  Cl   0.000000
     7  H    2.363429   0.000000
     8  H    2.361481   1.785453   0.000000
 Stoichiometry    C2H2Cl4
 Framework group  C1[X(C2H2Cl4)]
 Deg. of freedom    18
 Full point group                 C1      NOp   1
 Largest Abelian subgroup         C1      NOp   1
 Largest concise Abelian subgroup C1      NOp   1
                         Standard orientation:                         
 ---------------------------------------------------------------------
 Center     Atomic      Atomic             Coordinates (Angstroms)
 Number     Number       Type             X           Y           Z
 ---------------------------------------------------------------------
      1          6           0        0.707573    0.006000    1.093784
      2          6           0       -0.393281   -0.000352    0.049037
      3         17           0       -0.292448   -1.464898   -0.956416
      4         17           0       -1.938614    0.006980    0.944826
      5         17           0       -0.288553    1.453670   -0.971196
      6         17           0        2.337599    0.000914    0.378018
      7          1           0        0.603398   -0.881293    1.719680
      8          1           0        0.605129    0.904094    1.704444
 ---------------------------------------------------------------------
 Rotational constants (GHZ):      1.8587104      1.1025419      1.0365337
 Standard basis: 6-31+G(d) (6D, 7F)
 There are   134 symmetry adapted cartesian basis functions of A   symmetry.
 There are   134 symmetry adapted basis functions of A   symmetry.
   134 basis functions,   296 primitive gaussians,   134 cartesian basis functions
    41 alpha electrons       41 beta electrons
       nuclear repulsion energy       533.5642803463 Hartrees.
 NAtoms=    8 NActive=    8 NUniq=    8 SFac= 1.00D+00 NAtFMM=   60 NAOKFM=F Big=F
 Integral buffers will be    131072 words long.
 Raffenetti 2 integral format.
 Two-electron integral symmetry is turned on.
 One-electron integrals computed using PRISM.
 NBasis=   134 RedAO= T EigKep=  3.69D-05  NBF=   134
 NBsUse=   134 1.00D-06 EigRej= -1.00D+00 NBFU=   134
 Initial guess from the checkpoint file:  "/srv/scratch/z5358697/gauss/Gau-2175775.chk"
 B after Tr=     0.000000    0.000000    0.000000
         Rot=    0.999878    0.010092    0.011081    0.004337 Ang=   1.79 deg.
 ExpMin= 4.38D-02 ExpMax= 2.52D+04 ExpMxC= 3.78D+03 IAcc=2 IRadAn=         4 AccDes= 0.00D+00
 Harris functional with IExCor= 1009 and IRadAn=       4 diagonalized for initial guess.
 HarFok:  IExCor= 1009 AccDes= 0.00D+00 IRadAn=         4 IDoV= 1 UseB2=F ITyADJ=14
 ICtDFT=  3500011 ScaDFX=  1.000000  1.000000  1.000000  1.000000
 FoFCou: FMM=F IPFlag=           0 FMFlag=      100000 FMFlg1=           0
         NFxFlg=           0 DoJE=T BraDBF=F KetDBF=T FulRan=T
         wScrn=  0.000000 ICntrl=     500 IOpCl=  0 I1Cent=   200000004 NGrid=           0
         NMat0=    1 NMatS0=      1 NMatT0=    0 NMatD0=    1 NMtDS0=    0 NMtDT0=    0
 Petite list used in FoFCou.
 Requested convergence on RMS density matrix=1.00D-08 within 128 cycles.
 Requested convergence on MAX density matrix=1.00D-06.
 Requested convergence on             energy=1.00D-06.
 No special actions if energy rises.
 SCF Done:  E(RM062X) =  -1918.02936942     A.U. after   11 cycles
            NFock= 11  Conv=0.56D-08     -V/T= 2.0029
 Calling FoFJK, ICntrl=      2127 FMM=F ISym2X=0 I1Cent= 0 IOpClX= 0 NMat=1 NMatS=1 NMatT=0.
 ***** Axes restored to original set *****
 -------------------------------------------------------------------
 Center     Atomic                   Forces (Hartrees/Bohr)
 Number     Number              X              Y              Z
 -------------------------------------------------------------------
      1        6          -0.001292099   -0.001249964    0.006609899
      2        6           0.001748968    0.002988806   -0.004318840
      3       17          -0.001472300   -0.000041585   -0.001096526
      4       17           0.000423181    0.000574641   -0.000406100
      5       17           0.000954948   -0.001059309   -0.001116397
      6       17          -0.000805547   -0.001830980   -0.000191781
      7        1           0.000455334    0.000268225    0.000319141
      8        1          -0.000012486    0.000350166    0.000200605
 -------------------------------------------------------------------
 Cartesian Forces:  Max     0.006609899 RMS     0.001930842

 GradGradGradGradGradGradGradGradGradGradGradGradGradGradGradGradGradGrad
 Berny optimization.
 Using GEDIIS/GDIIS optimizer.
 FormGI is forming the generalized inverse of G from B-inverse, IUseBI=4.
 Internal  Forces:  Max     0.007530472 RMS     0.001879920
 Search for a local minimum.
 Step number   2 out of a maximum of   38
 All quantities printed in internal units (Hartrees-Bohrs-Radians)
 Mixed Optimization -- RFO/linear search
 Update second derivatives using D2CorX and points    1    2
 DE= -1.20D-03 DEPred=-1.37D-03 R= 8.72D-01
 TightC=F SS=  1.41D+00  RLast= 1.26D-01 DXNew= 5.0454D-01 3.7831D-01
 Trust test= 8.72D-01 RLast= 1.26D-01 DXMaxT set to 3.78D-01
 ITU=  1  0
 Use linear search instead of GDIIS.
     Eigenvalues ---    0.00353   0.05484   0.06111   0.08615   0.09389
     Eigenvalues ---    0.14517   0.16000   0.22609   0.23812   0.25000
     Eigenvalues ---    0.25739   0.26366   0.26801   0.26950   0.27250
     Eigenvalues ---    0.33915   0.34160   0.39014
 RFO step:  Lambda=-2.46262795D-04 EMin= 3.53115037D-03
 Quartic linear search produced a step of -0.12424.
 Iteration  1 RMS(Cart)=  0.01571445 RMS(Int)=  0.00009650
 Iteration  2 RMS(Cart)=  0.00009108 RMS(Int)=  0.00004079
 Iteration  3 RMS(Cart)=  0.00000000 RMS(Int)=  0.00004079
 Variable       Old X    -DE/DX   Delta X   Delta X   Delta X     New X
                                 (Linear)    (Quad)   (Total)
    R1        2.86804   0.00753   0.00320   0.01687   0.02007   2.88811
    R2        3.36421  -0.00148   0.00136  -0.00715  -0.00579   3.35842
    R3        2.06135   0.00000   0.00114  -0.00198  -0.00084   2.06051
    R4        2.06142  -0.00003   0.00116  -0.00209  -0.00093   2.06049
    R5        3.36244  -0.00139   0.00245  -0.00882  -0.00637   3.35606
    R6        3.37545  -0.00025   0.00220  -0.00468  -0.00249   3.37296
    R7        3.36245  -0.00116   0.00240  -0.00798  -0.00558   3.35687
    A1        1.96856   0.00293   0.00167   0.00815   0.00987   1.97842
    A2        1.89896  -0.00039   0.00506  -0.01101  -0.00587   1.89308
    A3        1.89724  -0.00030   0.00521  -0.00985  -0.00456   1.89268
    A4        1.89211  -0.00135  -0.00390   0.00008  -0.00378   1.88833
    A5        1.88958  -0.00116  -0.00362   0.00235  -0.00122   1.88836
    A6        1.91719   0.00024  -0.00509   0.01076   0.00578   1.92297
    A7        1.92978   0.00217   0.00166   0.00516   0.00681   1.93659
    A8        1.85698   0.00065   0.00491  -0.00807  -0.00310   1.85387
    A9        1.92686   0.00283   0.00197   0.00747   0.00944   1.93630
   A10        1.91324  -0.00173  -0.00343  -0.00225  -0.00563   1.90761
   A11        1.92332  -0.00210  -0.00187  -0.00116  -0.00309   1.92024
   A12        1.91253  -0.00178  -0.00333  -0.00144  -0.00470   1.90782
    D1        1.06591   0.00032  -0.00233   0.02021   0.01791   1.08382
    D2       -3.14094  -0.00019  -0.00254   0.01555   0.01301  -3.12793
    D3       -1.06705  -0.00041  -0.00246   0.01314   0.01065  -1.05640
    D4       -1.03417   0.00041  -0.00203   0.02244   0.02042  -1.01375
    D5        1.04216  -0.00010  -0.00224   0.01778   0.01552   1.05768
    D6        3.11606  -0.00032  -0.00216   0.01537   0.01316   3.12922
    D7       -3.12155   0.00052  -0.00216   0.02163   0.01951  -3.10204
    D8       -1.04522   0.00000  -0.00237   0.01696   0.01461  -1.03061
    D9        1.02868  -0.00022  -0.00229   0.01455   0.01225   1.04092
         Item               Value     Threshold  Converged?
 Maximum Force            0.007530     0.000450     NO 
 RMS     Force            0.001880     0.000300     NO 
 Maximum Displacement     0.036228     0.001800     NO 
 RMS     Displacement     0.015690     0.001200     NO 
 Predicted change in Energy=-1.422052D-04
 GradGradGradGradGradGradGradGradGradGradGradGradGradGradGradGradGradGrad

                          Input orientation:                          
 ---------------------------------------------------------------------
 Center     Atomic      Atomic             Coordinates (Angstroms)
 Number     Number       Type             X           Y           Z
 ---------------------------------------------------------------------
      1          6           0       -0.222356   -0.318642    0.714165
      2          6           0        0.153266    0.190492   -0.677041
      3         17           0        1.913916    0.358366   -0.838092
      4         17           0       -0.430185   -1.038815   -1.832132
      5         17           0       -0.639611    1.742532   -1.020605
      6         17           0        0.256954    0.785531    2.021641
      7          1           0        0.274252   -1.275529    0.877459
      8          1           0       -1.304634   -0.444834    0.754705
 ---------------------------------------------------------------------
                    Distance matrix (angstroms):
                    1          2          3          4          5
     1  C    0.000000
     2  C    1.528320   0.000000
     3  Cl   2.726078   1.775953   0.000000
     4  Cl   2.654330   1.784894   2.904314   0.000000
     5  Cl   2.726163   1.776377   2.910280   2.904880   0.000000
     6  Cl   1.777198   2.765449   3.332577   4.318792   3.312845
     7  H    1.090375   2.140170   2.881185   2.809653   3.680555
     8  H    1.090364   2.139862   3.679837   2.794494   2.894572
                    6          7          8
     6  Cl   0.000000
     7  H    2.357419   0.000000
     8  H    2.357432   1.788297   0.000000
 Stoichiometry    C2H2Cl4
 Framework group  C1[X(C2H2Cl4)]
 Deg. of freedom    18
 Full point group                 C1      NOp   1
 Largest Abelian subgroup         C1      NOp   1
 Largest concise Abelian subgroup C1      NOp   1
                         Standard orientation:                         
 ---------------------------------------------------------------------
 Center     Atomic      Atomic             Coordinates (Angstroms)
 Number     Number       Type             X           Y           Z
 ---------------------------------------------------------------------
      1          6           0        0.734790    0.000527    1.083910
      2          6           0       -0.390134   -0.000249    0.049353
      3         17           0       -0.332861   -1.467050   -0.950258
      4         17           0       -1.917120    0.024722    0.973222
      5         17           0       -0.304418    1.442908   -0.982862
      6         17           0        2.357824   -0.000838    0.359898
      7          1           0        0.636717   -0.892777    1.701412
      8          1           0        0.637121    0.895519    1.699006
 ---------------------------------------------------------------------
 Rotational constants (GHZ):      1.8543590      1.0938483      1.0337464
 Standard basis: 6-31+G(d) (6D, 7F)
 There are   134 symmetry adapted cartesian basis functions of A   symmetry.
 There are   134 symmetry adapted basis functions of A   symmetry.
   134 basis functions,   296 primitive gaussians,   134 cartesian basis functions
    41 alpha electrons       41 beta electrons
       nuclear repulsion energy       532.8835230464 Hartrees.
 NAtoms=    8 NActive=    8 NUniq=    8 SFac= 1.00D+00 NAtFMM=   60 NAOKFM=F Big=F
 Integral buffers will be    131072 words long.
 Raffenetti 2 integral format.
 Two-electron integral symmetry is turned on.
 One-electron integrals computed using PRISM.
 NBasis=   134 RedAO= T EigKep=  3.73D-05  NBF=   134
 NBsUse=   134 1.00D-06 EigRej= -1.00D+00 NBFU=   134
 Initial guess from the checkpoint file:  "/srv/scratch/z5358697/gauss/Gau-2175775.chk"
 B after Tr=     0.000000    0.000000    0.000000
         Rot=    0.999964    0.003094   -0.007413    0.002607 Ang=   0.97 deg.
 ExpMin= 4.38D-02 ExpMax= 2.52D+04 ExpMxC= 3.78D+03 IAcc=2 IRadAn=         4 AccDes= 0.00D+00
 Harris functional with IExCor= 1009 and IRadAn=       4 diagonalized for initial guess.
 HarFok:  IExCor= 1009 AccDes= 0.00D+00 IRadAn=         4 IDoV= 1 UseB2=F ITyADJ=14
 ICtDFT=  3500011 ScaDFX=  1.000000  1.000000  1.000000  1.000000
 FoFCou: FMM=F IPFlag=           0 FMFlag=      100000 FMFlg1=           0
         NFxFlg=           0 DoJE=T BraDBF=F KetDBF=T FulRan=T
         wScrn=  0.000000 ICntrl=     500 IOpCl=  0 I1Cent=   200000004 NGrid=           0
         NMat0=    1 NMatS0=      1 NMatT0=    0 NMatD0=    1 NMtDS0=    0 NMtDT0=    0
 Petite list used in FoFCou.
 Requested convergence on RMS density matrix=1.00D-08 within 128 cycles.
 Requested convergence on MAX density matrix=1.00D-06.
 Requested convergence on             energy=1.00D-06.
 No special actions if energy rises.
 SCF Done:  E(RM062X) =  -1918.02948633     A.U. after   11 cycles
            NFock= 11  Conv=0.41D-08     -V/T= 2.0029
 Calling FoFJK, ICntrl=      2127 FMM=F ISym2X=0 I1Cent= 0 IOpClX= 0 NMat=1 NMatS=1 NMatT=0.
 ***** Axes restored to original set *****
 -------------------------------------------------------------------
 Center     Atomic                   Forces (Hartrees/Bohr)
 Number     Number              X              Y              Z
 -------------------------------------------------------------------
      1        6          -0.000005561    0.000329683    0.001473259
      2        6           0.000296961    0.001012683   -0.000866505
      3       17           0.000007641    0.000118444    0.000424062
      4       17          -0.000225127   -0.000678707   -0.000749400
      5       17           0.000095040   -0.000092337    0.000259461
      6       17           0.000025247   -0.000461533   -0.000623850
      7        1           0.000011197   -0.000250899   -0.000002722
      8        1          -0.000205400    0.000022666    0.000085696
 -------------------------------------------------------------------
 Cartesian Forces:  Max     0.001473259 RMS     0.000508734

 GradGradGradGradGradGradGradGradGradGradGradGradGradGradGradGradGradGrad
 Berny optimization.
 Using GEDIIS/GDIIS optimizer.
 FormGI is forming the generalized inverse of G from B-inverse, IUseBI=4.
 Internal  Forces:  Max     0.001047660 RMS     0.000404397
 Search for a local minimum.
 Step number   3 out of a maximum of   38
 All quantities printed in internal units (Hartrees-Bohrs-Radians)
 Mixed Optimization -- En-DIIS/RFO-DIIS
 Update second derivatives using D2CorX and points    1    2    3
 DE= -1.17D-04 DEPred=-1.42D-04 R= 8.22D-01
 TightC=F SS=  1.41D+00  RLast= 5.57D-02 DXNew= 6.3624D-01 1.6715D-01
 Trust test= 8.22D-01 RLast= 5.57D-02 DXMaxT set to 3.78D-01
 ITU=  1  1  0
 Use linear search instead of GDIIS.
     Eigenvalues ---    0.00373   0.05416   0.06126   0.08836   0.09346
     Eigenvalues ---    0.13720   0.16003   0.22342   0.23134   0.25056
     Eigenvalues ---    0.25543   0.26630   0.26942   0.27181   0.28089
     Eigenvalues ---    0.34157   0.34223   0.38704
 RFO step:  Lambda=-5.52424258D-05 EMin= 3.73376009D-03
 Quartic linear search produced a step of -0.07330.
 Iteration  1 RMS(Cart)=  0.02083420 RMS(Int)=  0.00018757
 Iteration  2 RMS(Cart)=  0.00019739 RMS(Int)=  0.00000114
 Iteration  3 RMS(Cart)=  0.00000001 RMS(Int)=  0.00000114
 Variable       Old X    -DE/DX   Delta X   Delta X   Delta X     New X
                                 (Linear)    (Quad)   (Total)
    R1        2.88811   0.00100  -0.00147   0.00627   0.00480   2.89290
    R2        3.35842  -0.00071   0.00042  -0.00354  -0.00311   3.35531
    R3        2.06051   0.00021   0.00006   0.00029   0.00035   2.06086
    R4        2.06049   0.00019   0.00007   0.00021   0.00028   2.06076
    R5        3.35606  -0.00003   0.00047  -0.00150  -0.00103   3.35503
    R6        3.37296   0.00105   0.00018   0.00288   0.00306   3.37603
    R7        3.35687  -0.00018   0.00041  -0.00187  -0.00146   3.35541
    A1        1.97842  -0.00055  -0.00072  -0.00082  -0.00155   1.97688
    A2        1.89308   0.00009   0.00043  -0.00147  -0.00104   1.89205
    A3        1.89268   0.00024   0.00033   0.00031   0.00064   1.89332
    A4        1.88833   0.00010   0.00028  -0.00089  -0.00062   1.88771
    A5        1.88836   0.00018   0.00009   0.00120   0.00129   1.88965
    A6        1.92297  -0.00006  -0.00042   0.00177   0.00135   1.92431
    A7        1.93659  -0.00081  -0.00050  -0.00252  -0.00302   1.93358
    A8        1.85387   0.00039   0.00023   0.00120   0.00143   1.85530
    A9        1.93630  -0.00031  -0.00069  -0.00003  -0.00072   1.93558
   A10        1.90761   0.00027   0.00041   0.00099   0.00140   1.90901
   A11        1.92024   0.00032   0.00023  -0.00078  -0.00055   1.91968
   A12        1.90782   0.00016   0.00034   0.00129   0.00163   1.90945
    D1        1.08382  -0.00032  -0.00131  -0.03435  -0.03566   1.04816
    D2       -3.12793  -0.00021  -0.00095  -0.03381  -0.03477   3.12049
    D3       -1.05640   0.00005  -0.00078  -0.03157  -0.03235  -1.08875
    D4       -1.01375  -0.00016  -0.00150  -0.03168  -0.03318  -1.04693
    D5        1.05768  -0.00005  -0.00114  -0.03115  -0.03229   1.02540
    D6        3.12922   0.00021  -0.00096  -0.02890  -0.02987   3.09935
    D7       -3.10204  -0.00028  -0.00143  -0.03314  -0.03457  -3.13661
    D8       -1.03061  -0.00017  -0.00107  -0.03260  -0.03367  -1.06428
    D9        1.04092   0.00009  -0.00090  -0.03036  -0.03126   1.00966
         Item               Value     Threshold  Converged?
 Maximum Force            0.001048     0.000450     NO 
 RMS     Force            0.000404     0.000300     NO 
 Maximum Displacement     0.054112     0.001800     NO 
 RMS     Displacement     0.020834     0.001200     NO 
 Predicted change in Energy=-1.736905D-05
 GradGradGradGradGradGradGradGradGradGradGradGradGradGradGradGradGradGrad

                          Input orientation:                          
 ---------------------------------------------------------------------
 Center     Atomic      Atomic             Coordinates (Angstroms)
 Number     Number       Type             X           Y           Z
 ---------------------------------------------------------------------
      1          6           0       -0.225910   -0.317444    0.715036
      2          6           0        0.151863    0.190703   -0.678736
      3         17           0        1.911370    0.376354   -0.826164
      4         17           0       -0.412265   -1.049308   -1.834491
      5         17           0       -0.652884    1.734016   -1.029930
      6         17           0        0.285589    0.771351    2.020976
      7          1           0        0.254157   -1.284169    0.870918
      8          1           0       -1.310318   -0.422404    0.762492
 ---------------------------------------------------------------------
                    Distance matrix (angstroms):
                    1          2          3          4          5
     1  C    0.000000
     2  C    1.530858   0.000000
     3  Cl   2.724815   1.775406   0.000000
     4  Cl   2.659030   1.786515   2.906633   0.000000
     5  Cl   2.726848   1.775604   2.908636   2.907251   0.000000
     6  Cl   1.775552   2.764684   3.302332   4.320466   3.333989
     7  H    1.090560   2.141761   2.895476   2.796161   3.680406
     8  H    1.090509   2.142665   3.679826   2.818480   2.880129
                    6          7          8
     6  Cl   0.000000
     7  H    2.355585   0.000000
     8  H    2.357064   1.789407   0.000000
 Stoichiometry    C2H2Cl4
 Framework group  C1[X(C2H2Cl4)]
 Deg. of freedom    18
 Full point group                 C1      NOp   1
 Largest Abelian subgroup         C1      NOp   1
 Largest concise Abelian subgroup C1      NOp   1
                         Standard orientation:                         
 ---------------------------------------------------------------------
 Center     Atomic      Atomic             Coordinates (Angstroms)
 Number     Number       Type             X           Y           Z
 ---------------------------------------------------------------------
      1          6           0        0.734093   -0.007753    1.086529
      2          6           0       -0.391441    0.000389    0.048920
      3         17           0       -0.292332   -1.429073   -0.999357
      4         17           0       -1.922091   -0.044319    0.969110
      5         17           0       -0.336683    1.478478   -0.933436
      6         17           0        2.355381   -0.000833    0.362677
      7          1           0        0.636617   -0.908710    1.693237
      8          1           0        0.634801    0.880606    1.711164
 ---------------------------------------------------------------------
 Rotational constants (GHZ):      1.8560932      1.0938333      1.0338799
 Standard basis: 6-31+G(d) (6D, 7F)
 There are   134 symmetry adapted cartesian basis functions of A   symmetry.
 There are   134 symmetry adapted basis functions of A   symmetry.
   134 basis functions,   296 primitive gaussians,   134 cartesian basis functions
    41 alpha electrons       41 beta electrons
       nuclear repulsion energy       532.9061751992 Hartrees.
 NAtoms=    8 NActive=    8 NUniq=    8 SFac= 1.00D+00 NAtFMM=   60 NAOKFM=F Big=F
 Integral buffers will be    131072 words long.
 Raffenetti 2 integral format.
 Two-electron integral symmetry is turned on.
 One-electron integrals computed using PRISM.
 NBasis=   134 RedAO= T EigKep=  3.76D-05  NBF=   134
 NBsUse=   134 1.00D-06 EigRej= -1.00D+00 NBFU=   134
 Initial guess from the checkpoint file:  "/srv/scratch/z5358697/gauss/Gau-2175775.chk"
 B after Tr=     0.000000    0.000000    0.000000
         Rot=    0.999809   -0.017994    0.001105   -0.007533 Ang=  -2.24 deg.
 ExpMin= 4.38D-02 ExpMax= 2.52D+04 ExpMxC= 3.78D+03 IAcc=2 IRadAn=         4 AccDes= 0.00D+00
 Harris functional with IExCor= 1009 and IRadAn=       4 diagonalized for initial guess.
 HarFok:  IExCor= 1009 AccDes= 0.00D+00 IRadAn=         4 IDoV= 1 UseB2=F ITyADJ=14
 ICtDFT=  3500011 ScaDFX=  1.000000  1.000000  1.000000  1.000000
 FoFCou: FMM=F IPFlag=           0 FMFlag=      100000 FMFlg1=           0
         NFxFlg=           0 DoJE=T BraDBF=F KetDBF=T FulRan=T
         wScrn=  0.000000 ICntrl=     500 IOpCl=  0 I1Cent=   200000004 NGrid=           0
         NMat0=    1 NMatS0=      1 NMatT0=    0 NMatD0=    1 NMtDS0=    0 NMtDT0=    0
 Petite list used in FoFCou.
 Requested convergence on RMS density matrix=1.00D-08 within 128 cycles.
 Requested convergence on MAX density matrix=1.00D-06.
 Requested convergence on             energy=1.00D-06.
 No special actions if energy rises.
 SCF Done:  E(RM062X) =  -1918.02949301     A.U. after   10 cycles
            NFock= 10  Conv=0.82D-08     -V/T= 2.0029
 Calling FoFJK, ICntrl=      2127 FMM=F ISym2X=0 I1Cent= 0 IOpClX= 0 NMat=1 NMatS=1 NMatT=0.
 ***** Axes restored to original set *****
 -------------------------------------------------------------------
 Center     Atomic                   Forces (Hartrees/Bohr)
 Number     Number              X              Y              Z
 -------------------------------------------------------------------
      1        6           0.000229205    0.000072543   -0.000011584
      2        6           0.000406089    0.000119617    0.000258689
      3       17           0.000266513   -0.000058097   -0.000168325
      4       17          -0.000210605    0.000010502   -0.000164624
      5       17          -0.000155562   -0.000016379    0.000215514
      6       17          -0.000356295    0.000173670   -0.000058402
      7        1          -0.000052320   -0.000097374   -0.000014126
      8        1          -0.000127024   -0.000204482   -0.000057141
 -------------------------------------------------------------------
 Cartesian Forces:  Max     0.000406089 RMS     0.000180674

 GradGradGradGradGradGradGradGradGradGradGradGradGradGradGradGradGradGrad
 Berny optimization.
 Using GEDIIS/GDIIS optimizer.
 FormGI is forming the generalized inverse of G from B-inverse, IUseBI=4.
 Internal  Forces:  Max     0.000657112 RMS     0.000225435
 Search for a local minimum.
 Step number   4 out of a maximum of   38
 All quantities printed in internal units (Hartrees-Bohrs-Radians)
 Mixed Optimization -- En-DIIS/RFO-DIIS
 Swapping is turned off.
 Update second derivatives using D2CorX and points    1    2    3    4
 DE= -6.67D-06 DEPred=-1.74D-05 R= 3.84D-01
 Trust test= 3.84D-01 RLast= 9.97D-02 DXMaxT set to 3.78D-01
 ITU=  0  1  1  0
     Eigenvalues ---    0.00585   0.05724   0.06194   0.08941   0.09738
     Eigenvalues ---    0.12875   0.16004   0.20510   0.23072   0.25209
     Eigenvalues ---    0.26278   0.26637   0.27096   0.27194   0.27544
     Eigenvalues ---    0.34166   0.34201   0.38115
 En-DIIS/RFO-DIIS IScMMF=        0 using points:     4    3
 RFO step:  Lambda=-4.72995839D-06.
 DidBck=T Rises=F RFO-DIIS coefs:    0.50296    0.49704
 Iteration  1 RMS(Cart)=  0.01284543 RMS(Int)=  0.00007150
 Iteration  2 RMS(Cart)=  0.00007472 RMS(Int)=  0.00000090
 Iteration  3 RMS(Cart)=  0.00000000 RMS(Int)=  0.00000090
 Variable       Old X    -DE/DX   Delta X   Delta X   Delta X     New X
                                 (Linear)    (Quad)   (Total)
    R1        2.89290  -0.00004  -0.00238   0.00303   0.00065   2.89355
    R2        3.35531  -0.00002   0.00155  -0.00197  -0.00043   3.35488
    R3        2.06086   0.00005  -0.00017   0.00034   0.00017   2.06103
    R4        2.06076   0.00014  -0.00014   0.00042   0.00028   2.06105
    R5        3.35503   0.00026   0.00051  -0.00007   0.00044   3.35547
    R6        3.37603   0.00019  -0.00152   0.00243   0.00091   3.37693
    R7        3.35541   0.00000   0.00073  -0.00083  -0.00010   3.35531
    A1        1.97688  -0.00015   0.00077  -0.00125  -0.00049   1.97639
    A2        1.89205   0.00015   0.00052   0.00038   0.00089   1.89294
    A3        1.89332  -0.00004  -0.00032  -0.00007  -0.00039   1.89293
    A4        1.88771   0.00021   0.00031   0.00109   0.00139   1.88911
    A5        1.88965  -0.00007  -0.00064  -0.00028  -0.00093   1.88873
    A6        1.92431  -0.00010  -0.00067   0.00016  -0.00051   1.92381
    A7        1.93358   0.00052   0.00150  -0.00058   0.00092   1.93450
    A8        1.85530  -0.00002  -0.00071   0.00086   0.00015   1.85545
    A9        1.93558  -0.00066   0.00036  -0.00187  -0.00151   1.93406
   A10        1.90901  -0.00009  -0.00070   0.00097   0.00027   1.90928
   A11        1.91968   0.00019   0.00027   0.00034   0.00061   1.92030
   A12        1.90945   0.00005  -0.00081   0.00034  -0.00047   1.90898
    D1        1.04816   0.00030   0.01772   0.00362   0.02134   1.06950
    D2        3.12049   0.00046   0.01728   0.00498   0.02226  -3.14044
    D3       -1.08875   0.00015   0.01608   0.00489   0.02097  -1.06778
    D4       -1.04693   0.00002   0.01649   0.00279   0.01928  -1.02765
    D5        1.02540   0.00018   0.01605   0.00415   0.02020   1.04560
    D6        3.09935  -0.00012   0.01485   0.00405   0.01890   3.11825
    D7       -3.13661   0.00008   0.01718   0.00242   0.01960  -3.11701
    D8       -1.06428   0.00024   0.01674   0.00378   0.02052  -1.04377
    D9        1.00966  -0.00006   0.01554   0.00368   0.01922   1.02889
         Item               Value     Threshold  Converged?
 Maximum Force            0.000657     0.000450     NO 
 RMS     Force            0.000225     0.000300     YES
 Maximum Displacement     0.033006     0.001800     NO 
 RMS     Displacement     0.012846     0.001200     NO 
 Predicted change in Energy=-1.474609D-05
 GradGradGradGradGradGradGradGradGradGradGradGradGradGradGradGradGradGrad

                          Input orientation:                          
 ---------------------------------------------------------------------
 Center     Atomic      Atomic             Coordinates (Angstroms)
 Number     Number       Type             X           Y           Z
 ---------------------------------------------------------------------
      1          6           0       -0.223794   -0.318592    0.715342
      2          6           0        0.153117    0.190270   -0.678778
      3         17           0        1.913351    0.365827   -0.832578
      4         17           0       -0.423565   -1.043187   -1.836092
      5         17           0       -0.644663    1.738890   -1.022151
      6         17           0        0.268123    0.781333    2.019170
      7          1           0        0.266285   -1.279538    0.876340
      8          1           0       -1.307254   -0.435903    0.758847
 ---------------------------------------------------------------------
                    Distance matrix (angstroms):
                    1          2          3          4          5
     1  C    0.000000
     2  C    1.531200   0.000000
     3  Cl   2.726147   1.775641   0.000000
     4  Cl   2.659843   1.786996   2.907497   0.000000
     5  Cl   2.725664   1.775551   2.909412   2.907118   0.000000
     6  Cl   1.775326   2.764327   3.318417   4.320920   3.316584
     7  H    1.090649   2.142787   2.887985   2.808744   3.680354
     8  H    1.090660   2.142788   3.680721   2.807741   2.888028
                    6          7          8
     6  Cl   0.000000
     7  H    2.356534   0.000000
     8  H    2.356245   1.789287   0.000000
 Stoichiometry    C2H2Cl4
 Framework group  C1[X(C2H2Cl4)]
 Deg. of freedom    18
 Full point group                 C1      NOp   1
 Largest Abelian subgroup         C1      NOp   1
 Largest concise Abelian subgroup C1      NOp   1
                         Standard orientation:                         
 ---------------------------------------------------------------------
 Center     Atomic      Atomic             Coordinates (Angstroms)
 Number     Number       Type             X           Y           Z
 ---------------------------------------------------------------------
      1          6           0        0.734001    0.001690    1.086940
      2          6           0       -0.391397   -0.000085    0.048650
      3         17           0       -0.314878   -1.457116   -0.963332
      4         17           0       -1.923221    0.003452    0.968899
      5         17           0       -0.312586    1.452288   -0.969675
      6         17           0        2.355002    0.000472    0.362967
      7          1           0        0.635363   -0.891773    1.704605
      8          1           0        0.635634    0.897511    1.701244
 ---------------------------------------------------------------------
 Rotational constants (GHZ):      1.8559284      1.0939140      1.0336787
 Standard basis: 6-31+G(d) (6D, 7F)
 There are   134 symmetry adapted cartesian basis functions of A   symmetry.
 There are   134 symmetry adapted basis functions of A   symmetry.
   134 basis functions,   296 primitive gaussians,   134 cartesian basis functions
    41 alpha electrons       41 beta electrons
       nuclear repulsion energy       532.8716552182 Hartrees.
 NAtoms=    8 NActive=    8 NUniq=    8 SFac= 1.00D+00 NAtFMM=   60 NAOKFM=F Big=F
 Integral buffers will be    131072 words long.
 Raffenetti 2 integral format.
 Two-electron integral symmetry is turned on.
 One-electron integrals computed using PRISM.
 NBasis=   134 RedAO= T EigKep=  3.77D-05  NBF=   134
 NBsUse=   134 1.00D-06 EigRej= -1.00D+00 NBFU=   134
 Initial guess from the checkpoint file:  "/srv/scratch/z5358697/gauss/Gau-2175775.chk"
 B after Tr=     0.000000    0.000000    0.000000
         Rot=    0.999901    0.013238    0.000157    0.004836 Ang=   1.62 deg.
 ExpMin= 4.38D-02 ExpMax= 2.52D+04 ExpMxC= 3.78D+03 IAcc=2 IRadAn=         4 AccDes= 0.00D+00
 Harris functional with IExCor= 1009 and IRadAn=       4 diagonalized for initial guess.
 HarFok:  IExCor= 1009 AccDes= 0.00D+00 IRadAn=         4 IDoV= 1 UseB2=F ITyADJ=14
 ICtDFT=  3500011 ScaDFX=  1.000000  1.000000  1.000000  1.000000
 FoFCou: FMM=F IPFlag=           0 FMFlag=      100000 FMFlg1=           0
         NFxFlg=           0 DoJE=T BraDBF=F KetDBF=T FulRan=T
         wScrn=  0.000000 ICntrl=     500 IOpCl=  0 I1Cent=   200000004 NGrid=           0
         NMat0=    1 NMatS0=      1 NMatT0=    0 NMatD0=    1 NMtDS0=    0 NMtDT0=    0
 Petite list used in FoFCou.
 Requested convergence on RMS density matrix=1.00D-08 within 128 cycles.
 Requested convergence on MAX density matrix=1.00D-06.
 Requested convergence on             energy=1.00D-06.
 No special actions if energy rises.
 SCF Done:  E(RM062X) =  -1918.02950172     A.U. after   10 cycles
            NFock= 10  Conv=0.44D-08     -V/T= 2.0029
 Calling FoFJK, ICntrl=      2127 FMM=F ISym2X=0 I1Cent= 0 IOpClX= 0 NMat=1 NMatS=1 NMatT=0.
 ***** Axes restored to original set *****
 -------------------------------------------------------------------
 Center     Atomic                   Forces (Hartrees/Bohr)
 Number     Number              X              Y              Z
 -------------------------------------------------------------------
      1        6           0.000049946    0.000060409   -0.000215433
      2        6          -0.000049701    0.000027126    0.000171000
      3       17          -0.000009081   -0.000074445    0.000066444
      4       17           0.000101081    0.000120373    0.000045632
      5       17          -0.000061521    0.000040104    0.000020771
      6       17           0.000039291    0.000007643    0.000051348
      7        1          -0.000061189   -0.000076961   -0.000057899
      8        1          -0.000008827   -0.000104249   -0.000081864
 -------------------------------------------------------------------
 Cartesian Forces:  Max     0.000215433 RMS     0.000082301

 GradGradGradGradGradGradGradGradGradGradGradGradGradGradGradGradGradGrad
 Berny optimization.
 Using GEDIIS/GDIIS optimizer.
 FormGI is forming the generalized inverse of G from B-inverse, IUseBI=4.
 Internal  Forces:  Max     0.000256021 RMS     0.000077176
 Search for a local minimum.
 Step number   5 out of a maximum of   38
 All quantities printed in internal units (Hartrees-Bohrs-Radians)
 Mixed Optimization -- En-DIIS/RFO-DIIS
 Swapping is turned off.
 Update second derivatives using D2CorX and points    1    2    3    4    5
 DE= -8.71D-06 DEPred=-1.47D-05 R= 5.91D-01
 TightC=F SS=  1.41D+00  RLast= 6.09D-02 DXNew= 6.3624D-01 1.8277D-01
 Trust test= 5.91D-01 RLast= 6.09D-02 DXMaxT set to 3.78D-01
 ITU=  1  0  1  1  0
     Eigenvalues ---    0.00597   0.05827   0.06174   0.09081   0.09936
     Eigenvalues ---    0.13501   0.16009   0.21786   0.22976   0.25024
     Eigenvalues ---    0.26513   0.26767   0.27180   0.27265   0.28552
     Eigenvalues ---    0.34124   0.34175   0.38974
 En-DIIS/RFO-DIIS IScMMF=        0 using points:     5    4    3
 RFO step:  Lambda=-3.49350653D-07.
 DidBck=F Rises=F RFO-DIIS coefs:    0.80423    0.09612    0.09964
 Iteration  1 RMS(Cart)=  0.00066491 RMS(Int)=  0.00000023
 Iteration  2 RMS(Cart)=  0.00000018 RMS(Int)=  0.00000015
 Variable       Old X    -DE/DX   Delta X   Delta X   Delta X     New X
                                 (Linear)    (Quad)   (Total)
    R1        2.89355  -0.00026  -0.00060  -0.00019  -0.00080   2.89275
    R2        3.35488   0.00008   0.00039  -0.00005   0.00035   3.35523
    R3        2.06103   0.00002  -0.00007   0.00013   0.00006   2.06109
    R4        2.06105   0.00000  -0.00008   0.00012   0.00003   2.06108
    R5        3.35547  -0.00003   0.00002  -0.00001   0.00000   3.35548
    R6        3.37693  -0.00012  -0.00048   0.00011  -0.00037   3.37656
    R7        3.35531   0.00005   0.00017   0.00007   0.00024   3.35554
    A1        1.97639  -0.00011   0.00025  -0.00051  -0.00026   1.97613
    A2        1.89294   0.00001  -0.00007   0.00015   0.00008   1.89302
    A3        1.89293  -0.00001   0.00001   0.00004   0.00005   1.89298
    A4        1.88911   0.00005  -0.00021   0.00041   0.00019   1.88930
    A5        1.88873   0.00010   0.00005   0.00052   0.00057   1.88929
    A6        1.92381  -0.00004  -0.00003  -0.00062  -0.00065   1.92315
    A7        1.93450  -0.00012   0.00012  -0.00035  -0.00023   1.93427
    A8        1.85545  -0.00002  -0.00017   0.00000  -0.00017   1.85529
    A9        1.93406   0.00002   0.00037  -0.00013   0.00024   1.93430
   A10        1.90928  -0.00001  -0.00019  -0.00028  -0.00048   1.90881
   A11        1.92030   0.00012  -0.00007   0.00078   0.00072   1.92101
   A12        1.90898   0.00000  -0.00007  -0.00005  -0.00012   1.90886
    D1        1.06950   0.00004  -0.00062   0.00042  -0.00021   1.06929
    D2       -3.14044  -0.00005  -0.00089  -0.00011  -0.00101  -3.14144
    D3       -1.06778  -0.00005  -0.00088  -0.00024  -0.00112  -1.06891
    D4       -1.02765   0.00004  -0.00047   0.00013  -0.00034  -1.02799
    D5        1.04560  -0.00005  -0.00074  -0.00040  -0.00114   1.04446
    D6        3.11825  -0.00005  -0.00072  -0.00053  -0.00125   3.11699
    D7       -3.11701   0.00008  -0.00039   0.00077   0.00037  -3.11664
    D8       -1.04377  -0.00001  -0.00066   0.00024  -0.00042  -1.04419
    D9        1.02889  -0.00001  -0.00065   0.00011  -0.00054   1.02834
         Item               Value     Threshold  Converged?
 Maximum Force            0.000256     0.000450     YES
 RMS     Force            0.000077     0.000300     YES
 Maximum Displacement     0.001748     0.001800     YES
 RMS     Displacement     0.000665     0.001200     YES
 Predicted change in Energy=-4.094615D-07
 Optimization completed.
    -- Stationary point found.
                           ----------------------------
                           !   Optimized Parameters   !
                           ! (Angstroms and Degrees)  !
 --------------------------                            --------------------------
 ! Name  Definition              Value          Derivative Info.                !
 --------------------------------------------------------------------------------
 ! R1    R(1,2)                  1.5312         -DE/DX =   -0.0003              !
 ! R2    R(1,6)                  1.7753         -DE/DX =    0.0001              !
 ! R3    R(1,7)                  1.0906         -DE/DX =    0.0                 !
 ! R4    R(1,8)                  1.0907         -DE/DX =    0.0                 !
 ! R5    R(2,3)                  1.7756         -DE/DX =    0.0                 !
 ! R6    R(2,4)                  1.787          -DE/DX =   -0.0001              !
 ! R7    R(2,5)                  1.7756         -DE/DX =    0.0                 !
 ! A1    A(2,1,6)              113.2388         -DE/DX =   -0.0001              !
 ! A2    A(2,1,7)              108.4574         -DE/DX =    0.0                 !
 ! A3    A(2,1,8)              108.4569         -DE/DX =    0.0                 !
 ! A4    A(6,1,7)              108.2378         -DE/DX =    0.0001              !
 ! A5    A(6,1,8)              108.2161         -DE/DX =    0.0001              !
 ! A6    A(7,1,8)              110.2259         -DE/DX =    0.0                 !
 ! A7    A(1,2,3)              110.8387         -DE/DX =   -0.0001              !
 ! A8    A(1,2,4)              106.3097         -DE/DX =    0.0                 !
 ! A9    A(1,2,5)              110.8137         -DE/DX =    0.0                 !
 ! A10   A(3,2,4)              109.3938         -DE/DX =    0.0                 !
 ! A11   A(3,2,5)              110.0251         -DE/DX =    0.0001              !
 ! A12   A(4,2,5)              109.3767         -DE/DX =    0.0                 !
 ! D1    D(6,1,2,3)             61.278          -DE/DX =    0.0                 !
 ! D2    D(6,1,2,4)           -179.9337         -DE/DX =   -0.0001              !
 ! D3    D(6,1,2,5)            -61.1795         -DE/DX =   -0.0001              !
 ! D4    D(7,1,2,3)            -58.88           -DE/DX =    0.0                 !
 ! D5    D(7,1,2,4)             59.9082         -DE/DX =   -0.0001              !
 ! D6    D(7,1,2,5)            178.6625         -DE/DX =   -0.0001              !
 ! D7    D(8,1,2,3)           -178.5917         -DE/DX =    0.0001              !
 ! D8    D(8,1,2,4)            -59.8034         -DE/DX =    0.0                 !
 ! D9    D(8,1,2,5)             58.9508         -DE/DX =    0.0                 !
 --------------------------------------------------------------------------------
 GradGradGradGradGradGradGradGradGradGradGradGradGradGradGradGradGradGrad

                          Input orientation:                          
 ---------------------------------------------------------------------
 Center     Atomic      Atomic             Coordinates (Angstroms)
 Number     Number       Type             X           Y           Z
 ---------------------------------------------------------------------
      1          6           0       -0.223794   -0.318592    0.715342
      2          6           0        0.153117    0.190270   -0.678778
      3         17           0        1.913351    0.365827   -0.832578
      4         17           0       -0.423565   -1.043187   -1.836092
      5         17           0       -0.644663    1.738890   -1.022151
      6         17           0        0.268123    0.781333    2.019170
      7          1           0        0.266285   -1.279538    0.876340
      8          1           0       -1.307254   -0.435903    0.758847
 ---------------------------------------------------------------------
                    Distance matrix (angstroms):
                    1          2          3          4          5
     1  C    0.000000
     2  C    1.531200   0.000000
     3  Cl   2.726147   1.775641   0.000000
     4  Cl   2.659843   1.786996   2.907497   0.000000
     5  Cl   2.725664   1.775551   2.909412   2.907118   0.000000
     6  Cl   1.775326   2.764327   3.318417   4.320920   3.316584
     7  H    1.090649   2.142787   2.887985   2.808744   3.680354
     8  H    1.090660   2.142788   3.680721   2.807741   2.888028
                    6          7          8
     6  Cl   0.000000
     7  H    2.356534   0.000000
     8  H    2.356245   1.789287   0.000000
 Stoichiometry    C2H2Cl4
 Framework group  C1[X(C2H2Cl4)]
 Deg. of freedom    18
 Full point group                 C1      NOp   1
 Largest Abelian subgroup         C1      NOp   1
 Largest concise Abelian subgroup C1      NOp   1
                         Standard orientation:                         
 ---------------------------------------------------------------------
 Center     Atomic      Atomic             Coordinates (Angstroms)
 Number     Number       Type             X           Y           Z
 ---------------------------------------------------------------------
      1          6           0        0.734001    0.001690    1.086940
      2          6           0       -0.391397   -0.000085    0.048650
      3         17           0       -0.314878   -1.457116   -0.963332
      4         17           0       -1.923221    0.003452    0.968899
      5         17           0       -0.312586    1.452288   -0.969675
      6         17           0        2.355002    0.000472    0.362967
      7          1           0        0.635363   -0.891773    1.704605
      8          1           0        0.635634    0.897511    1.701244
 ---------------------------------------------------------------------
 Rotational constants (GHZ):      1.8559284      1.0939140      1.0336787

 **********************************************************************

            Population analysis using the SCF density.

 **********************************************************************

 Orbital symmetries:
       Occupied  (A) (A) (A) (A) (A) (A) (A) (A) (A) (A) (A) (A)
                 (A) (A) (A) (A) (A) (A) (A) (A) (A) (A) (A) (A)
                 (A) (A) (A) (A) (A) (A) (A) (A) (A) (A) (A) (A)
                 (A) (A) (A) (A) (A)
       Virtual   (A) (A) (A) (A) (A) (A) (A) (A) (A) (A) (A) (A)
                 (A) (A) (A) (A) (A) (A) (A) (A) (A) (A) (A) (A)
                 (A) (A) (A) (A) (A) (A) (A) (A) (A) (A) (A) (A)
                 (A) (A) (A) (A) (A) (A) (A) (A) (A) (A) (A) (A)
                 (A) (A) (A) (A) (A) (A) (A) (A) (A) (A) (A) (A)
                 (A) (A) (A) (A) (A) (A) (A) (A) (A) (A) (A) (A)
                 (A) (A) (A) (A) (A) (A) (A) (A) (A) (A) (A) (A)
                 (A) (A) (A) (A) (A) (A) (A) (A) (A)
 The electronic state is 1-A.
 Alpha  occ. eigenvalues -- -102.70390-102.70005-102.70001-102.68363 -10.75759
 Alpha  occ. eigenvalues --  -10.65298  -9.85118  -9.84722  -9.84719  -9.83053
 Alpha  occ. eigenvalues --   -7.57553  -7.57167  -7.57164  -7.56805  -7.56798
 Alpha  occ. eigenvalues --   -7.56407  -7.56404  -7.56398  -7.56395  -7.55485
 Alpha  occ. eigenvalues --   -7.54772  -7.54746  -1.07851  -0.97948  -0.95173
 Alpha  occ. eigenvalues --   -0.95059  -0.82984  -0.69613  -0.59767  -0.58038
 Alpha  occ. eigenvalues --   -0.56335  -0.51928  -0.49735  -0.43252  -0.43033
 Alpha  occ. eigenvalues --   -0.41353  -0.39921  -0.39659  -0.38655  -0.38428
 Alpha  occ. eigenvalues --   -0.37953
 Alpha virt. eigenvalues --   -0.01044   0.00619   0.01723   0.02493   0.03945
 Alpha virt. eigenvalues --    0.04355   0.04406   0.05896   0.07789   0.08809
 Alpha virt. eigenvalues --    0.09022   0.10115   0.10795   0.11187   0.12045
 Alpha virt. eigenvalues --    0.12682   0.12739   0.12978   0.13343   0.13382
 Alpha virt. eigenvalues --    0.15178   0.15439   0.16536   0.18939   0.19379
 Alpha virt. eigenvalues --    0.19963   0.21428   0.24822   0.25111   0.27086
 Alpha virt. eigenvalues --    0.37251   0.55384   0.55881   0.56005   0.57834
 Alpha virt. eigenvalues --    0.58754   0.59200   0.59402   0.61215   0.61751
 Alpha virt. eigenvalues --    0.62510   0.65621   0.65830   0.66340   0.67067
 Alpha virt. eigenvalues --    0.67635   0.69504   0.70282   0.70387   0.73174
 Alpha virt. eigenvalues --    0.78060   0.78963   0.84005   0.84093   0.89609
 Alpha virt. eigenvalues --    0.90371   0.90853   0.91934   0.92650   0.92883
 Alpha virt. eigenvalues --    0.93739   0.93757   0.96104   0.96951   0.99617
 Alpha virt. eigenvalues --    1.00756   1.05072   1.08683   1.10532   1.15034
 Alpha virt. eigenvalues --    1.15321   1.18725   1.24631   1.28366   1.29395
 Alpha virt. eigenvalues --    1.39825   1.62195   1.64102   1.64517   1.88197
 Alpha virt. eigenvalues --    1.98884   1.99090   2.16470   2.17401   2.26531
 Alpha virt. eigenvalues --    2.29649   2.56603   4.03392   4.28175   4.40938
 Alpha virt. eigenvalues --    4.40958   4.44579   4.46784
          Condensed to atoms (all electrons):
               1          2          3          4          5          6
     1  C    5.942561   0.022360  -0.152940   0.042227  -0.152874   0.178128
     2  C    0.022360   6.159620   0.276396   0.006764   0.276387  -0.104761
     3  Cl  -0.152940   0.276396  17.039957  -0.140923  -0.181759   0.003151
     4  Cl   0.042227   0.006764  -0.140923  17.082616  -0.141179   0.017788
     5  Cl  -0.152874   0.276387  -0.181759  -0.141179  17.040168   0.003389
     6  Cl   0.178128  -0.104761   0.003151   0.017788   0.003389  16.878707
     7  H    0.347937  -0.000509  -0.032567  -0.006394   0.015212  -0.045186
     8  H    0.348069  -0.000512   0.015160  -0.006251  -0.032668  -0.045311
               7          8
     1  C    0.347937   0.348069
     2  C   -0.000509  -0.000512
     3  Cl  -0.032567   0.015160
     4  Cl  -0.006394  -0.006251
     5  Cl   0.015212  -0.032668
     6  Cl  -0.045186  -0.045311
     7  H    0.445780  -0.026724
     8  H   -0.026724   0.445766
 Mulliken charges:
               1
     1  C   -0.575468
     2  C   -0.635746
     3  Cl   0.173525
     4  Cl   0.145352
     5  Cl   0.173323
     6  Cl   0.114094
     7  H    0.302451
     8  H    0.302469
 Sum of Mulliken charges =   0.00000
 Mulliken charges with hydrogens summed into heavy atoms:
               1
     1  C    0.029452
     2  C   -0.635746
     3  Cl   0.173525
     4  Cl   0.145352
     5  Cl   0.173323
     6  Cl   0.114094
 Electronic spatial extent (au):  <R**2>=           1218.7193
 Charge=              0.0000 electrons
 Dipole moment (field-independent basis, Debye):
    X=             -0.2209    Y=              0.0025    Z=              1.5630  Tot=              1.5786
 Quadrupole moment (field-independent basis, Debye-Ang):
   XX=            -66.3635   YY=            -62.4256   ZZ=            -60.4362
   XY=              0.0015   XZ=              0.1066   YZ=              0.0040
 Traceless Quadrupole moment (field-independent basis, Debye-Ang):
   XX=             -3.2884   YY=              0.6495   ZZ=              2.6389
   XY=              0.0015   XZ=              0.1066   YZ=              0.0040
 Octapole moment (field-independent basis, Debye-Ang**2):
  XXX=             -6.2714  YYY=             -0.0260  ZZZ=              1.1677  XYY=              0.3005
  XXY=              0.0065  XXZ=             -1.5765  XZZ=              0.5243  YZZ=              0.0176
  YYZ=             -3.4737  XYZ=             -0.0068
 Hexadecapole moment (field-independent basis, Debye-Ang**3):
 XXXX=           -792.5101 YYYY=           -379.5047 ZZZZ=           -344.6590 XXXY=             -0.0636
 XXXZ=            -24.8780 YYYX=              0.0344 YYYZ=              0.0501 ZZZX=             -0.8583
 ZZZY=             -0.0672 XXYY=           -207.4978 XXZZ=           -192.6671 YYZZ=           -111.4429
 XXYZ=              0.0303 YYXZ=              1.8237 ZZXY=             -0.0049
 N-N= 5.328716552182D+02 E-N=-5.618978275294D+03  KE= 1.912537551144D+03
 1\1\GINC-KATANA2\FOpt\RM062X\6-31+G(d)\C2H2Cl4\Z5358697\14-Mar-2025\0\
 \#m062X/6-31+G(d) OPT Freq=noraman\\1,1,1,2-tetrachloroethane\\0,1\C,-
 0.223794365,-0.3185915979,0.7153420386\C,0.1531169743,0.1902697482,-0.
 6787778243\Cl,1.9133514565,0.3658272545,-0.8325782745\Cl,-0.4235649221
 ,-1.0431870619,-1.836092017\Cl,-0.6446626657,1.7388899934,-1.022151272
 \Cl,0.2681227545,0.7813325175,2.0191704046\H,0.2662847409,-1.279538136
 2,0.8763403327\H,-1.3072539733,-0.4359027176,0.7588466119\\Version=ES6
 4L-G09RevD.01\State=1-A\HF=-1918.0295017\RMSD=4.386e-09\RMSF=8.230e-05
 \Dipole=-0.2949364,-0.5347668,0.1129066\Quadrupole=0.7710112,1.1700785
 ,-1.9410897,0.4654512,-0.51609,-1.2990319\PG=C01 [X(C2H2Cl4)]\\@


 THE POLHOLDE ROLLS WITHOUT SLIPPING ON THE HERPOLHOLDE LYING IN
 THE INVARIABLE PLANE.
 H.GOLDSTEIN, "CLASSICAL MECHANICS", PG 161
 Job cpu time:       0 days  0 hours  1 minutes 57.2 seconds.
 File lengths (MBytes):  RWF=    133 Int=      0 D2E=      0 Chk=      3 Scr=      2
 Normal termination of Gaussian 09 at Fri Mar 14 15:36:28 2025.
 Link1:  Proceeding to internal job step number  2.
 ---------------------------------------------------------------------
 #N Geom=AllCheck Guess=TCheck SCRF=Check GenChk RM062X/6-31+G(d) Freq
 ---------------------------------------------------------------------
 1/10=4,29=7,30=1,38=1,40=1/1,3;
 2/12=2,40=1/2;
 3/5=1,6=6,7=11,11=2,14=-4,16=1,25=1,30=1,70=2,71=2,74=-55,116=1,140=1/1,2,3;
 4/5=101/1;
 5/5=2,98=1/2;
 8/6=4,10=90,11=11/1;
 11/6=1,8=1,9=11,15=111,16=1/1,2,10;
 10/6=1/2;
 6/7=2,8=2,9=2,10=2,18=1,28=1/1;
 7/8=1,10=1,25=1/1,2,3,16;
 1/10=4,30=1/3;
 99//99;
 Structure from the checkpoint file:  "/srv/scratch/z5358697/gauss/Gau-2175775.chk"
 -------------------------
 1,1,1,2-tetrachloroethane
 -------------------------
 Charge =  0 Multiplicity = 1
 Redundant internal coordinates found in file.
 C,0,-0.223794365,-0.3185915979,0.7153420386
 C,0,0.1531169743,0.1902697482,-0.6787778243
 Cl,0,1.9133514565,0.3658272545,-0.8325782745
 Cl,0,-0.4235649221,-1.0431870619,-1.836092017
 Cl,0,-0.6446626657,1.7388899934,-1.022151272
 Cl,0,0.2681227545,0.7813325175,2.0191704046
 H,0,0.2662847409,-1.2795381362,0.8763403327
 H,0,-1.3072539733,-0.4359027176,0.7588466119
 Recover connectivity data from disk.

 GradGradGradGradGradGradGradGradGradGradGradGradGradGradGradGradGradGrad
 Berny optimization.
 Initialization pass.
                           ----------------------------
                           !    Initial Parameters    !
                           ! (Angstroms and Degrees)  !
 --------------------------                            --------------------------
 ! Name  Definition              Value          Derivative Info.                !
 --------------------------------------------------------------------------------
 ! R1    R(1,2)                  1.5312         calculate D2E/DX2 analytically  !
 ! R2    R(1,6)                  1.7753         calculate D2E/DX2 analytically  !
 ! R3    R(1,7)                  1.0906         calculate D2E/DX2 analytically  !
 ! R4    R(1,8)                  1.0907         calculate D2E/DX2 analytically  !
 ! R5    R(2,3)                  1.7756         calculate D2E/DX2 analytically  !
 ! R6    R(2,4)                  1.787          calculate D2E/DX2 analytically  !
 ! R7    R(2,5)                  1.7756         calculate D2E/DX2 analytically  !
 ! A1    A(2,1,6)              113.2388         calculate D2E/DX2 analytically  !
 ! A2    A(2,1,7)              108.4574         calculate D2E/DX2 analytically  !
 ! A3    A(2,1,8)              108.4569         calculate D2E/DX2 analytically  !
 ! A4    A(6,1,7)              108.2378         calculate D2E/DX2 analytically  !
 ! A5    A(6,1,8)              108.2161         calculate D2E/DX2 analytically  !
 ! A6    A(7,1,8)              110.2259         calculate D2E/DX2 analytically  !
 ! A7    A(1,2,3)              110.8387         calculate D2E/DX2 analytically  !
 ! A8    A(1,2,4)              106.3097         calculate D2E/DX2 analytically  !
 ! A9    A(1,2,5)              110.8137         calculate D2E/DX2 analytically  !
 ! A10   A(3,2,4)              109.3938         calculate D2E/DX2 analytically  !
 ! A11   A(3,2,5)              110.0251         calculate D2E/DX2 analytically  !
 ! A12   A(4,2,5)              109.3767         calculate D2E/DX2 analytically  !
 ! D1    D(6,1,2,3)             61.278          calculate D2E/DX2 analytically  !
 ! D2    D(6,1,2,4)           -179.9337         calculate D2E/DX2 analytically  !
 ! D3    D(6,1,2,5)            -61.1795         calculate D2E/DX2 analytically  !
 ! D4    D(7,1,2,3)            -58.88           calculate D2E/DX2 analytically  !
 ! D5    D(7,1,2,4)             59.9082         calculate D2E/DX2 analytically  !
 ! D6    D(7,1,2,5)            178.6625         calculate D2E/DX2 analytically  !
 ! D7    D(8,1,2,3)           -178.5917         calculate D2E/DX2 analytically  !
 ! D8    D(8,1,2,4)            -59.8034         calculate D2E/DX2 analytically  !
[...]
     6  17     0.01   0.00   0.00     0.28   0.00  -0.07     0.00  -0.01   0.00
     7   1     0.03  -0.52  -0.31     0.38  -0.01   0.18    -0.05  -0.52  -0.41
     8   1    -0.02  -0.52   0.30     0.38   0.01   0.18     0.05  -0.52   0.41
                      7                      8                      9
                      A                      A                      A
 Frequencies --    389.2254               557.5679               735.4296
 Red. masses --     20.4104                 8.2215                 4.0295
 Frc consts  --      1.8218                 1.5059                 1.2841
 IR Inten    --      1.9843                19.4660                94.0655
  Atom  AN      X      Y      Z        X      Y      Z        X      Y      Z
     1   6     0.10   0.00   0.36     0.21   0.00   0.46     0.00   0.14   0.00
     2   6     0.29   0.00   0.20     0.17   0.00   0.27     0.00   0.44   0.00
     3  17    -0.16   0.19   0.07    -0.02  -0.16  -0.14     0.00  -0.08  -0.05
     4  17     0.42   0.00  -0.34    -0.08   0.00   0.03     0.00  -0.01   0.00
     5  17    -0.16  -0.19   0.07    -0.02   0.16  -0.14     0.00  -0.08   0.05
     6  17    -0.24   0.00  -0.01    -0.02   0.00  -0.03     0.00  -0.01   0.00
     7   1     0.06  -0.01   0.35     0.26  -0.01   0.45    -0.17  -0.22  -0.55
     8   1     0.06   0.01   0.35     0.26   0.02   0.45     0.17  -0.21   0.55
                     10                     11                     12
                      A                      A                      A
 Frequencies --    787.3524               850.7435               990.7601
 Red. masses --     10.7565                 6.8256                 1.7642
 Frc consts  --      3.9288                 2.9106                 1.0203
 IR Inten    --    137.0724                39.6625                57.6589
  Atom  AN      X      Y      Z        X      Y      Z        X      Y      Z
     1   6     0.47   0.00  -0.27     0.32   0.00  -0.30     0.00   0.19   0.00
     2   6     0.56   0.00  -0.25    -0.36   0.00   0.38     0.00  -0.17   0.00
     3  17    -0.02   0.02   0.02     0.02  -0.02  -0.02     0.00   0.01   0.00
     4  17    -0.14   0.00   0.06     0.04   0.00  -0.04     0.00   0.01   0.00
     5  17    -0.02  -0.02   0.02     0.02   0.02  -0.02     0.00   0.01   0.00
     6  17    -0.19   0.00   0.09    -0.09   0.00   0.07     0.00  -0.02   0.00
     7   1     0.26   0.03  -0.26     0.47   0.06  -0.19     0.28  -0.23  -0.58
     8   1     0.26  -0.04  -0.25     0.46  -0.06  -0.19    -0.28  -0.23   0.58
                     13                     14                     15
                      A                      A                      A
 Frequencies --   1084.6148              1249.6141              1343.5228
 Red. masses --      6.6269                 1.0918                 1.2310
 Frc consts  --      4.5932                 1.0045                 1.3092
 IR Inten    --     10.5875                11.4567                11.6997
  Atom  AN      X      Y      Z        X      Y      Z        X      Y      Z
     1   6    -0.30   0.00  -0.26     0.00  -0.03   0.00     0.13   0.00   0.02
     2   6     0.37   0.00   0.46     0.00   0.08   0.00    -0.04   0.00   0.01
     3  17     0.00  -0.02  -0.02     0.00   0.00   0.00     0.00   0.00   0.00
     4  17    -0.01   0.00   0.00     0.00   0.00   0.00     0.00   0.00   0.00
     5  17     0.00   0.02  -0.02     0.00   0.00   0.00     0.00   0.00   0.00
     6  17     0.03   0.00  -0.01     0.00  -0.01   0.00     0.00   0.00  -0.01
     7   1    -0.42   0.02  -0.26     0.69   0.00   0.14    -0.70   0.03  -0.04
     8   1    -0.42  -0.02  -0.26    -0.69   0.00  -0.14    -0.70  -0.03  -0.04
                     16                     17                     18
                      A                      A                      A
 Frequencies --   1478.8403              3152.1967              3222.3799
 Red. masses --      1.0812                 1.0571                 1.1119
 Frc consts  --      1.3932                 6.1885                 6.8024
 IR Inten    --      7.0711                 4.3307                 0.5283
  Atom  AN      X      Y      Z        X      Y      Z        X      Y      Z
     1   6     0.00   0.00  -0.08    -0.01   0.00   0.07     0.00   0.10   0.00
     2   6     0.00   0.00  -0.01     0.00   0.00   0.00     0.00   0.00   0.00
     3  17     0.00   0.00   0.00     0.00   0.00   0.00     0.00   0.00   0.00
     4  17     0.00   0.00   0.00     0.00   0.00   0.00     0.00   0.00   0.00
     5  17     0.00   0.00   0.00     0.00   0.00   0.00     0.00   0.00   0.00
     6  17     0.00   0.00   0.00     0.00   0.00   0.00     0.00   0.00   0.00
     7   1    -0.04   0.43   0.56     0.05   0.59  -0.39    -0.05  -0.58   0.40
     8   1    -0.04  -0.43   0.56     0.05  -0.59  -0.39     0.05  -0.58  -0.40

 -------------------
 - Thermochemistry -
 -------------------
 Temperature   298.150 Kelvin.  Pressure   1.00000 Atm.
 Atom     1 has atomic number  6 and mass  12.00000
 Atom     2 has atomic number  6 and mass  12.00000
 Atom     3 has atomic number 17 and mass  34.96885
 Atom     4 has atomic number 17 and mass  34.96885
 Atom     5 has atomic number 17 and mass  34.96885
 Atom     6 has atomic number 17 and mass  34.96885
 Atom     7 has atomic number  1 and mass   1.00783
 Atom     8 has atomic number  1 and mass   1.00783
 Molecular mass:   165.89106 amu.
 Principal axes and moments of inertia in atomic units:
                           1         2         3
     Eigenvalues --   972.419651649.801731745.94025
           X            0.99993   0.00002   0.01187
           Y           -0.00002   1.00000   0.00029
           Z           -0.01187  -0.00029   0.99993
 This molecule is an asymmetric top.
 Rotational symmetry number  1.
 Warning -- assumption of classical behavior for rotation
           may cause significant error
 Rotational temperatures (Kelvin)      0.08907     0.05250     0.04961
 Rotational constants (GHZ):           1.85593     1.09391     1.03368
 Zero-point vibrational energy     103096.3 (Joules/Mol)
                                   24.64061 (Kcal/Mol)
 Warning -- explicit consideration of   8 degrees of freedom as
           vibrations may cause significant error
 Vibrational temperatures:    148.36   218.22   348.02   351.94   449.87
          (Kelvin)            489.40   560.01   802.21  1058.12  1132.82
                             1224.03  1425.48  1560.52  1797.91  1933.03
                             2127.72  4535.30  4636.28
 
 Zero-point correction=                           0.039267 (Hartree/Particle)
 Thermal correction to Energy=                    0.046082
 Thermal correction to Enthalpy=                  0.047026
 Thermal correction to Gibbs Free Energy=         0.006533
 Sum of electronic and zero-point Energies=          -1917.990234
 Sum of electronic and thermal Energies=             -1917.983420
 Sum of electronic and thermal Enthalpies=           -1917.982475
 Sum of electronic and thermal Free Energies=        -1918.022969
 
                     E (Thermal)             CV                S
                      KCal/Mol        Cal/Mol-Kelvin    Cal/Mol-Kelvin
 Total                   28.917             22.288             85.226
 Electronic               0.000              0.000              0.000
 Translational            0.889              2.981             41.227
 Rotational               0.889              2.981             29.417
 Vibrational             27.140             16.326             14.582
 Vibration     1          0.605              1.947              3.395
 Vibration     2          0.619              1.901              2.651
 Vibration     3          0.658              1.776              1.789
 Vibration     4          0.660              1.772              1.769
 Vibration     5          0.701              1.650              1.348
 Vibration     6          0.720              1.595              1.211
 Vibration     7          0.757              1.493              1.003
 Vibration     8          0.913              1.123              0.529
                       Q            Log10(Q)             Ln(Q)
 Total Bot       0.988945D-03         -3.004828         -6.918872
 Total V=0       0.113984D+16         15.056845         34.669666
 Vib (Bot)       0.196552D-16        -16.706521        -38.468187
 Vib (Bot)    1  0.198901D+01          0.298638          0.687639
 Vib (Bot)    2  0.133623D+01          0.125881          0.289852
 Vib (Bot)    3  0.809939D+00         -0.091548         -0.210796
 Vib (Bot)    4  0.799906D+00         -0.096961         -0.223261
 Vib (Bot)    5  0.603818D+00         -0.219094         -0.504482
 Vib (Bot)    6  0.545839D+00         -0.262936         -0.605431
 Vib (Bot)    7  0.461508D+00         -0.335821         -0.773256
 Vib (Bot)    8  0.279411D+00         -0.553757         -1.275073
 Vib (V=0)       0.226543D+02          1.355151          3.120350
 Vib (V=0)    1  0.255090D+01          0.406693          0.936445
 Vib (V=0)    2  0.192671D+01          0.284817          0.655815
 Vib (V=0)    3  0.145184D+01          0.161919          0.372832
 Vib (V=0)    4  0.144332D+01          0.159362          0.366945
 Vib (V=0)    5  0.128396D+01          0.108552          0.249951
 Vib (V=0)    6  0.124023D+01          0.093502          0.215297
 Vib (V=0)    7  0.118043D+01          0.072041          0.165882
 Vib (V=0)    8  0.107277D+01          0.030508          0.070248
 Electronic      0.100000D+01          0.000000          0.000000
 Translational   0.839827D+08          7.924190         18.246121
 Rotational      0.599106D+06          5.777504         13.303194
 ***** Axes restored to original set *****
 -------------------------------------------------------------------
 Center     Atomic                   Forces (Hartrees/Bohr)
 Number     Number              X              Y              Z
 -------------------------------------------------------------------
      1        6           0.000049939    0.000060413   -0.000215433
      2        6          -0.000049711    0.000027129    0.000171004
      3       17          -0.000009075   -0.000074446    0.000066442
      4       17           0.000101082    0.000120373    0.000045631
      5       17          -0.000061518    0.000040103    0.000020772
      6       17           0.000039294    0.000007640    0.000051347
      7        1          -0.000061187   -0.000076962   -0.000057899
      8        1          -0.000008823   -0.000104250   -0.000081864
 -------------------------------------------------------------------
 Cartesian Forces:  Max     0.000215433 RMS     0.000082301
 FormGI is forming the generalized inverse of G from B-inverse, IUseBI=4.

 GradGradGradGradGradGradGradGradGradGradGradGradGradGradGradGradGradGrad
 Berny optimization.
 Internal  Forces:  Max     0.000256022 RMS     0.000077176
 Search for a local minimum.
 Step number   1 out of a maximum of    2
 All quantities printed in internal units (Hartrees-Bohrs-Radians)
 Second derivative matrix not updated -- analytic derivatives used.
 ITU=  0
     Eigenvalues ---    0.00582   0.04819   0.06363   0.08035   0.08288
     Eigenvalues ---    0.13378   0.14893   0.18275   0.18934   0.20420
     Eigenvalues ---    0.22079   0.24949   0.27344   0.27983   0.30960
     Eigenvalues ---    0.35847   0.36137   0.37612
 Angle between quadratic step and forces=  51.99 degrees.
 Linear search not attempted -- first point.
 Iteration  1 RMS(Cart)=  0.00075907 RMS(Int)=  0.00000024
 Iteration  2 RMS(Cart)=  0.00000024 RMS(Int)=  0.00000003
 Variable       Old X    -DE/DX   Delta X   Delta X   Delta X     New X
                                 (Linear)    (Quad)   (Total)
    R1        2.89355  -0.00026   0.00000  -0.00088  -0.00088   2.89267
    R2        3.35488   0.00008   0.00000   0.00027   0.00027   3.35515
    R3        2.06103   0.00002   0.00000   0.00007   0.00007   2.06110
    R4        2.06105   0.00000   0.00000   0.00005   0.00005   2.06109
    R5        3.35547  -0.00003   0.00000  -0.00005  -0.00005   3.35543
    R6        3.37693  -0.00012   0.00000  -0.00032  -0.00032   3.37662
    R7        3.35531   0.00005   0.00000   0.00010   0.00010   3.35541
    A1        1.97639  -0.00011   0.00000  -0.00032  -0.00032   1.97607
    A2        1.89294   0.00001   0.00000   0.00007   0.00007   1.89301
    A3        1.89293  -0.00001   0.00000   0.00010   0.00010   1.89303
    A4        1.88911   0.00005   0.00000   0.00026   0.00026   1.88936
    A5        1.88873   0.00010   0.00000   0.00068   0.00068   1.88941
    A6        1.92381  -0.00004   0.00000  -0.00083  -0.00083   1.92298
    A7        1.93450  -0.00012   0.00000  -0.00030  -0.00030   1.93420
    A8        1.85545  -0.00002   0.00000  -0.00007  -0.00007   1.85538
    A9        1.93406   0.00002   0.00000   0.00019   0.00019   1.93425
   A10        1.90928  -0.00001   0.00000  -0.00048  -0.00048   1.90880
   A11        1.92030   0.00012   0.00000   0.00074   0.00074   1.92104
   A12        1.90898   0.00000   0.00000  -0.00012  -0.00012   1.90886
    D1        1.06950   0.00004   0.00000  -0.00040  -0.00040   1.06910
    D2       -3.14044  -0.00005   0.00000  -0.00119  -0.00119   3.14156
    D3       -1.06778  -0.00005   0.00000  -0.00127  -0.00127  -1.06905
    D4       -1.02765   0.00004   0.00000  -0.00057  -0.00057  -1.02822
    D5        1.04560  -0.00005   0.00000  -0.00136  -0.00136   1.04424
    D6        3.11825  -0.00005   0.00000  -0.00144  -0.00144   3.11681
    D7       -3.11701   0.00008   0.00000   0.00033   0.00033  -3.11668
    D8       -1.04377  -0.00001   0.00000  -0.00046  -0.00046  -1.04422
    D9        1.02889  -0.00001   0.00000  -0.00054  -0.00054   1.02835
         Item               Value     Threshold  Converged?
 Maximum Force            0.000256     0.000450     YES
 RMS     Force            0.000077     0.000300     YES
 Maximum Displacement     0.002130     0.001800     NO 
 RMS     Displacement     0.000759     0.001200     YES
 Predicted change in Energy=-4.217873D-07
 GradGradGradGradGradGradGradGradGradGradGradGradGradGradGradGradGradGrad

 1\1\GINC-KATANA2\Freq\RM062X\6-31+G(d)\C2H2Cl4\Z5358697\14-Mar-2025\0\
 \#N Geom=AllCheck Guess=TCheck SCRF=Check GenChk RM062X/6-31+G(d) Freq
 \\1,1,1,2-tetrachloroethane\\0,1\C,-0.223794365,-0.3185915979,0.715342
 0386\C,0.1531169743,0.1902697482,-0.6787778243\Cl,1.9133514565,0.36582
 72545,-0.8325782745\Cl,-0.4235649221,-1.0431870619,-1.836092017\Cl,-0.
 6446626657,1.7388899934,-1.022151272\Cl,0.2681227545,0.7813325175,2.01
 91704046\H,0.2662847409,-1.2795381362,0.8763403327\H,-1.3072539733,-0.
 4359027176,0.7588466119\\Version=ES64L-G09RevD.01\State=1-A\HF=-1918.0
 295017\RMSD=1.177e-09\RMSF=8.230e-05\ZeroPoint=0.0392673\Thermal=0.046
 0822\Dipole=-0.2949365,-0.5347668,0.1129066\DipoleDeriv=-0.0413371,0.0
 955962,0.138887,0.0879795,0.1313277,0.3511859,0.0848236,0.2507404,0.58
 15986,1.2476976,-0.0966322,0.1158134,-0.0885929,1.1579735,0.1170457,0.
 1719325,0.2214681,0.593578,-0.6901943,-0.0300779,0.000949,-0.0354223,-
 0.1424735,0.0120948,0.035212,-0.0027781,-0.1238079,-0.215445,-0.138004
 1,-0.1066707,-0.143105,-0.448167,-0.2357822,-0.1437393,-0.3051062,-0.4
 196503,-0.2744712,0.2299232,-0.0220919,0.2354233,-0.5476139,0.0610565,
 -0.0537051,0.0809229,-0.1344397,-0.1124606,-0.0469941,-0.0792088,-0.04
 35154,-0.2022225,-0.1991525,-0.0544353,-0.1528113,-0.4610882,0.0762767
 ,0.0140357,-0.020096,0.016304,-0.0073458,-0.0521811,-0.0246955,-0.0407
 997,-0.0183182,0.0099339,-0.0278467,-0.027582,-0.0290712,0.0585215,-0.
 0542671,-0.0153928,-0.051636,-0.0178722\Polar=68.6779069,0.2922471,70.
 5535548,4.2514531,8.4887616,72.7801864\PG=C01 [X(C2H2Cl4)]\NImag=0\\0.
 59785886,-0.06047855,0.51173667,-0.00311664,-0.03987162,0.38627565,-0.
 07385071,-0.00680855,0.03147725,0.29153691,-0.00668750,-0.07399858,0.0
 4561400,0.00838677,0.29704880,0.03239089,0.04727533,-0.16215262,-0.022
 82390,-0.03328911,0.35176358,-0.02832250,-0.00473569,0.00349022,-0.124
 58493,-0.01344271,0.02131521,0.20995090,-0.01200035,0.00104677,0.00107
 198,-0.01030106,-0.03201705,0.00371550,0.01883429,0.03862187,0.0264968
 8,0.00329186,-0.00209379,0.00630798,0.00237473,-0.03492729,-0.01626803
 ,-0.00053348,0.03799193,0.00172416,-0.00194487,-0.00144212,-0.03871724
 ,-0.01866997,-0.02224186,-0.02589806,-0.02168851,-0.01724310,0.0544484
 5,-0.00320253,-0.00424079,-0.00677088,-0.01776408,-0.07059247,-0.04857
 758,-0.01780455,-0.00542459,-0.00767620,0.03665752,0.11710283,-0.01058
 846,-0.02381429,-0.02680972,-0.01574342,-0.03649769,-0.08060101,-0.010
 99687,-0.00563402,0.00005602,0.03644516,0.07842146,0.11192796,0.001305
 34,0.00370396,-0.00086127,-0.04794939,0.03788701,-0.01263822,-0.032407
 36,0.02491835,-0.00409088,0.00595710,0.00189885,0.00190253,0.07085262,
 0.01258786,-0.02522503,0.00642607,0.03368189,-0.10527734,0.02806486,0.
 01789164,-0.00410165,0.00127879,0.00514288,-0.03962918,-0.00930638,-0.
 06848623,0.17250045,-0.01223417,0.02589950,-0.00548749,-0.00522867,0.0
 1520561,-0.03867577,-0.00207892,0.00072033,0.00472242,0.00343321,-0.01
 605797,0.00237789,0.01672744,-0.03007207,0.04367575,-0.04719738,-0.024
 19490,-0.02721090,-0.00122860,0.00094061,-0.00075307,0.00046348,0.0013
 3233,0.00369974,0.00142547,0.00030408,0.00024213,0.00024787,-0.0000841
 7,-0.00124903,0.04252800,-0.02428631,-0.08972430,-0.05898488,-0.000429
 39,-0.00323914,-0.00469508,0.00037426,0.00089540,0.00062362,0.00036774
 ,0.00187927,-0.00060131,0.00057475,0.00161585,0.00331586,0.03856588,0.
 11065477,-0.02781486,-0.06008367,-0.09533801,-0.01053227,-0.02292544,-
 0.02539403,0.00104200,-0.00053950,-0.00211227,0.00068513,0.00022593,-0
 .00631784,-0.00079637,0.00033120,-0.00265630,0.04337763,0.09797034,0.1
 4795910,-0.11309661,0.11988548,-0.01986370,0.00337037,-0.00828566,0.00
 444072,0.00018264,-0.00062399,0.00020739,-0.00036982,-0.00038132,-0.00
 055329,0.00110982,-0.00127482,0.00113809,0.00440240,-0.01287621,-0.003
 07325,0.11475945,0.11848685,-0.26944689,0.04614269,0.00593861,-0.01049
 215,0.00358440,0.00010981,0.00069019,-0.00049909,-0.00080309,0.0013598
 5,-0.00141984,-0.00025950,0.00005919,0.00110060,0.00200018,-0.01451261
 ,-0.00655033,-0.12341889,0.28647929,-0.01587667,0.04074085,-0.05022636
 ,-0.01271762,0.02594950,-0.00645159,-0.00030848,-0.00065215,0.00036231
 ,-0.00006402,0.00028781,-0.00031793,0.00006182,0.00382073,-0.00426121,
 0.00405567,-0.02612883,-0.00710866,0.02340101,-0.04190156,0.06600618,-
 0.33842117,-0.02542688,0.01752716,-0.00857642,-0.00012855,0.00031022,0
 .00061583,-0.00047106,0.00089003,0.00142995,0.00029204,-0.00070778,0.0
 0088401,0.00054094,-0.00050795,-0.00064124,-0.00229074,-0.00288799,-0.
 01035824,-0.00205395,0.00144829,0.35506727,-0.02441947,-0.05014785,0.0
 0637264,-0.01270418,-0.00143206,0.00392168,-0.00122706,0.00028907,0.00
 113977,0.00093830,-0.00045492,-0.00114793,-0.00023719,0.00005772,-0.00
 011187,-0.01886401,-0.00756924,-0.00842854,0.02697541,0.00586314,-0.00
 211634,0.02953820,0.05339414,0.01074305,0.00656203,-0.04416767,0.02926
 064,0.00356840,-0.00356126,0.00380488,0.00185134,-0.00399933,0.0004276
 0,0.00014744,-0.00031538,-0.00030505,-0.00054321,0.00030472,-0.0221621
 6,-0.01149972,-0.00903198,-0.00569698,-0.00045686,0.00199726,-0.016071
 98,0.00037059,0.05877363\\-0.00004994,-0.00006041,0.00021543,0.0000497
 1,-0.00002713,-0.00017100,0.00000908,0.00007445,-0.00006644,-0.0001010
 8,-0.00012037,-0.00004563,0.00006152,-0.00004010,-0.00002077,-0.000039
 29,-0.00000764,-0.00005135,0.00006119,0.00007696,0.00005790,0.00000882
 ,0.00010425,0.00008186\\\@


 THERE IS NO CURE FOR BIRTH AND DEATH SAVE TO ENJOY THE INTERVAL.

                               -- GEORGE SANTAYANA
 Job cpu time:       0 days  0 hours  1 minutes 32.8 seconds.
 File lengths (MBytes):  RWF=    133 Int=      0 D2E=      0 Chk=      3 Scr=      2
 Normal termination of Gaussian 09 at Fri Mar 14 15:38:05 2025.
