 Entering Gaussian System, Link 0=g09
 Initial command:
 /apps/z_install_tree/linux-rocky8-ivybridge/gcc-12.2.0/gaussian-09-D.01-wczn3gur5lpur3omlkzwa2l5ecyxp5ef/g09/l1.exe "/srv/scratch/z5358697/gauss/Gau-3231879.inp" -scrdir="/srv/scratch/z5358697/gauss/"
 Entering Link 1 = /apps/z_install_tree/linux-rocky8-ivybridge/gcc-12.2.0/gaussian-09-D.01-wczn3gur5lpur3omlkzwa2l5ecyxp5ef/g09/l1.exe PID=   3231881.
  
 Copyright (c) 1988,1990,1992,1993,1995,1998,2003,2009,2013,
            Gaussian, Inc.  All Rights Reserved.
  
 This is part of the Gaussian(R) 09 program.  It is based on
 the Gaussian(R) 03 system (copyright 2003, Gaussian, Inc.),
 the Gaussian(R) 98 system (copyright 1998, Gaussian, Inc.),
 the Gaussian(R) 94 system (copyright 1995, Gaussian, Inc.),
 the Gaussian 92(TM) system (copyright 1992, Gaussian, Inc.),
 the Gaussian 90(TM) system (copyright 1990, Gaussian, Inc.),
 the Gaussian 88(TM) system (copyright 1988, Gaussian, Inc.),
 the Gaussian 86(TM) system (copyright 1986, Carnegie Mellon
 University), and the Gaussian 82(TM) system (copyright 1983,
 Carnegie Mellon University). Gaussian is a federally registered
 trademark of Gaussian, Inc.
  
 This software contains proprietary and confidential information,
 including trade secrets, belonging to Gaussian, Inc.
  
 This software is provided under written license and may be
 used, copied, transmitted, or stored only in accord with that
 written license.
  
 The following legend is applicable only to US Government
 contracts under FAR:
  
                    RESTRICTED RIGHTS LEGEND
  
 Use, reproduction and disclosure by the US Government is
 subject to restrictions as set forth in subparagraphs (a)
 and (c) of the Commercial Computer Software - Restricted
 Rights clause in FAR 52.227-19.
  
 Gaussian, Inc.
 340 Quinnipiac St., Bldg. 40, Wallingford CT 06492
  
  
 ---------------------------------------------------------------
 Warning -- This program may not be used in any manner that
 competes with the business of Gaussian, Inc. or will provide
 assistance to any competitor of Gaussian, Inc.  The licensee
 of this program is prohibited from giving any competitor of
 Gaussian, Inc. access to this program.  By using this program,
 the user acknowledges that Gaussian, Inc. is engaged in the
 business of creating and licensing software in the field of
 computational chemistry and represents and warrants to the
 licensee that it is not a competitor of Gaussian, Inc. and that
 it will not use this program in any manner prohibited above.
 ---------------------------------------------------------------
  

 Cite this work as:
 Gaussian 09, Revision D.01,
 M. J. Frisch, G. W. Trucks, H. B. Schlegel, G. E. Scuseria, 
 M. A. Robb, J. R. Cheeseman, G. Scalmani, V. Barone, B. Mennucci, 
 G. A. Petersson, H. Nakatsuji, M. Caricato, X. Li, H. P. Hratchian, 
 A. F. Izmaylov, J. Bloino, G. Zheng, J. L. Sonnenberg, M. Hada, 
 M. Ehara, K. Toyota, R. Fukuda, J. Hasegawa, M. Ishida, T. Nakajima, 
 Y. Honda, O. Kitao, H. Nakai, T. Vreven, J. A. Montgomery, Jr., 
 J. E. Peralta, F. Ogliaro, M. Bearpark, J. J. Heyd, E. Brothers, 
 K. N. Kudin, V. N. Staroverov, T. Keith, R. Kobayashi, J. Normand, 
 K. Raghavachari, A. Rendell, J. C. Burant, S. S. Iyengar, J. Tomasi, 
 M. Cossi, N. Rega, J. M. Millam, M. Klene, J. E. Knox, J. B. Cross, 
 V. Bakken, C. Adamo, J. Jaramillo, R. Gomperts, R. E. Stratmann, 
 O. Yazyev, A. J. Austin, R. Cammi, C. Pomelli, J. W. Ochterski, 
 R. L. Martin, K. Morokuma, V. G. Zakrzewski, G. A. Voth, 
 P. Salvador, J. J. Dannenberg, S. Dapprich, A. D. Daniels, 
 O. Farkas, J. B. Foresman, J. V. Ortiz, J. Cioslowski, 
 and D. J. Fox, Gaussian, Inc., Wallingford CT, 2013.
 
 ******************************************
 Gaussian 09:  ES64L-G09RevD.01 24-Apr-2013
                18-Mar-2025 
 ******************************************
 ---------------------------------
 #m062X/6-31+G(d) OPT Freq=noraman
 ---------------------------------
 1/14=-1,18=20,19=15,26=3,38=1/1,3;
 2/9=110,12=2,17=6,18=5,40=1/2;
 3/5=1,6=6,7=11,11=2,16=1,25=1,30=1,71=1,74=-55/1,2,3;
 4//1;
 5/5=2,38=5/2;
 6/7=2,8=2,9=2,10=2,28=1/1;
 7//1,2,3,16;
 1/14=-1,18=20,19=15,26=3/3(2);
 2/9=110/2;
 99//99;
 2/9=110/2;
 3/5=1,6=6,7=11,11=2,16=1,25=1,30=1,71=1,74=-55/1,2,3;
 4/5=5,16=3,69=1/1;
 5/5=2,38=5/2;
 7//1,2,3,16;
 1/14=-1,18=20,19=15,26=3/3(-5);
 2/9=110/2;
 6/7=2,8=2,9=2,10=2,19=2,28=1/1;
 99/9=1/99;
 ------------
 nitromethane
 ------------
 Symbolic Z-matrix:
 Charge = -1 Multiplicity = 2
 C                    -0.525    -0.7555    0.5873 
 N                    -1.8333   -0.9731   -0.0158 
 O                    -2.4132   -2.0586    0.208 
 O                    -2.3095   -0.0741   -0.7435 
 H                     0.234    -1.1194   -0.1073 
 H                    -0.4863   -1.309     1.5273 
 H                    -0.4051    0.3147    0.765 
 

 GradGradGradGradGradGradGradGradGradGradGradGradGradGradGradGradGradGrad
 Berny optimization.
 Initialization pass.
                           ----------------------------
                           !    Initial Parameters    !
                           ! (Angstroms and Degrees)  !
 --------------------------                            --------------------------
 ! Name  Definition              Value          Derivative Info.                !
 --------------------------------------------------------------------------------
 ! R1    R(1,2)                  1.457          estimate D2E/DX2                !
 ! R2    R(1,5)                  1.0913         estimate D2E/DX2                !
 ! R3    R(1,6)                  1.0915         estimate D2E/DX2                !
 ! R4    R(1,7)                  1.0915         estimate D2E/DX2                !
 ! R5    R(2,3)                  1.2509         estimate D2E/DX2                !
 ! R6    R(2,4)                  1.2508         estimate D2E/DX2                !
 ! A1    A(2,1,5)              108.1351         estimate D2E/DX2                !
 ! A2    A(2,1,6)              108.2147         estimate D2E/DX2                !
 ! A3    A(2,1,7)              108.2089         estimate D2E/DX2                !
 ! A4    A(5,1,6)              110.7549         estimate D2E/DX2                !
 ! A5    A(5,1,7)              110.7431         estimate D2E/DX2                !
 ! A6    A(6,1,7)              110.6773         estimate D2E/DX2                !
 ! A7    A(1,2,3)              118.1538         estimate D2E/DX2                !
 ! A8    A(1,2,4)              118.3822         estimate D2E/DX2                !
 ! A9    A(3,2,4)              123.4568         estimate D2E/DX2                !
 ! D1    D(5,1,2,3)             90.0049         estimate D2E/DX2                !
 ! D2    D(5,1,2,4)            -89.054          estimate D2E/DX2                !
 ! D3    D(6,1,2,3)            -30.0178         estimate D2E/DX2                !
 ! D4    D(6,1,2,4)            150.9233         estimate D2E/DX2                !
 ! D5    D(7,1,2,3)           -149.9897         estimate D2E/DX2                !
 ! D6    D(7,1,2,4)             30.9514         estimate D2E/DX2                !
 --------------------------------------------------------------------------------
 Trust Radius=3.00D-01 FncErr=1.00D-07 GrdErr=1.00D-06
 Number of steps in this run=     31 maximum allowed number of steps=    100.
 GradGradGradGradGradGradGradGradGradGradGradGradGradGradGradGradGradGrad

                          Input orientation:                          
 ---------------------------------------------------------------------
 Center     Atomic      Atomic             Coordinates (Angstroms)
 Number     Number       Type             X           Y           Z
 ---------------------------------------------------------------------
      1          6           0       -0.525000   -0.755500    0.587300
      2          7           0       -1.833300   -0.973100   -0.015800
      3          8           0       -2.413200   -2.058600    0.208000
      4          8           0       -2.309500   -0.074100   -0.743500
      5          1           0        0.234000   -1.119400   -0.107300
      6          1           0       -0.486300   -1.309000    1.527300
      7          1           0       -0.405100    0.314700    0.765000
 ---------------------------------------------------------------------
                    Distance matrix (angstroms):
                    1          2          3          4          5
     1  C    0.000000
     2  N    1.456959   0.000000
     3  O    2.325347   1.250872   0.000000
     4  O    2.328041   1.250806   2.203258   0.000000
     5  H    1.091317   2.074489   2.826514   2.822551   0.000000
     6  H    1.091540   2.075667   2.452630   3.163158   1.796301
     7  H    1.091458   2.075532   3.158365   2.460381   1.796107
                    6          7
     6  H    0.000000
     7  H    1.795577   0.000000
 Stoichiometry    CH3NO2(1-,2)
 Framework group  C1[X(CH3NO2)]
 Deg. of freedom    15
 Full point group                 C1      NOp   1
 Largest Abelian subgroup         C1      NOp   1
 Largest concise Abelian subgroup C1      NOp   1
                         Standard orientation:                         
 ---------------------------------------------------------------------
 Center     Atomic      Atomic             Coordinates (Angstroms)
 Number     Number       Type             X           Y           Z
 ---------------------------------------------------------------------
      1          6           0        1.311445   -0.005581    0.001010
      2          7           0       -0.145490   -0.000049   -0.005132
      3          8           0       -0.731543    1.105021    0.001428
      4          8           0       -0.744269   -1.098200    0.001407
      5          1           0        1.646716   -0.015453    1.039504
      6          1           0        1.658213    0.895107   -0.508865
      7          1           0        1.651325   -0.900397   -0.523458
 ---------------------------------------------------------------------
 Rotational constants (GHZ):     12.0119279     10.5641997      5.8318289
 Standard basis: 6-31+G(d) (6D, 7F)
 There are    82 symmetry adapted cartesian basis functions of A   symmetry.
 There are    82 symmetry adapted basis functions of A   symmetry.
    82 basis functions,   140 primitive gaussians,    82 cartesian basis functions
    17 alpha electrons       16 beta electrons
       nuclear repulsion energy       123.9317484762 Hartrees.
 NAtoms=    7 NActive=    7 NUniq=    7 SFac= 1.00D+00 NAtFMM=   60 NAOKFM=F Big=F
 Integral buffers will be    131072 words long.
 Raffenetti 2 integral format.
 Two-electron integral symmetry is turned on.
 One-electron integrals computed using PRISM.
 NBasis=    82 RedAO= T EigKep=  6.61D-04  NBF=    82
 NBsUse=    82 1.00D-06 EigRej= -1.00D+00 NBFU=    82
 ExpMin= 4.38D-02 ExpMax= 5.48D+03 ExpMxC= 8.25D+02 IAcc=2 IRadAn=         4 AccDes= 0.00D+00
 Harris functional with IExCor= 1009 and IRadAn=       4 diagonalized for initial guess.
 HarFok:  IExCor= 1009 AccDes= 0.00D+00 IRadAn=         4 IDoV= 1 UseB2=F ITyADJ=14
 ICtDFT=  3500011 ScaDFX=  1.000000  1.000000  1.000000  1.000000
 FoFCou: FMM=F IPFlag=           0 FMFlag=      100000 FMFlg1=           0
         NFxFlg=           0 DoJE=T BraDBF=F KetDBF=T FulRan=T
         wScrn=  0.000000 ICntrl=     500 IOpCl=  0 I1Cent=   200000004 NGrid=           0
         NMat0=    1 NMatS0=      1 NMatT0=    0 NMatD0=    1 NMtDS0=    0 NMtDT0=    0
 Petite list used in FoFCou.
 Initial guess <Sx>= 0.0000 <Sy>= 0.0000 <Sz>= 0.5000 <S**2>= 0.7500 S= 0.5000
 Keep R1 and R2 ints in memory in canonical form, NReq=12526642.
 Requested convergence on RMS density matrix=1.00D-08 within 128 cycles.
 Requested convergence on MAX density matrix=1.00D-06.
 Requested convergence on             energy=1.00D-06.
 No special actions if energy rises.
 SCF Done:  E(UM062X) =  -244.910599087     A.U. after   15 cycles
            NFock= 15  Conv=0.52D-08     -V/T= 2.0068
 <Sx>= 0.0000 <Sy>= 0.0000 <Sz>= 0.5000 <S**2>= 0.7553 S= 0.5027
 <L.S>= 0.000000000000E+00
 Annihilation of the first spin contaminant:
 S**2 before annihilation     0.7553,   after     0.7500

 **********************************************************************

            Population analysis using the SCF density.

 **********************************************************************

 Orbital symmetries:
 Alpha Orbitals:
       Occupied  (A) (A) (A) (A) (A) (A) (A) (A) (A) (A) (A) (A)
                 (A) (A) (A) (A) (A)
       Virtual   (A) (A) (A) (A) (A) (A) (A) (A) (A) (A) (A) (A)
                 (A) (A) (A) (A) (A) (A) (A) (A) (A) (A) (A) (A)
                 (A) (A) (A) (A) (A) (A) (A) (A) (A) (A) (A) (A)
                 (A) (A) (A) (A) (A) (A) (A) (A) (A) (A) (A) (A)
                 (A) (A) (A) (A) (A) (A) (A) (A) (A) (A) (A) (A)
                 (A) (A) (A) (A) (A)
 Beta  Orbitals:
       Occupied  (A) (A) (A) (A) (A) (A) (A) (A) (A) (A) (A) (A)
                 (A) (A) (A) (A)
       Virtual   (A) (A) (A) (A) (A) (A) (A) (A) (A) (A) (A) (A)
                 (A) (A) (A) (A) (A) (A) (A) (A) (A) (A) (A) (A)
                 (A) (A) (A) (A) (A) (A) (A) (A) (A) (A) (A) (A)
                 (A) (A) (A) (A) (A) (A) (A) (A) (A) (A) (A) (A)
                 (A) (A) (A) (A) (A) (A) (A) (A) (A) (A) (A) (A)
                 (A) (A) (A) (A) (A) (A)
 The electronic state is 2-A.
 Alpha  occ. eigenvalues --  -19.38736 -19.38721 -14.66712 -10.39994  -1.05645
 Alpha  occ. eigenvalues --   -0.87760  -0.68545  -0.47895  -0.38478  -0.35616
 Alpha  occ. eigenvalues --   -0.34674  -0.28431  -0.27583  -0.14451  -0.12122
 Alpha  occ. eigenvalues --   -0.09987   0.03545
 Alpha virt. eigenvalues --    0.16707   0.19530   0.20273   0.21452   0.29531
 Alpha virt. eigenvalues --    0.29837   0.34363   0.36539   0.37434   0.39950
 Alpha virt. eigenvalues --    0.41556   0.43577   0.44857   0.44894   0.46560
 Alpha virt. eigenvalues --    0.47601   0.47705   0.55164   0.58689   0.62974
 Alpha virt. eigenvalues --    0.65473   0.71845   0.84952   0.89344   0.89580
 Alpha virt. eigenvalues --    1.10060   1.10452   1.20624   1.25901   1.27510
 Alpha virt. eigenvalues --    1.30117   1.37763   1.47881   1.49059   1.51547
 Alpha virt. eigenvalues --    1.53084   1.54441   1.58777   1.62802   1.66581
 Alpha virt. eigenvalues --    1.73213   1.91931   2.00585   2.08650   2.11123
 Alpha virt. eigenvalues --    2.13339   2.13834   2.18074   2.25334   2.32648
 Alpha virt. eigenvalues --    2.36293   2.45375   2.46044   2.56406   2.73812
 Alpha virt. eigenvalues --    2.78924   2.97317   3.09857   3.22564   3.23374
 Alpha virt. eigenvalues --    3.35335   4.27109   4.49243   4.57107   4.74319
  Beta  occ. eigenvalues --  -19.38185 -19.38168 -14.65669 -10.40052  -1.03320
  Beta  occ. eigenvalues --   -0.85869  -0.67544  -0.45785  -0.35196  -0.34148
  Beta  occ. eigenvalues --   -0.33823  -0.27490  -0.24265  -0.11380  -0.09175
  Beta  occ. eigenvalues --   -0.07838
  Beta virt. eigenvalues --    0.15605   0.18352   0.18761   0.19248   0.27028
  Beta virt. eigenvalues --    0.28599   0.28661   0.34283   0.36460   0.37111
  Beta virt. eigenvalues --    0.40054   0.41479   0.42623   0.43889   0.44913
  Beta virt. eigenvalues --    0.46736   0.47007   0.47653   0.54354   0.58634
  Beta virt. eigenvalues --    0.63049   0.66875   0.72696   0.85209   0.88987
  Beta virt. eigenvalues --    0.89306   1.10451   1.12254   1.22855   1.25978
  Beta virt. eigenvalues --    1.27654   1.30127   1.37922   1.50178   1.50212
  Beta virt. eigenvalues --    1.52191   1.54381   1.55084   1.58918   1.62926
  Beta virt. eigenvalues --    1.67917   1.75340   1.92166   2.00556   2.09245
  Beta virt. eigenvalues --    2.11591   2.14116   2.14458   2.18213   2.25877
  Beta virt. eigenvalues --    2.33569   2.36777   2.45827   2.46160   2.56722
  Beta virt. eigenvalues --    2.74797   2.80194   2.98806   3.10619   3.23005
  Beta virt. eigenvalues --    3.23698   3.36226   4.28168   4.49145   4.57307
  Beta virt. eigenvalues --    4.73984
          Condensed to atoms (all electrons):
               1          2          3          4          5          6
     1  C    5.384220   0.157566  -0.076156  -0.075685   0.397551   0.390613
     2  N    0.157566   7.129525  -0.043313  -0.042768  -0.088744  -0.068245
     3  O   -0.076156  -0.043313   8.660074  -0.077338   0.010071   0.016765
     4  O   -0.075685  -0.042768  -0.077338   8.658044   0.010272   0.002819
     5  H    0.397551  -0.088744   0.010071   0.010272   0.592229  -0.041013
     6  H    0.390613  -0.068245   0.016765   0.002819  -0.041013   0.540801
     7  H    0.390527  -0.069518   0.003037   0.017209  -0.041319  -0.026164
               7
     1  C    0.390527
     2  N   -0.069518
     3  O    0.003037
     4  O    0.017209
     5  H   -0.041319
     6  H   -0.026164
     7  H    0.542769
          Atomic-Atomic Spin Densities.
               1          2          3          4          5          6
     1  C   -0.034112  -0.058513   0.035136   0.035211   0.009440   0.003315
     2  N   -0.058513   1.208614  -0.335057  -0.334922  -0.048600  -0.017056
     3  O    0.035136  -0.335057   0.457679   0.090263   0.010987   0.005747
     4  O    0.035211  -0.334922   0.090263   0.456712   0.011014   0.002215
     5  H    0.009440  -0.048600   0.010987   0.011014   0.091258  -0.012896
     6  H    0.003315  -0.017056   0.005747   0.002215  -0.012896   0.024753
     7  H    0.003514  -0.017885   0.002348   0.005939  -0.013182   0.007582
               7
     1  C    0.003514
     2  N   -0.017885
     3  O    0.002348
     4  O    0.005939
     5  H   -0.013182
     6  H    0.007582
     7  H    0.025898
 Mulliken charges and spin densities:
               1          2
     1  C   -0.568637  -0.006008
     2  N    0.025497   0.396580
     3  O   -0.493142   0.267101
     4  O   -0.492553   0.266431
     5  H    0.160953   0.048021
     6  H    0.184423   0.013660
     7  H    0.183457   0.014214
 Sum of Mulliken charges =  -1.00000   1.00000
 Mulliken charges and spin densities with hydrogens summed into heavy atoms:
               1          2
     1  C   -0.039803   0.069887
     2  N    0.025497   0.396580
     3  O   -0.493142   0.267101
     4  O   -0.492553   0.266431
 Electronic spatial extent (au):  <R**2>=            248.4261
 Charge=             -1.0000 electrons
 Dipole moment (field-independent basis, Debye):
    X=              4.5418    Y=             -0.0176    Z=             -0.1728  Tot=              4.5451
 Quadrupole moment (field-independent basis, Debye-Ang):
   XX=            -31.3371   YY=            -35.7805   ZZ=            -26.8087
   XY=             -0.0166   XZ=             -0.3001   YZ=             -0.0003
 Traceless Quadrupole moment (field-independent basis, Debye-Ang):
   XX=             -0.0283   YY=             -4.4718   ZZ=              4.5001
   XY=             -0.0166   XZ=             -0.3001   YZ=             -0.0003
 Octapole moment (field-independent basis, Debye-Ang**2):
  XXX=             -2.2962  YYY=             -0.0457  ZZZ=             -0.3003  XYY=              5.3163
  XXY=              0.0885  XXZ=             -0.8072  XZZ=             -1.1381  YZZ=             -0.0015
  YYZ=             -0.7271  XYZ=             -0.0012
 Hexadecapole moment (field-independent basis, Debye-Ang**3):
 XXXX=           -188.5041 YYYY=           -148.2592 ZZZZ=            -39.7971 XXXY=              0.0758
 XXXZ=             -1.7266 YYYX=              0.0570 YYYZ=              0.0077 ZZZX=             -0.4423
 ZZZY=              0.0009 XXYY=            -55.4848 XXZZ=            -37.9846 YYZZ=            -31.2950
 XXYZ=             -0.0054 YYXZ=             -1.1129 ZZXY=             -0.0028
 N-N= 1.239317484762D+02 E-N=-8.310766839216D+02  KE= 2.432487917070D+02
                          Isotropic Fermi Contact Couplings
        Atom                 a.u.       MegaHertz       Gauss      10(-4) cm-1
     1  C(13)             -0.02683     -30.16721     -10.76441     -10.06270
     2  N(14)              0.13645      44.08872      15.73195      14.70641
     3  O(17)              0.06018     -36.47795     -13.01624     -12.16773
     4  O(17)              0.05990     -36.31116     -12.95672     -12.11210
     5  H(1)               0.01287      57.51668      20.52338      19.18550
     6  H(1)               0.00359      16.02789       5.71915       5.34633
     7  H(1)               0.00376      16.82662       6.00416       5.61276
 --------------------------------------------------------
       Center         ----  Spin Dipole Couplings  ----
                      3XX-RR        3YY-RR        3ZZ-RR
 --------------------------------------------------------
     1   Atom        0.022021     -0.008446     -0.013575
     2   Atom       -0.700420     -0.710791      1.411210
     3   Atom       -0.490656     -0.530895      1.021551
     4   Atom       -0.489351     -0.528487      1.017838
     5   Atom        0.014470     -0.008083     -0.006387
     6   Atom        0.014080     -0.006610     -0.007470
     7   Atom        0.013937     -0.006514     -0.007423
 --------------------------------------------------------
                        XY            XZ            YZ
 --------------------------------------------------------
     1   Atom       -0.000107     -0.001666      0.000004
     2   Atom       -0.000107      0.002851     -0.000041
     3   Atom        0.025130      0.034790      0.020396
     4   Atom       -0.025582      0.034443     -0.020538
     5   Atom       -0.000171      0.010084     -0.000055
     6   Atom        0.008782     -0.005070     -0.001113
     7   Atom       -0.008871     -0.005202      0.001160
 --------------------------------------------------------


 ---------------------------------------------------------------------------------
              Anisotropic Spin Dipole Couplings in Principal Axis System
 ---------------------------------------------------------------------------------

       Atom             a.u.   MegaHertz   Gauss  10(-4) cm-1        Axes

              Baa    -0.0137    -1.832    -0.654    -0.611  0.0466  0.0001  0.9989
     1 C(13)  Bbb    -0.0084    -1.133    -0.404    -0.378  0.0035  1.0000 -0.0003
              Bcc     0.0221     2.965     1.058     0.989  0.9989 -0.0035 -0.0466
 
              Baa    -0.7108   -27.414    -9.782    -9.144  0.0103  0.9999  0.0000
     2 N(14)  Bbb    -0.7004   -27.014    -9.639    -9.011  0.9999 -0.0103 -0.0014
              Bcc     1.4112    54.427    19.421    18.155  0.0013  0.0000  1.0000
 
              Baa    -0.5430    39.289    14.019    13.105 -0.4318  0.9020 -0.0022
     3 O(17)  Bbb    -0.4797    34.708    12.385    11.577  0.9017  0.4316 -0.0268
              Bcc     1.0226   -73.997   -26.404   -24.683  0.0232  0.0135  0.9996
 
              Baa    -0.5411    39.156    13.972    13.061  0.4418  0.8971  0.0021
     4 O(17)  Bbb    -0.4778    34.572    12.336    11.532  0.8968 -0.4416 -0.0267
              Bcc     1.0189   -73.728   -26.308   -24.593  0.0231 -0.0136  0.9996
 
              Baa    -0.0105    -5.584    -1.992    -1.863 -0.3750 -0.0056  0.9270
     5 H(1)   Bbb    -0.0081    -4.313    -1.539    -1.439  0.0041  1.0000  0.0077
              Bcc     0.0185     9.897     3.532     3.301  0.9270 -0.0067  0.3749
 
              Baa    -0.0101    -5.403    -1.928    -1.802 -0.3849  0.8400 -0.3825
     6 H(1)   Bbb    -0.0082    -4.377    -1.562    -1.460  0.0367  0.4280  0.9030
              Bcc     0.0183     9.780     3.490     3.262  0.9222  0.3335 -0.1956
 
              Baa    -0.0101    -5.411    -1.931    -1.805  0.3915  0.8313  0.3946
     7 H(1)   Bbb    -0.0082    -4.370    -1.559    -1.458  0.0338 -0.4415  0.8966
              Bcc     0.0183     9.781     3.490     3.263  0.9196 -0.3377 -0.2009
 

 ---------------------------------------------------------------------------------

 Calling FoFJK, ICntrl=      2127 FMM=F ISym2X=0 I1Cent= 0 IOpClX= 1 NMat=1 NMatS=1 NMatT=0.
 ***** Axes restored to original set *****
 -------------------------------------------------------------------
 Center     Atomic                   Forces (Hartrees/Bohr)
 Number     Number              X              Y              Z
 -------------------------------------------------------------------
      1        6          -0.017311360   -0.000855507   -0.004217740
      2        7           0.041996059    0.012049154    0.030897136
      3        8          -0.023862057   -0.057481948    0.012291361
      4        8          -0.017867070    0.047445311   -0.037696378
      5        1           0.011587159   -0.001265634   -0.001558414
      6        1           0.002545913   -0.002076942    0.001065375
      7        1           0.002911356    0.002185565   -0.000781339
 -------------------------------------------------------------------
 Cartesian Forces:  Max     0.057481948 RMS     0.023260155

 GradGradGradGradGradGradGradGradGradGradGradGradGradGradGradGradGradGrad
 Berny optimization.
 FormGI is forming the generalized inverse of G from B-inverse, IUseBI=4.
 Internal  Forces:  Max     0.063142308 RMS     0.019921895
 Search for a local minimum.
 Step number   1 out of a maximum of   31
 All quantities printed in internal units (Hartrees-Bohrs-Radians)
 Mixed Optimization -- RFO/linear search
 Second derivative matrix not updated -- first step.
 ITU=  0
     Eigenvalues ---    0.00938   0.00940   0.07875   0.07881   0.16000
     Eigenvalues ---    0.16000   0.16000   0.25000   0.25000   0.34635
     Eigenvalues ---    0.34645   0.34661   0.37348   0.82915   0.82940
 RFO step:  Lambda=-1.20284148D-02 EMin= 9.38327685D-03
 Linear search not attempted -- first point.
 Iteration  1 RMS(Cart)=  0.03905836 RMS(Int)=  0.00312550
 Iteration  2 RMS(Cart)=  0.00254943 RMS(Int)=  0.00187000
 Iteration  3 RMS(Cart)=  0.00000622 RMS(Int)=  0.00186998
 Iteration  4 RMS(Cart)=  0.00000002 RMS(Int)=  0.00186998
 Variable       Old X    -DE/DX   Delta X   Delta X   Delta X     New X
                                 (Linear)    (Quad)   (Total)
    R1        2.75325  -0.00281   0.00000  -0.00730  -0.00730   2.74595
    R2        2.06229   0.00948   0.00000   0.02642   0.02642   2.08871
    R3        2.06271   0.00206   0.00000   0.00575   0.00575   2.06846
    R4        2.06256   0.00233   0.00000   0.00651   0.00651   2.06906
    R5        2.36381   0.06314   0.00000   0.07506   0.07506   2.43887
    R6        2.36368   0.06284   0.00000   0.07468   0.07468   2.43836
    A1        1.88731   0.00942   0.00000   0.05407   0.05375   1.94107
    A2        1.88870   0.00105   0.00000   0.00641   0.00622   1.89492
    A3        1.88860   0.00126   0.00000   0.00763   0.00743   1.89603
    A4        1.93304  -0.00514   0.00000  -0.03056  -0.03087   1.90217
    A5        1.93283  -0.00524   0.00000  -0.03117  -0.03150   1.90133
    A6        1.93168  -0.00077   0.00000  -0.00308  -0.00315   1.92854
    A7        2.06217  -0.00396   0.00000  -0.01593  -0.02081   2.04136
    A8        2.06616  -0.00518   0.00000  -0.02058  -0.02546   2.04070
    A9        2.15473   0.00908   0.00000   0.03386   0.02887   2.18360
    D1        1.57088  -0.00187   0.00000  -0.08740  -0.08711   1.48377
    D2       -1.55428   0.00185   0.00000   0.08642   0.08611  -1.46817
    D3       -0.52391  -0.00168   0.00000  -0.08528  -0.08507  -0.60898
    D4        2.63411   0.00205   0.00000   0.08855   0.08815   2.72226
    D5       -2.61781  -0.00207   0.00000  -0.08958  -0.08917  -2.70698
    D6        0.54020   0.00165   0.00000   0.08424   0.08405   0.62425
         Item               Value     Threshold  Converged?
 Maximum Force            0.063142     0.000450     NO 
 RMS     Force            0.019922     0.000300     NO 
 Maximum Displacement     0.094179     0.001800     NO 
 RMS     Displacement     0.038996     0.001200     NO 
 Predicted change in Energy=-6.385811D-03
 GradGradGradGradGradGradGradGradGradGradGradGradGradGradGradGradGradGrad

                          Input orientation:                          
 ---------------------------------------------------------------------
 Center     Atomic      Atomic             Coordinates (Angstroms)
 Number     Number       Type             X           Y           Z
 ---------------------------------------------------------------------
      1          6           0       -0.540130   -0.755087    0.585917
      2          7           0       -1.866613   -0.952352    0.026438
      3          8           0       -2.411441   -2.108437    0.206057
      4          8           0       -2.300961   -0.044649   -0.781245
      5          1           0        0.243127   -1.118116   -0.104306
      6          1           0       -0.472050   -1.311478    1.526079
      7          1           0       -0.390331    0.315120    0.762060
 ---------------------------------------------------------------------
                    Distance matrix (angstroms):
                    1          2          3          4          5
     1  C    0.000000
     2  N    1.453096   0.000000
     3  O    2.340439   1.290594   0.000000
     4  O    2.339740   1.290323   2.290457   0.000000
     5  H    1.105300   2.120277   2.850226   2.843055   0.000000
     6  H    1.094582   2.079111   2.477668   3.205233   1.790816
     7  H    1.094901   2.080153   3.204318   2.482284   1.790537
                    6          7
     6  H    0.000000
     7  H    1.798951   0.000000
 Stoichiometry    CH3NO2(1-,2)
 Framework group  C1[X(CH3NO2)]
 Deg. of freedom    15
 Full point group                 C1      NOp   1
 Largest Abelian subgroup         C1      NOp   1
 Largest concise Abelian subgroup C1      NOp   1
                         Standard orientation:                         
 ---------------------------------------------------------------------
 Center     Atomic      Atomic             Coordinates (Angstroms)
 Number     Number       Type             X           Y           Z
 ---------------------------------------------------------------------
      1          6           0        1.303541    0.002449    0.008250
      2          7           0       -0.147878   -0.000233   -0.061508
      3          8           0       -0.739689    1.143827    0.019227
      4          8           0       -0.734569   -1.146624    0.019207
      5          1           0        1.653603   -0.004975    1.056625
      6          1           0        1.674566    0.906587   -0.484684
      7          1           0        1.679800   -0.892304   -0.498362
 ---------------------------------------------------------------------
 Rotational constants (GHZ):     11.1650453     10.5774050      5.6348293
 Standard basis: 6-31+G(d) (6D, 7F)
 There are    82 symmetry adapted cartesian basis functions of A   symmetry.
 There are    82 symmetry adapted basis functions of A   symmetry.
    82 basis functions,   140 primitive gaussians,    82 cartesian basis functions
    17 alpha electrons       16 beta electrons
       nuclear repulsion energy       121.6164147133 Hartrees.
 NAtoms=    7 NActive=    7 NUniq=    7 SFac= 1.00D+00 NAtFMM=   60 NAOKFM=F Big=F
 Integral buffers will be    131072 words long.
 Raffenetti 2 integral format.
 Two-electron integral symmetry is turned on.
 One-electron integrals computed using PRISM.
 NBasis=    82 RedAO= T EigKep=  6.74D-04  NBF=    82
 NBsUse=    82 1.00D-06 EigRej= -1.00D+00 NBFU=    82
 Initial guess from the checkpoint file:  "/srv/scratch/z5358697/gauss/Gau-3231881.chk"
 B after Tr=     0.000000    0.000000    0.000000
         Rot=    0.999994    0.000027    0.000517   -0.003480 Ang=   0.40 deg.
 Initial guess <Sx>= 0.0000 <Sy>= 0.0000 <Sz>= 0.5000 <S**2>= 0.7554 S= 0.5027
 ExpMin= 4.38D-02 ExpMax= 5.48D+03 ExpMxC= 8.25D+02 IAcc=2 IRadAn=         4 AccDes= 0.00D+00
 Harris functional with IExCor= 1009 and IRadAn=       4 diagonalized for initial guess.
 HarFok:  IExCor= 1009 AccDes= 0.00D+00 IRadAn=         4 IDoV= 1 UseB2=F ITyADJ=14
 ICtDFT=  3500011 ScaDFX=  1.000000  1.000000  1.000000  1.000000
 FoFCou: FMM=F IPFlag=           0 FMFlag=      100000 FMFlg1=           0
         NFxFlg=           0 DoJE=T BraDBF=F KetDBF=T FulRan=T
         wScrn=  0.000000 ICntrl=     500 IOpCl=  0 I1Cent=   200000004 NGrid=           0
         NMat0=    1 NMatS0=      1 NMatT0=    0 NMatD0=    1 NMtDS0=    0 NMtDT0=    0
 Petite list used in FoFCou.
 Keep R1 and R2 ints in memory in canonical form, NReq=12526642.
 Requested convergence on RMS density matrix=1.00D-08 within 128 cycles.
 Requested convergence on MAX density matrix=1.00D-06.
 Requested convergence on             energy=1.00D-06.
 No special actions if energy rises.
 SCF Done:  E(UM062X) =  -244.918056953     A.U. after   14 cycles
            NFock= 14  Conv=0.62D-08     -V/T= 2.0080
 <Sx>= 0.0000 <Sy>= 0.0000 <Sz>= 0.5000 <S**2>= 0.7559 S= 0.5029
 <L.S>= 0.000000000000E+00
 Annihilation of the first spin contaminant:
 S**2 before annihilation     0.7559,   after     0.7500
 Calling FoFJK, ICntrl=      2127 FMM=F ISym2X=0 I1Cent= 0 IOpClX= 1 NMat=1 NMatS=1 NMatT=0.
 ***** Axes restored to original set *****
 -------------------------------------------------------------------
 Center     Atomic                   Forces (Hartrees/Bohr)
 Number     Number              X              Y              Z
 -------------------------------------------------------------------
      1        6          -0.005278742   -0.000957749   -0.002577945
      2        7           0.009252281    0.007762075    0.017573280
      3        8          -0.003393999   -0.010334921   -0.003016351
      4        8          -0.002668400    0.004550275   -0.010181190
      5        1           0.001031219   -0.000290646   -0.000517889
      6        1           0.000564884   -0.000439130   -0.000557543
      7        1           0.000492758   -0.000289904   -0.000722362
 -------------------------------------------------------------------
 Cartesian Forces:  Max     0.017573280 RMS     0.005984506

 GradGradGradGradGradGradGradGradGradGradGradGradGradGradGradGradGradGrad
 Berny optimization.
 Using GEDIIS/GDIIS optimizer.
 FormGI is forming the generalized inverse of G from B-inverse, IUseBI=4.
 Internal  Forces:  Max     0.010471526 RMS     0.003825843
 Search for a local minimum.
 Step number   2 out of a maximum of   31
 All quantities printed in internal units (Hartrees-Bohrs-Radians)
 Mixed Optimization -- RFO/linear search
 Update second derivatives using D2CorX and points    1    2
 DE= -7.46D-03 DEPred=-6.39D-03 R= 1.17D+00
 TightC=F SS=  1.41D+00  RLast= 2.53D-01 DXNew= 5.0454D-01 7.5846D-01
 Trust test= 1.17D+00 RLast= 2.53D-01 DXMaxT set to 5.05D-01
 ITU=  1  0
 Use linear search instead of GDIIS.
     Eigenvalues ---    0.00900   0.00938   0.07514   0.07734   0.15992
     Eigenvalues ---    0.16000   0.16335   0.24999   0.25876   0.34588
     Eigenvalues ---    0.34639   0.34755   0.37069   0.78223   0.82932
 RFO step:  Lambda=-6.77283747D-03 EMin= 8.99976415D-03
 Quartic linear search produced a step of  0.42809.
 Iteration  1 RMS(Cart)=  0.07303441 RMS(Int)=  0.05361198
 Iteration  2 RMS(Cart)=  0.04341106 RMS(Int)=  0.02260492
 Iteration  3 RMS(Cart)=  0.00281877 RMS(Int)=  0.02241772
 Iteration  4 RMS(Cart)=  0.00020289 RMS(Int)=  0.02241723
 Iteration  5 RMS(Cart)=  0.00001510 RMS(Int)=  0.02241723
 Iteration  6 RMS(Cart)=  0.00000114 RMS(Int)=  0.02241723
 Iteration  7 RMS(Cart)=  0.00000009 RMS(Int)=  0.02241723
 Variable       Old X    -DE/DX   Delta X   Delta X   Delta X     New X
                                 (Linear)    (Quad)   (Total)
    R1        2.74595  -0.00486  -0.00312  -0.01636  -0.01949   2.72647
    R2        2.08871   0.00115   0.01131   0.00271   0.01403   2.10274
    R3        2.06846  -0.00022   0.00246  -0.00117   0.00129   2.06975
    R4        2.06906  -0.00033   0.00279  -0.00163   0.00116   2.07022
    R5        2.43887   0.01027   0.03213   0.01100   0.04313   2.48200
    R6        2.43836   0.01047   0.03197   0.01134   0.04331   2.48166
    A1        1.94107   0.00003   0.02301  -0.00422   0.01862   1.95969
    A2        1.89492   0.00051   0.00266   0.00496   0.00748   1.90240
    A3        1.89603   0.00037   0.00318   0.00363   0.00666   1.90269
    A4        1.90217  -0.00062  -0.01321  -0.00570  -0.01908   1.88309
    A5        1.90133  -0.00058  -0.01349  -0.00570  -0.01936   1.88197
    A6        1.92854   0.00030  -0.00135   0.00721   0.00575   1.93429
    A7        2.04136   0.00057  -0.00891  -0.02529  -0.08184   1.95952
    A8        2.04070   0.00054  -0.01090  -0.02516  -0.08376   1.95694
    A9        2.18360  -0.00224   0.01236  -0.04290  -0.09873   2.08488
    D1        1.48377  -0.00313  -0.03729  -0.25196  -0.27420   1.20957
    D2       -1.46817   0.00316   0.03686   0.25188   0.27369  -1.19448
    D3       -0.60898  -0.00272  -0.03642  -0.24552  -0.26692  -0.87590
    D4        2.72226   0.00358   0.03774   0.25831   0.28098   3.00323
    D5       -2.70698  -0.00360  -0.03817  -0.25925  -0.28235  -2.98934
    D6        0.62425   0.00270   0.03598   0.24459   0.26554   0.88979
         Item               Value     Threshold  Converged?
 Maximum Force            0.010472     0.000450     NO 
 RMS     Force            0.003826     0.000300     NO 
 Maximum Displacement     0.271893     0.001800     NO 
 RMS     Displacement     0.109666     0.001200     NO 
 Predicted change in Energy=-1.671427D-03
 GradGradGradGradGradGradGradGradGradGradGradGradGradGradGradGradGradGrad

                          Input orientation:                          
 ---------------------------------------------------------------------
 Center     Atomic      Atomic             Coordinates (Angstroms)
 Number     Number       Type             X           Y           Z
 ---------------------------------------------------------------------
      1          6           0       -0.577897   -0.743778    0.605667
      2          7           0       -1.946691   -0.879803    0.170317
      3          8           0       -2.335879   -2.133767    0.136025
      4          8           0       -2.224962   -0.089402   -0.840836
      5          1           0        0.144534   -1.132660   -0.146009
      6          1           0       -0.439796   -1.313114    1.531082
      7          1           0       -0.357708    0.317524    0.764755
 ---------------------------------------------------------------------
                    Distance matrix (angstroms):
                    1          2          3          4          5
     1  C    0.000000
     2  N    1.442785   0.000000
     3  O    2.289789   1.313419   0.000000
     4  O    2.287662   1.313240   2.268477   0.000000
     5  H    1.112723   2.130075   2.689648   2.680612   0.000000
     6  H    1.095267   2.076095   2.492948   3.210963   1.785116
     7  H    1.095515   2.076490   3.212054   2.496025   1.784592
                    6          7
     6  H    0.000000
     7  H    1.803601   0.000000
 Stoichiometry    CH3NO2(1-,2)
 Framework group  C1[X(CH3NO2)]
 Deg. of freedom    15
 Full point group                 C1      NOp   1
 Largest Abelian subgroup         C1      NOp   1
 Largest concise Abelian subgroup C1      NOp   1
                         Standard orientation:                         
 ---------------------------------------------------------------------
 Center     Atomic      Atomic             Coordinates (Angstroms)
 Number     Number       Type             X           Y           Z
 ---------------------------------------------------------------------
      1          6           0        1.268181    0.007928    0.037140
      2          7           0       -0.144906   -0.000457   -0.253970
      3          8           0       -0.727705    1.129587    0.075297
      4          8           0       -0.710936   -1.138828    0.075149
      5          1           0        1.473714    0.000826    1.130692
      6          1           0        1.713429    0.916114   -0.383053
      7          1           0        1.727239   -0.887385   -0.396258
 ---------------------------------------------------------------------
 Rotational constants (GHZ):     11.1115268     10.8430685      5.8283732
 Standard basis: 6-31+G(d) (6D, 7F)
 There are    82 symmetry adapted cartesian basis functions of A   symmetry.
 There are    82 symmetry adapted basis functions of A   symmetry.
    82 basis functions,   140 primitive gaussians,    82 cartesian basis functions
    17 alpha electrons       16 beta electrons
       nuclear repulsion energy       121.6861549218 Hartrees.
 NAtoms=    7 NActive=    7 NUniq=    7 SFac= 1.00D+00 NAtFMM=   60 NAOKFM=F Big=F
 Integral buffers will be    131072 words long.
 Raffenetti 2 integral format.
 Two-electron integral symmetry is turned on.
 One-electron integrals computed using PRISM.
 NBasis=    82 RedAO= T EigKep=  4.60D-04  NBF=    82
 NBsUse=    82 1.00D-06 EigRej= -1.00D+00 NBFU=    82
 Initial guess from the checkpoint file:  "/srv/scratch/z5358697/gauss/Gau-3231881.chk"
 B after Tr=     0.000000    0.000000    0.000000
         Rot=    0.999965   -0.000059    0.008058   -0.002331 Ang=  -0.96 deg.
 Initial guess <Sx>= 0.0000 <Sy>= 0.0000 <Sz>= 0.5000 <S**2>= 0.7561 S= 0.5031
 ExpMin= 4.38D-02 ExpMax= 5.48D+03 ExpMxC= 8.25D+02 IAcc=2 IRadAn=         4 AccDes= 0.00D+00
 Harris functional with IExCor= 1009 and IRadAn=       4 diagonalized for initial guess.
 HarFok:  IExCor= 1009 AccDes= 0.00D+00 IRadAn=         4 IDoV= 1 UseB2=F ITyADJ=14
 ICtDFT=  3500011 ScaDFX=  1.000000  1.000000  1.000000  1.000000
 FoFCou: FMM=F IPFlag=           0 FMFlag=      100000 FMFlg1=           0
         NFxFlg=           0 DoJE=T BraDBF=F KetDBF=T FulRan=T
         wScrn=  0.000000 ICntrl=     500 IOpCl=  0 I1Cent=   200000004 NGrid=           0
         NMat0=    1 NMatS0=      1 NMatT0=    0 NMatD0=    1 NMtDS0=    0 NMtDT0=    0
 Petite list used in FoFCou.
 Keep R1 and R2 ints in memory in canonical form, NReq=12526642.
 Requested convergence on RMS density matrix=1.00D-08 within 128 cycles.
 Requested convergence on MAX density matrix=1.00D-06.
 Requested convergence on             energy=1.00D-06.
 No special actions if energy rises.
 SCF Done:  E(UM062X) =  -244.919233883     A.U. after   16 cycles
            NFock= 16  Conv=0.47D-08     -V/T= 2.0081
 <Sx>= 0.0000 <Sy>= 0.0000 <Sz>= 0.5000 <S**2>= 0.7566 S= 0.5033
 <L.S>= 0.000000000000E+00
 Annihilation of the first spin contaminant:
 S**2 before annihilation     0.7566,   after     0.7500
 Calling FoFJK, ICntrl=      2127 FMM=F ISym2X=0 I1Cent= 0 IOpClX= 1 NMat=1 NMatS=1 NMatT=0.
 ***** Axes restored to original set *****
 -------------------------------------------------------------------
 Center     Atomic                   Forces (Hartrees/Bohr)
 Number     Number              X              Y              Z
 -------------------------------------------------------------------
      1        6           0.018049555    0.003818442    0.010175130
      2        7          -0.005115091   -0.012929638   -0.027728860
      3        8          -0.001451414    0.006795215    0.006487073
      4        8          -0.002100728    0.001085889    0.009113444
      5        1          -0.008679051    0.000707708    0.000712170
      6        1          -0.000274841    0.001183064    0.000235543
      7        1          -0.000428430   -0.000660680    0.001005501
 -------------------------------------------------------------------
 Cartesian Forces:  Max     0.027728860 RMS     0.008903279

 GradGradGradGradGradGradGradGradGradGradGradGradGradGradGradGradGradGrad
 Berny optimization.
 Using GEDIIS/GDIIS optimizer.
 FormGI is forming the generalized inverse of G from B-inverse, IUseBI=4.
 Internal  Forces:  Max     0.012367634 RMS     0.005268390
 Search for a local minimum.
 Step number   3 out of a maximum of   31
 All quantities printed in internal units (Hartrees-Bohrs-Radians)
 Mixed Optimization -- RFO/linear search
 Update second derivatives using D2CorX and points    2    3
 DE= -1.18D-03 DEPred=-1.67D-03 R= 7.04D-01
 TightC=F SS=  1.41D+00  RLast= 6.92D-01 DXNew= 8.4853D-01 2.0774D+00
 Trust test= 7.04D-01 RLast= 6.92D-01 DXMaxT set to 8.49D-01
 ITU=  1  1  0
 Use linear search instead of GDIIS.
     Eigenvalues ---    0.00938   0.03383   0.07387   0.07616   0.15997
     Eigenvalues ---    0.16007   0.16950   0.25001   0.25782   0.34638
     Eigenvalues ---    0.34657   0.35051   0.38813   0.79130   0.82935
 RFO step:  Lambda=-4.53005098D-04 EMin= 9.38301247D-03
 Quartic linear search produced a step of -0.34389.
 Iteration  1 RMS(Cart)=  0.03381801 RMS(Int)=  0.00544441
 Iteration  2 RMS(Cart)=  0.00188148 RMS(Int)=  0.00510098
 Iteration  3 RMS(Cart)=  0.00000697 RMS(Int)=  0.00510097
 Iteration  4 RMS(Cart)=  0.00000009 RMS(Int)=  0.00510097
 Variable       Old X    -DE/DX   Delta X   Delta X   Delta X     New X
                                 (Linear)    (Quad)   (Total)
    R1        2.72647   0.01237   0.00670   0.01611   0.02281   2.74928
    R2        2.10274  -0.00635  -0.00482  -0.00951  -0.01433   2.08841
    R3        2.06975  -0.00046  -0.00044  -0.00087  -0.00131   2.06844
    R4        2.07022  -0.00058  -0.00040  -0.00120  -0.00159   2.06863
    R5        2.48200  -0.00623  -0.01483   0.00182  -0.01301   2.46899
    R6        2.48166  -0.00592  -0.01489   0.00213  -0.01276   2.46890
    A1        1.95969  -0.00925  -0.00640  -0.03668  -0.04312   1.91657
    A2        1.90240   0.00161  -0.00257   0.00940   0.00679   1.90920
    A3        1.90269   0.00154  -0.00229   0.00875   0.00643   1.90912
    A4        1.88309   0.00335   0.00656   0.00751   0.01404   1.89712
    A5        1.88197   0.00340   0.00666   0.00770   0.01432   1.89629
    A6        1.93429  -0.00070  -0.00198   0.00315   0.00115   1.93544
    A7        1.95952   0.00385   0.02814   0.00015   0.04033   1.99985
    A8        1.95694   0.00447   0.02880   0.00149   0.04233   1.99927
    A9        2.08488   0.00111   0.03395  -0.01254   0.03615   2.12102
    D1        1.20957   0.00519   0.09430  -0.01122   0.08049   1.29007
    D2       -1.19448  -0.00527  -0.09412   0.00598  -0.08557  -1.28005
    D3       -0.87590   0.00574   0.09179  -0.00385   0.08537  -0.79053
    D4        3.00323  -0.00472  -0.09663   0.01335  -0.08070   2.92254
    D5       -2.98934   0.00467   0.09710  -0.01877   0.07576  -2.91358
    D6        0.88979  -0.00579  -0.09132  -0.00157  -0.09030   0.79949
         Item               Value     Threshold  Converged?
 Maximum Force            0.012368     0.000450     NO 
 RMS     Force            0.005268     0.000300     NO 
 Maximum Displacement     0.092781     0.001800     NO 
 RMS     Displacement     0.033612     0.001200     NO 
 Predicted change in Energy=-2.723000D-03
 GradGradGradGradGradGradGradGradGradGradGradGradGradGradGradGradGradGrad

                          Input orientation:                          
 ---------------------------------------------------------------------
 Center     Atomic      Atomic             Coordinates (Angstroms)
 Number     Number       Type             X           Y           Z
 ---------------------------------------------------------------------
      1          6           0       -0.559622   -0.742690    0.610421
      2          7           0       -1.920186   -0.904410    0.121220
      3          8           0       -2.364928   -2.132632    0.147731
      4          8           0       -2.256273   -0.076596   -0.832026
      5          1           0        0.155823   -1.130788   -0.137143
      6          1           0       -0.437843   -1.308531    1.539442
      7          1           0       -0.355371    0.320647    0.771357
 ---------------------------------------------------------------------
                    Distance matrix (angstroms):
                    1          2          3          4          5
     1  C    0.000000
     2  N    1.454855   0.000000
     3  O    2.324898   1.306532   0.000000
     4  O    2.324426   1.306487   2.280135   0.000000
     5  H    1.105140   2.104236   2.727459   2.722570   0.000000
     6  H    1.094572   2.090935   2.515881   3.232370   1.787448
     7  H    1.094671   2.090955   3.231998   2.518347   1.786997
                    6          7
     6  H    0.000000
     7  H    1.803047   0.000000
 Stoichiometry    CH3NO2(1-,2)
 Framework group  C1[X(CH3NO2)]
 Deg. of freedom    15
 Full point group                 C1      NOp   1
 Largest Abelian subgroup         C1      NOp   1
 Largest concise Abelian subgroup C1      NOp   1
                         Standard orientation:                         
 ---------------------------------------------------------------------
 Center     Atomic      Atomic             Coordinates (Angstroms)
 Number     Number       Type             X           Y           Z
 ---------------------------------------------------------------------
      1          6           0        1.293561    0.001800    0.028119
      2          7           0       -0.144447   -0.000079   -0.192640
      3          8           0       -0.734007    1.139050    0.056015
      4          8           0       -0.730298   -1.141081    0.055959
      5          1           0        1.506028   -0.003243    1.112631
      6          1           0        1.727303    0.906136   -0.410207
      7          1           0        1.730876   -0.896888   -0.418446
 ---------------------------------------------------------------------
 Rotational constants (GHZ):     11.1225736     10.6043973      5.7005553
 Standard basis: 6-31+G(d) (6D, 7F)
 There are    82 symmetry adapted cartesian basis functions of A   symmetry.
 There are    82 symmetry adapted basis functions of A   symmetry.
    82 basis functions,   140 primitive gaussians,    82 cartesian basis functions
    17 alpha electrons       16 beta electrons
       nuclear repulsion energy       121.3002211964 Hartrees.
 NAtoms=    7 NActive=    7 NUniq=    7 SFac= 1.00D+00 NAtFMM=   60 NAOKFM=F Big=F
 Integral buffers will be    131072 words long.
 Raffenetti 2 integral format.
 Two-electron integral symmetry is turned on.
 One-electron integrals computed using PRISM.
 NBasis=    82 RedAO= T EigKep=  5.49D-04  NBF=    82
 NBsUse=    82 1.00D-06 EigRej= -1.00D+00 NBFU=    82
 Initial guess from the checkpoint file:  "/srv/scratch/z5358697/gauss/Gau-3231881.chk"
 B after Tr=     0.000000    0.000000    0.000000
         Rot=    0.999996    0.000216   -0.000701    0.002648 Ang=   0.31 deg.
 Initial guess <Sx>= 0.0000 <Sy>= 0.0000 <Sz>= 0.5000 <S**2>= 0.7565 S= 0.5033
 ExpMin= 4.38D-02 ExpMax= 5.48D+03 ExpMxC= 8.25D+02 IAcc=2 IRadAn=         4 AccDes= 0.00D+00
 Harris functional with IExCor= 1009 and IRadAn=       4 diagonalized for initial guess.
 HarFok:  IExCor= 1009 AccDes= 0.00D+00 IRadAn=         4 IDoV= 1 UseB2=F ITyADJ=14
 ICtDFT=  3500011 ScaDFX=  1.000000  1.000000  1.000000  1.000000
 FoFCou: FMM=F IPFlag=           0 FMFlag=      100000 FMFlg1=           0
         NFxFlg=           0 DoJE=T BraDBF=F KetDBF=T FulRan=T
         wScrn=  0.000000 ICntrl=     500 IOpCl=  0 I1Cent=   200000004 NGrid=           0
         NMat0=    1 NMatS0=      1 NMatT0=    0 NMatD0=    1 NMtDS0=    0 NMtDT0=    0
 Petite list used in FoFCou.
 Keep R1 and R2 ints in memory in canonical form, NReq=12526642.
 Requested convergence on RMS density matrix=1.00D-08 within 128 cycles.
 Requested convergence on MAX density matrix=1.00D-06.
 Requested convergence on             energy=1.00D-06.
 No special actions if energy rises.
 SCF Done:  E(UM062X) =  -244.921127623     A.U. after   14 cycles
            NFock= 14  Conv=0.77D-08     -V/T= 2.0082
 <Sx>= 0.0000 <Sy>= 0.0000 <Sz>= 0.5000 <S**2>= 0.7562 S= 0.5031
 <L.S>= 0.000000000000E+00
 Annihilation of the first spin contaminant:
 S**2 before annihilation     0.7562,   after     0.7500
 Calling FoFJK, ICntrl=      2127 FMM=F ISym2X=0 I1Cent= 0 IOpClX= 1 NMat=1 NMatS=1 NMatT=0.
 ***** Axes restored to original set *****
 -------------------------------------------------------------------
 Center     Atomic                   Forces (Hartrees/Bohr)
 Number     Number              X              Y              Z
 -------------------------------------------------------------------
      1        6           0.003818385   -0.000028805    0.000247628
      2        7          -0.007200155   -0.001786475   -0.004461730
      3        8           0.003269287    0.003625555    0.001250872
      4        8           0.002962925   -0.001534771    0.003733100
      5        1          -0.000781843   -0.000059524   -0.000126409
      6        1          -0.001011326    0.000401297   -0.000557324
      7        1          -0.001057274   -0.000617277   -0.000086137
 -------------------------------------------------------------------
 Cartesian Forces:  Max     0.007200155 RMS     0.002615727

 GradGradGradGradGradGradGradGradGradGradGradGradGradGradGradGradGradGrad
 Berny optimization.
 Using GEDIIS/GDIIS optimizer.
 FormGI is forming the generalized inverse of G from B-inverse, IUseBI=4.
 Internal  Forces:  Max     0.004497036 RMS     0.001855054
 Search for a local minimum.
 Step number   4 out of a maximum of   31
 All quantities printed in internal units (Hartrees-Bohrs-Radians)
 Mixed Optimization -- RFO/linear search
 Update second derivatives using D2CorX and points    2    3    4
 DE= -1.89D-03 DEPred=-2.72D-03 R= 6.95D-01
 TightC=F SS=  1.41D+00  RLast= 2.23D-01 DXNew= 1.4270D+00 6.6834D-01
 Trust test= 6.95D-01 RLast= 2.23D-01 DXMaxT set to 8.49D-01
 ITU=  1  1  1  0
 Use linear search instead of GDIIS.
     Eigenvalues ---    0.00937   0.04840   0.07649   0.07663   0.13649
     Eigenvalues ---    0.16000   0.16370   0.24995   0.28719   0.33262
     Eigenvalues ---    0.34640   0.34813   0.36519   0.82229   0.82931
 RFO step:  Lambda=-1.83895892D-04 EMin= 9.37494286D-03
 Quartic linear search produced a step of  0.00012.
 Iteration  1 RMS(Cart)=  0.00737115 RMS(Int)=  0.00003624
 Iteration  2 RMS(Cart)=  0.00003341 RMS(Int)=  0.00001307
 Iteration  3 RMS(Cart)=  0.00000000 RMS(Int)=  0.00001307
 Variable       Old X    -DE/DX   Delta X   Delta X   Delta X     New X
                                 (Linear)    (Quad)   (Total)
    R1        2.74928   0.00070   0.00000   0.00464   0.00465   2.75392
    R2        2.08841  -0.00039   0.00000  -0.00265  -0.00266   2.08576
    R3        2.06844  -0.00080   0.00000  -0.00232  -0.00233   2.06612
    R4        2.06863  -0.00081   0.00000  -0.00240  -0.00240   2.06623
    R5        2.46899  -0.00450   0.00000  -0.00578  -0.00578   2.46321
    R6        2.46890  -0.00446   0.00000  -0.00570  -0.00570   2.46320
    A1        1.91657  -0.00055  -0.00001  -0.00760  -0.00762   1.90895
    A2        1.90920  -0.00099   0.00000  -0.00529  -0.00531   1.90388
    A3        1.90912  -0.00097   0.00000  -0.00515  -0.00517   1.90395
    A4        1.89712   0.00091   0.00000   0.00759   0.00758   1.90470
    A5        1.89629   0.00093   0.00000   0.00791   0.00789   1.90419
    A6        1.93544   0.00068   0.00000   0.00258   0.00255   1.93799
    A7        1.99985  -0.00243   0.00001  -0.00882  -0.00883   1.99102
    A8        1.99927  -0.00239   0.00001  -0.00847  -0.00849   1.99078
    A9        2.12102   0.00371   0.00000   0.01347   0.01345   2.13448
    D1        1.29007  -0.00024   0.00001  -0.00252  -0.00250   1.28756
    D2       -1.28005   0.00019  -0.00001  -0.00128  -0.00130  -1.28135
    D3       -0.79053  -0.00042   0.00001  -0.00398  -0.00396  -0.79450
    D4        2.92254   0.00001  -0.00001  -0.00275  -0.00276   2.91978
    D5       -2.91358  -0.00002   0.00001  -0.00058  -0.00056  -2.91414
    D6        0.79949   0.00041  -0.00001   0.00066   0.00064   0.80013
         Item               Value     Threshold  Converged?
 Maximum Force            0.004497     0.000450     NO 
 RMS     Force            0.001855     0.000300     NO 
 Maximum Displacement     0.017746     0.001800     NO 
 RMS     Displacement     0.007382     0.001200     NO 
 Predicted change in Energy=-9.196437D-05
 GradGradGradGradGradGradGradGradGradGradGradGradGradGradGradGradGradGrad

                          Input orientation:                          
 ---------------------------------------------------------------------
 Center     Atomic      Atomic             Coordinates (Angstroms)
 Number     Number       Type             X           Y           Z
 ---------------------------------------------------------------------
      1          6           0       -0.558749   -0.742837    0.610171
      2          7           0       -1.922111   -0.904311    0.121362
      3          8           0       -2.355537   -2.133260    0.150833
      4          8           0       -2.248008   -0.073479   -0.828660
      5          1           0        0.148500   -1.133638   -0.141695
      6          1           0       -0.442728   -1.307834    1.538994
      7          1           0       -0.359765    0.320360    0.769995
 ---------------------------------------------------------------------
                    Distance matrix (angstroms):
                    1          2          3          4          5
     1  C    0.000000
     2  N    1.457314   0.000000
     3  O    2.317912   1.303473   0.000000
     4  O    2.317730   1.303470   2.283346   0.000000
     5  H    1.103734   2.099814   2.712014   2.709079   0.000000
     6  H    1.093341   2.088321   2.503429   3.223113   1.790143
     7  H    1.093402   2.088413   3.222844   2.505249   1.789867
                    6          7
     6  H    0.000000
     7  H    1.802570   0.000000
 Stoichiometry    CH3NO2(1-,2)
 Framework group  C1[X(CH3NO2)]
 Deg. of freedom    15
 Full point group                 C1      NOp   1
 Largest Abelian subgroup         C1      NOp   1
 Largest concise Abelian subgroup C1      NOp   1
                         Standard orientation:                         
 ---------------------------------------------------------------------
 Center     Atomic      Atomic             Coordinates (Angstroms)
 Number     Number       Type             X           Y           Z
 ---------------------------------------------------------------------
      1          6           0        1.290265    0.000829    0.028766
      2          7           0       -0.149882   -0.000039   -0.194256
      3          8           0       -0.727523    1.141210    0.056590
      4          8           0       -0.725852   -1.142136    0.056555
      5          1           0        1.492771   -0.002338    1.113759
      6          1           0        1.719924    0.903804   -0.413304
      7          1           0        1.721890   -0.898758   -0.418416
 ---------------------------------------------------------------------
 Rotational constants (GHZ):     11.0901335     10.6965984      5.7206188
 Standard basis: 6-31+G(d) (6D, 7F)
 There are    82 symmetry adapted cartesian basis functions of A   symmetry.
 There are    82 symmetry adapted basis functions of A   symmetry.
    82 basis functions,   140 primitive gaussians,    82 cartesian basis functions
    17 alpha electrons       16 beta electrons
       nuclear repulsion energy       121.4825559022 Hartrees.
 NAtoms=    7 NActive=    7 NUniq=    7 SFac= 1.00D+00 NAtFMM=   60 NAOKFM=F Big=F
 Integral buffers will be    131072 words long.
 Raffenetti 2 integral format.
 Two-electron integral symmetry is turned on.
 One-electron integrals computed using PRISM.
 NBasis=    82 RedAO= T EigKep=  5.38D-04  NBF=    82
 NBsUse=    82 1.00D-06 EigRej= -1.00D+00 NBFU=    82
 Initial guess from the checkpoint file:  "/srv/scratch/z5358697/gauss/Gau-3231881.chk"
 B after Tr=     0.000000    0.000000    0.000000
         Rot=    1.000000    0.000124   -0.000131    0.000404 Ang=   0.05 deg.
 Initial guess <Sx>= 0.0000 <Sy>= 0.0000 <Sz>= 0.5000 <S**2>= 0.7562 S= 0.5031
 Keep R1 and R2 ints in memory in canonical form, NReq=12526642.
 Requested convergence on RMS density matrix=1.00D-08 within 128 cycles.
 Requested convergence on MAX density matrix=1.00D-06.
 Requested convergence on             energy=1.00D-06.
 No special actions if energy rises.
 SCF Done:  E(UM062X) =  -244.921228040     A.U. after   13 cycles
            NFock= 13  Conv=0.53D-08     -V/T= 2.0081
 <Sx>= 0.0000 <Sy>= 0.0000 <Sz>= 0.5000 <S**2>= 0.7562 S= 0.5031
 <L.S>= 0.000000000000E+00
 Annihilation of the first spin contaminant:
 S**2 before annihilation     0.7562,   after     0.7500
 Calling FoFJK, ICntrl=      2127 FMM=F ISym2X=0 I1Cent= 0 IOpClX= 1 NMat=1 NMatS=1 NMatT=0.
 ***** Axes restored to original set *****
 -------------------------------------------------------------------
 Center     Atomic                   Forces (Hartrees/Bohr)
 Number     Number              X              Y              Z
 -------------------------------------------------------------------
      1        6           0.001301505    0.000095990    0.000274540
      2        7          -0.001972852   -0.000155479   -0.000515914
      3        8           0.000454320    0.001353710   -0.000453096
      4        8           0.000313975   -0.001220158    0.000798667
      5        1           0.000156805   -0.000048903   -0.000035898
      6        1          -0.000125690   -0.000008461   -0.000032014
      7        1          -0.000128063   -0.000016700   -0.000036284
 -------------------------------------------------------------------
 Cartesian Forces:  Max     0.001972852 RMS     0.000706892

 GradGradGradGradGradGradGradGradGradGradGradGradGradGradGradGradGradGrad
 Berny optimization.
 Using GEDIIS/GDIIS optimizer.
 FormGI is forming the generalized inverse of G from B-inverse, IUseBI=4.
 Internal  Forces:  Max     0.001441221 RMS     0.000540036
 Search for a local minimum.
 Step number   5 out of a maximum of   31
 All quantities printed in internal units (Hartrees-Bohrs-Radians)
 Mixed Optimization -- En-DIIS/RFO-DIIS
 Update second derivatives using D2CorX and points    2    3    4    5
 DE= -1.00D-04 DEPred=-9.20D-05 R= 1.09D+00
 TightC=F SS=  1.41D+00  RLast= 2.66D-02 DXNew= 1.4270D+00 7.9828D-02
 Trust test= 1.09D+00 RLast= 2.66D-02 DXMaxT set to 8.49D-01
 ITU=  1  1  1  1  0
 Use linear search instead of GDIIS.
     Eigenvalues ---    0.00936   0.04057   0.07705   0.07717   0.13677
     Eigenvalues ---    0.16000   0.16023   0.24993   0.28346   0.33122
     Eigenvalues ---    0.34637   0.34641   0.37954   0.74088   0.82927
 RFO step:  Lambda=-1.79197601D-05 EMin= 9.35524439D-03
 Quartic linear search produced a step of  0.09856.
 Iteration  1 RMS(Cart)=  0.00256019 RMS(Int)=  0.00001002
 Iteration  2 RMS(Cart)=  0.00000737 RMS(Int)=  0.00000659
 Iteration  3 RMS(Cart)=  0.00000000 RMS(Int)=  0.00000659
 Variable       Old X    -DE/DX   Delta X   Delta X   Delta X     New X
                                 (Linear)    (Quad)   (Total)
    R1        2.75392   0.00119   0.00046   0.00555   0.00601   2.75993
    R2        2.08576   0.00015  -0.00026  -0.00045  -0.00071   2.08505
    R3        2.06612  -0.00004  -0.00023  -0.00015  -0.00038   2.06573
    R4        2.06623  -0.00005  -0.00024  -0.00020  -0.00043   2.06580
    R5        2.46321  -0.00144  -0.00057  -0.00167  -0.00224   2.46096
    R6        2.46320  -0.00144  -0.00056  -0.00165  -0.00222   2.46099
    A1        1.90895   0.00018  -0.00075  -0.00187  -0.00262   1.90633
    A2        1.90388  -0.00017  -0.00052  -0.00044  -0.00097   1.90292
    A3        1.90395  -0.00017  -0.00051  -0.00042  -0.00093   1.90302
    A4        1.90470   0.00002   0.00075   0.00099   0.00173   1.90643
    A5        1.90419   0.00003   0.00078   0.00120   0.00197   1.90616
    A6        1.93799   0.00011   0.00025   0.00050   0.00075   1.93874
    A7        1.99102   0.00012  -0.00087  -0.00062  -0.00150   1.98951
    A8        1.99078   0.00012  -0.00084  -0.00053  -0.00138   1.98940
    A9        2.13448  -0.00040   0.00133  -0.00382  -0.00251   2.13197
    D1        1.28756  -0.00021  -0.00025  -0.00583  -0.00608   1.28149
    D2       -1.28135   0.00018  -0.00013   0.00304   0.00291  -1.27843
    D3       -0.79450  -0.00024  -0.00039  -0.00566  -0.00605  -0.80054
    D4        2.91978   0.00015  -0.00027   0.00322   0.00294   2.92272
    D5       -2.91414  -0.00016  -0.00006  -0.00573  -0.00579  -2.91993
    D6        0.80013   0.00023   0.00006   0.00314   0.00320   0.80333
         Item               Value     Threshold  Converged?
 Maximum Force            0.001441     0.000450     NO 
 RMS     Force            0.000540     0.000300     NO 
 Maximum Displacement     0.005747     0.001800     NO 
 RMS     Displacement     0.002560     0.001200     NO 
 Predicted change in Energy=-9.781155D-06
 GradGradGradGradGradGradGradGradGradGradGradGradGradGradGradGradGradGrad

                          Input orientation:                          
 ---------------------------------------------------------------------
 Center     Atomic      Atomic             Coordinates (Angstroms)
 Number     Number       Type             X           Y           Z
 ---------------------------------------------------------------------
      1          6           0       -0.557518   -0.742379    0.611273
      2          7           0       -1.924503   -0.903515    0.122986
      3          8           0       -2.354195   -2.132620    0.147792
      4          8           0       -2.247758   -0.075394   -0.828697
      5          1           0        0.146162   -1.134798   -0.142545
      6          1           0       -0.441942   -1.307051    1.540110
      7          1           0       -0.358646    0.320756    0.770081
 ---------------------------------------------------------------------
                    Distance matrix (angstroms):
                    1          2          3          4          5
     1  C    0.000000
     2  N    1.460492   0.000000
     3  O    2.318541   1.302286   0.000000
     4  O    2.318467   1.302297   2.279701   0.000000
     5  H    1.103358   2.100394   2.707717   2.706288   0.000000
     6  H    1.093138   2.090232   2.505359   3.223227   1.790772
     7  H    1.093172   2.090330   3.223122   2.506345   1.790630
                    6          7
     6  H    0.000000
     7  H    1.802675   0.000000
 Stoichiometry    CH3NO2(1-,2)
 Framework group  C1[X(CH3NO2)]
 Deg. of freedom    15
 Full point group                 C1      NOp   1
 Largest Abelian subgroup         C1      NOp   1
 Largest concise Abelian subgroup C1      NOp   1
                         Standard orientation:                         
 ---------------------------------------------------------------------
 Center     Atomic      Atomic             Coordinates (Angstroms)
 Number     Number       Type             X           Y           Z
 ---------------------------------------------------------------------
      1          6           0        1.291915    0.000354    0.029399
      2          7           0       -0.150863   -0.000012   -0.197376
      3          8           0       -0.727205    1.139651    0.057474
      4          8           0       -0.726495   -1.140050    0.057455
      5          1           0        1.489051   -0.001215    1.115002
      6          1           0        1.722066    0.902520   -0.413340
      7          1           0        1.723035   -0.900153   -0.415853
 ---------------------------------------------------------------------
 Rotational constants (GHZ):     11.1173086     10.6774994      5.7251377
 Standard basis: 6-31+G(d) (6D, 7F)
 There are    82 symmetry adapted cartesian basis functions of A   symmetry.
 There are    82 symmetry adapted basis functions of A   symmetry.
    82 basis functions,   140 primitive gaussians,    82 cartesian basis functions
    17 alpha electrons       16 beta electrons
       nuclear repulsion energy       121.5078486320 Hartrees.
 NAtoms=    7 NActive=    7 NUniq=    7 SFac= 1.00D+00 NAtFMM=   60 NAOKFM=F Big=F
 Integral buffers will be    131072 words long.
 Raffenetti 2 integral format.
 Two-electron integral symmetry is turned on.
 One-electron integrals computed using PRISM.
 NBasis=    82 RedAO= T EigKep=  5.33D-04  NBF=    82
 NBsUse=    82 1.00D-06 EigRej= -1.00D+00 NBFU=    82
 Initial guess from the checkpoint file:  "/srv/scratch/z5358697/gauss/Gau-3231881.chk"
 B after Tr=     0.000000    0.000000    0.000000
         Rot=    1.000000    0.000102    0.000140    0.000197 Ang=   0.03 deg.
 Initial guess <Sx>= 0.0000 <Sy>= 0.0000 <Sz>= 0.5000 <S**2>= 0.7562 S= 0.5031
 Keep R1 and R2 ints in memory in canonical form, NReq=12526642.
 Requested convergence on RMS density matrix=1.00D-08 within 128 cycles.
 Requested convergence on MAX density matrix=1.00D-06.
 Requested convergence on             energy=1.00D-06.
 No special actions if energy rises.
 SCF Done:  E(UM062X) =  -244.921237818     A.U. after   12 cycles
            NFock= 12  Conv=0.75D-08     -V/T= 2.0081
 <Sx>= 0.0000 <Sy>= 0.0000 <Sz>= 0.5000 <S**2>= 0.7562 S= 0.5031
 <L.S>= 0.000000000000E+00
 Annihilation of the first spin contaminant:
 S**2 before annihilation     0.7562,   after     0.7500
 Calling FoFJK, ICntrl=      2127 FMM=F ISym2X=0 I1Cent= 0 IOpClX= 1 NMat=1 NMatS=1 NMatT=0.
 ***** Axes restored to original set *****
 -------------------------------------------------------------------
 Center     Atomic                   Forces (Hartrees/Bohr)
 Number     Number              X              Y              Z
 -------------------------------------------------------------------
      1        6          -0.000196913   -0.000041133   -0.000139264
      2        7          -0.000151161    0.000052515    0.000081446
      3        8           0.000092302    0.000188835   -0.000054806
      4        8           0.000073567   -0.000165320    0.000130943
      5        1           0.000271941   -0.000029926   -0.000007222
      6        1          -0.000044872   -0.000072513    0.000030890
      7        1          -0.000044864    0.000067542   -0.000041987
 -------------------------------------------------------------------
 Cartesian Forces:  Max     0.000271941 RMS     0.000115601

 GradGradGradGradGradGradGradGradGradGradGradGradGradGradGradGradGradGrad
 Berny optimization.
 Using GEDIIS/GDIIS optimizer.
 FormGI is forming the generalized inverse of G from B-inverse, IUseBI=4.
 Internal  Forces:  Max     0.000314768 RMS     0.000118403
 Search for a local minimum.
 Step number   6 out of a maximum of   31
 All quantities printed in internal units (Hartrees-Bohrs-Radians)
 Mixed Optimization -- En-DIIS/RFO-DIIS
 Swapping is turned off.
 Update second derivatives using D2CorX and points    2    3    4    5    6
 DE= -9.78D-06 DEPred=-9.78D-06 R= 1.00D+00
 TightC=F SS=  1.41D+00  RLast= 1.44D-02 DXNew= 1.4270D+00 4.3243D-02
 Trust test= 1.00D+00 RLast= 1.44D-02 DXMaxT set to 8.49D-01
 ITU=  1  1  1  1  1  0
     Eigenvalues ---    0.00932   0.04461   0.07530   0.07737   0.14585
     Eigenvalues ---    0.14949   0.16002   0.24991   0.27775   0.33866
     Eigenvalues ---    0.34426   0.34641   0.37941   0.68380   0.82928
 En-DIIS/RFO-DIIS IScMMF=        0 using points:     6    5
 RFO step:  Lambda=-6.31278925D-07.
 DidBck=F Rises=F RFO-DIIS coefs:    1.01843   -0.01843
 Iteration  1 RMS(Cart)=  0.00116944 RMS(Int)=  0.00000108
 Iteration  2 RMS(Cart)=  0.00000097 RMS(Int)=  0.00000036
 Variable       Old X    -DE/DX   Delta X   Delta X   Delta X     New X
                                 (Linear)    (Quad)   (Total)
    R1        2.75993  -0.00007   0.00011  -0.00030  -0.00019   2.75974
    R2        2.08505   0.00020  -0.00001   0.00071   0.00069   2.08574
    R3        2.06573   0.00006  -0.00001   0.00015   0.00015   2.06588
    R4        2.06580   0.00005  -0.00001   0.00014   0.00013   2.06592
    R5        2.46096  -0.00021  -0.00004  -0.00040  -0.00044   2.46052
    R6        2.46099  -0.00022  -0.00004  -0.00042  -0.00046   2.46053
    A1        1.90633   0.00031  -0.00005   0.00261   0.00257   1.90890
    A2        1.90292  -0.00011  -0.00002  -0.00099  -0.00101   1.90191
    A3        1.90302  -0.00012  -0.00002  -0.00103  -0.00105   1.90197
    A4        1.90643  -0.00008   0.00003  -0.00044  -0.00041   1.90602
    A5        1.90616  -0.00007   0.00004  -0.00033  -0.00030   1.90586
    A6        1.93874   0.00008   0.00001   0.00024   0.00026   1.93899
    A7        1.98951  -0.00001  -0.00003   0.00006   0.00003   1.98955
    A8        1.98940  -0.00001  -0.00003   0.00004   0.00001   1.98941
    A9        2.13197  -0.00001  -0.00005   0.00019   0.00014   2.13211
    D1        1.28149  -0.00003  -0.00011  -0.00027  -0.00038   1.28111
    D2       -1.27843   0.00002   0.00005  -0.00075  -0.00070  -1.27913
    D3       -0.80054  -0.00005  -0.00011  -0.00069  -0.00080  -0.80134
    D4        2.92272   0.00000   0.00005  -0.00117  -0.00112   2.92160
    D5       -2.91993   0.00000  -0.00011   0.00026   0.00015  -2.91978
    D6        0.80333   0.00005   0.00006  -0.00023  -0.00017   0.80317
         Item               Value     Threshold  Converged?
 Maximum Force            0.000315     0.000450     YES
 RMS     Force            0.000118     0.000300     YES
 Maximum Displacement     0.003916     0.001800     NO 
 RMS     Displacement     0.001169     0.001200     YES
 Predicted change in Energy=-7.598274D-07
 GradGradGradGradGradGradGradGradGradGradGradGradGradGradGradGradGradGrad

                          Input orientation:                          
 ---------------------------------------------------------------------
 Center     Atomic      Atomic             Coordinates (Angstroms)
 Number     Number       Type             X           Y           Z
 ---------------------------------------------------------------------
      1          6           0       -0.557385   -0.742673    0.610670
      2          7           0       -1.924555   -0.903505    0.123096
      3          8           0       -2.354403   -2.132305    0.147951
      4          8           0       -2.248230   -0.075122   -0.827884
      5          1           0        0.148234   -1.134927   -0.141958
      6          1           0       -0.442707   -1.307180    1.539811
      7          1           0       -0.359354    0.320712    0.769315
 ---------------------------------------------------------------------
                    Distance matrix (angstroms):
                    1          2          3          4          5
     1  C    0.000000
     2  N    1.460393   0.000000
     3  O    2.318288   1.302051   0.000000
     4  O    2.318193   1.302055   2.279370   0.000000
     5  H    1.103726   2.102443   2.709614   2.708638   0.000000
     6  H    1.093217   2.089476   2.504533   3.222400   1.790874
     7  H    1.093240   2.089537   3.222361   2.505112   1.790796
                    6          7
     6  H    0.000000
     7  H    1.802955   0.000000
 Stoichiometry    CH3NO2(1-,2)
 Framework group  C1[X(CH3NO2)]
 Deg. of freedom    15
 Full point group                 C1      NOp   1
 Largest Abelian subgroup         C1      NOp   1
 Largest concise Abelian subgroup C1      NOp   1
                         Standard orientation:                         
 ---------------------------------------------------------------------
 Center     Atomic      Atomic             Coordinates (Angstroms)
 Number     Number       Type             X           Y           Z
 ---------------------------------------------------------------------
      1          6           0        1.291764    0.000373    0.029373
      2          7           0       -0.150950   -0.000016   -0.197178
      3          8           0       -0.727177    1.139471    0.057517
      4          8           0       -0.726405   -1.139899    0.057504
      5          1           0        1.491907   -0.000628    1.114801
      6          1           0        1.720998    0.902439   -0.414649
      7          1           0        1.721815   -0.900514   -0.416309
 ---------------------------------------------------------------------
 Rotational constants (GHZ):     11.1201119     10.6789509      5.7263105
 Standard basis: 6-31+G(d) (6D, 7F)
 There are    82 symmetry adapted cartesian basis functions of A   symmetry.
 There are    82 symmetry adapted basis functions of A   symmetry.
    82 basis functions,   140 primitive gaussians,    82 cartesian basis functions
    17 alpha electrons       16 beta electrons
       nuclear repulsion energy       121.5196209408 Hartrees.
 NAtoms=    7 NActive=    7 NUniq=    7 SFac= 1.00D+00 NAtFMM=   60 NAOKFM=F Big=F
 Integral buffers will be    131072 words long.
 Raffenetti 2 integral format.
 Two-electron integral symmetry is turned on.
 One-electron integrals computed using PRISM.
 NBasis=    82 RedAO= T EigKep=  5.34D-04  NBF=    82
 NBsUse=    82 1.00D-06 EigRej= -1.00D+00 NBFU=    82
 Initial guess from the checkpoint file:  "/srv/scratch/z5358697/gauss/Gau-3231881.chk"
 B after Tr=     0.000000    0.000000    0.000000
         Rot=    1.000000    0.000034   -0.000149   -0.000009 Ang=   0.02 deg.
 Initial guess <Sx>= 0.0000 <Sy>= 0.0000 <Sz>= 0.5000 <S**2>= 0.7562 S= 0.5031
 Keep R1 and R2 ints in memory in canonical form, NReq=12526642.
 Requested convergence on RMS density matrix=1.00D-08 within 128 cycles.
 Requested convergence on MAX density matrix=1.00D-06.
 Requested convergence on             energy=1.00D-06.
 No special actions if energy rises.
 SCF Done:  E(UM062X) =  -244.921238495     A.U. after   11 cycles
            NFock= 11  Conv=0.66D-08     -V/T= 2.0081
 <Sx>= 0.0000 <Sy>= 0.0000 <Sz>= 0.5000 <S**2>= 0.7562 S= 0.5031
 <L.S>= 0.000000000000E+00
 Annihilation of the first spin contaminant:
 S**2 before annihilation     0.7562,   after     0.7500
 Calling FoFJK, ICntrl=      2127 FMM=F ISym2X=0 I1Cent= 0 IOpClX= 1 NMat=1 NMatS=1 NMatT=0.
 ***** Axes restored to original set *****
 -------------------------------------------------------------------
 Center     Atomic                   Forces (Hartrees/Bohr)
 Number     Number              X              Y              Z
 -------------------------------------------------------------------
      1        6          -0.000076521    0.000025176    0.000036499
      2        7           0.000128118    0.000023654    0.000051593
      3        8          -0.000034586   -0.000045488   -0.000055207
      4        8          -0.000039906   -0.000006516   -0.000066521
      5        1          -0.000037617    0.000002747    0.000016284
      6        1           0.000031959   -0.000013439    0.000018348
      7        1           0.000028554    0.000013867   -0.000000996
 -------------------------------------------------------------------
 Cartesian Forces:  Max     0.000128118 RMS     0.000045808

 GradGradGradGradGradGradGradGradGradGradGradGradGradGradGradGradGradGrad
 Berny optimization.
 Using GEDIIS/GDIIS optimizer.
 FormGI is forming the generalized inverse of G from B-inverse, IUseBI=4.
 Internal  Forces:  Max     0.000077987 RMS     0.000038357
 Search for a local minimum.
 Step number   7 out of a maximum of   31
 All quantities printed in internal units (Hartrees-Bohrs-Radians)
 Mixed Optimization -- En-DIIS/RFO-DIIS
 Swapping is turned off.
 Update second derivatives using D2CorX and points    2    3    4    5    6
                                                      7
 DE= -6.77D-07 DEPred=-7.60D-07 R= 8.90D-01
 Trust test= 8.90D-01 RLast= 3.55D-03 DXMaxT set to 8.49D-01
 ITU=  0  1  1  1  1  1  0
     Eigenvalues ---    0.00918   0.04513   0.07720   0.07993   0.14507
     Eigenvalues ---    0.15967   0.16877   0.24989   0.28973   0.34105
     Eigenvalues ---    0.34609   0.34861   0.36691   0.67939   0.82928
 En-DIIS/RFO-DIIS IScMMF=        0 using points:     7    6    5
 RFO step:  Lambda=-6.48788743D-08.
 DidBck=T Rises=F RFO-DIIS coefs:    0.79144    0.21559   -0.00703
 Iteration  1 RMS(Cart)=  0.00033637 RMS(Int)=  0.00000009
[...]
 Frequencies --    207.9218               435.1162               454.0311
 Red. masses --      1.0916                 4.3778                 3.1002
 Frc consts  --      0.0278                 0.4883                 0.3765
 IR Inten    --      1.0472                 4.7906                 3.1285
  Atom  AN      X      Y      Z        X      Y      Z        X      Y      Z
     1   6     0.00   0.02   0.00     0.09   0.00  -0.05     0.00   0.21   0.00
     2   7     0.00   0.00   0.00     0.07   0.00   0.42     0.00  -0.15   0.00
     3   8     0.01  -0.01   0.05    -0.08   0.04  -0.15     0.20  -0.05   0.01
     4   8    -0.01  -0.01  -0.05    -0.08  -0.04  -0.15    -0.20  -0.05  -0.01
     5   1     0.00   0.62   0.00     0.74   0.00  -0.15     0.00   0.28   0.00
     6   1     0.07  -0.25  -0.49    -0.11  -0.01  -0.27    -0.44   0.44   0.05
     7   1    -0.07  -0.25   0.49    -0.11   0.01  -0.27     0.44   0.44  -0.06
                      4                      5                      6
                      A                      A                      A
 Frequencies --    599.4267               905.9895              1079.9599
 Red. masses --      8.7787                 6.5298                 1.6091
 Frc consts  --      1.8585                 3.1579                 1.1057
 IR Inten    --     14.7605                11.7696                93.3964
  Atom  AN      X      Y      Z        X      Y      Z        X      Y      Z
     1   6    -0.39   0.00  -0.01     0.42   0.00   0.04     0.00  -0.16   0.00
     2   7    -0.18   0.00   0.13    -0.20   0.00  -0.13     0.00  -0.07   0.00
     3   8     0.26   0.34  -0.05    -0.11   0.29   0.04    -0.06   0.07   0.01
     4   8     0.26  -0.34  -0.05    -0.11  -0.29   0.04     0.06   0.07  -0.01
     5   1    -0.36   0.00  -0.01     0.24   0.00   0.03     0.00   0.26   0.00
     6   1    -0.39   0.01   0.00     0.50  -0.01   0.09    -0.65   0.12  -0.05
     7   1    -0.39  -0.01   0.00     0.50   0.01   0.09     0.65   0.12   0.05
                      7                      8                      9
                      A                      A                      A
 Frequencies --   1118.0600              1308.3231              1347.8265
 Red. masses --      1.3948                11.8571                 5.4090
 Frc consts  --      1.0273                11.9580                 5.7894
 IR Inten    --      9.2998                74.1680               355.7992
  Atom  AN      X      Y      Z        X      Y      Z        X      Y      Z
     1   6    -0.02   0.00   0.15    -0.21   0.00  -0.04     0.00  -0.16   0.00
     2   7    -0.02   0.00  -0.10     0.72   0.00  -0.15     0.00   0.48   0.00
     3   8     0.01   0.00   0.01    -0.21   0.25   0.08     0.07  -0.18  -0.04
     4   8     0.01   0.00   0.01    -0.21  -0.25   0.08    -0.07  -0.18   0.04
     5   1     0.76   0.00  -0.01    -0.25   0.00  -0.03     0.00   0.51   0.00
     6   1    -0.32  -0.07  -0.30    -0.25   0.01  -0.05    -0.41   0.14   0.13
     7   1    -0.32   0.07  -0.30    -0.25  -0.01  -0.05     0.41   0.14  -0.14
                     10                     11                     12
                      A                      A                      A
 Frequencies --   1411.9318              1490.8879              1506.2925
 Red. masses --      1.2191                 1.0524                 1.0656
 Frc consts  --      1.4320                 1.3783                 1.4245
 IR Inten    --      0.2106                 3.1827                 7.4970
  Atom  AN      X      Y      Z        X      Y      Z        X      Y      Z
     1   6     0.14   0.00   0.02     0.00   0.00  -0.06     0.00  -0.05   0.00
     2   7     0.00   0.00   0.01     0.00   0.00  -0.02     0.00  -0.04   0.00
     3   8     0.00   0.00   0.00     0.00   0.00   0.00     0.00   0.01   0.00
     4   8     0.00   0.00   0.00     0.00   0.00   0.00     0.00   0.01   0.00
     5   1    -0.51   0.00   0.11     0.39   0.00  -0.10     0.00   0.69   0.00
     6   1    -0.53   0.21  -0.16    -0.21   0.36   0.49     0.25   0.07   0.44
     7   1    -0.53  -0.21  -0.16    -0.21  -0.36   0.49    -0.25   0.07  -0.44
                     13                     14                     15
                      A                      A                      A
 Frequencies --   2991.3743              3106.8554              3158.8364
 Red. masses --      1.0529                 1.0749                 1.1063
 Frc consts  --      5.5511                 6.1130                 6.5039
 IR Inten    --    140.4651                58.7760                33.3988
  Atom  AN      X      Y      Z        X      Y      Z        X      Y      Z
     1   6     0.02   0.00   0.06    -0.04   0.00   0.07     0.00   0.09   0.00
     2   7     0.00   0.00   0.00     0.00   0.00   0.00     0.00   0.00   0.00
     3   8     0.00   0.00   0.00     0.00   0.00   0.00     0.00   0.00   0.00
     4   8     0.00   0.00   0.00     0.00   0.00   0.00     0.00   0.00   0.00
     5   1    -0.15   0.00  -0.93    -0.05   0.00  -0.28     0.00   0.02   0.00
     6   1    -0.08  -0.18   0.11     0.25   0.56  -0.26    -0.27  -0.58   0.29
     7   1    -0.08   0.18   0.11     0.26  -0.57  -0.27     0.27  -0.58  -0.29

 -------------------
 - Thermochemistry -
 -------------------
 Temperature   298.150 Kelvin.  Pressure   1.00000 Atm.
 Atom     1 has atomic number  6 and mass  12.00000
 Atom     2 has atomic number  7 and mass  14.00307
 Atom     3 has atomic number  8 and mass  15.99491
 Atom     4 has atomic number  8 and mass  15.99491
 Atom     5 has atomic number  1 and mass   1.00783
 Atom     6 has atomic number  1 and mass   1.00783
 Atom     7 has atomic number  1 and mass   1.00783
 Molecular mass:    61.01638 amu.
 Principal axes and moments of inertia in atomic units:
                           1         2         3
     Eigenvalues --   162.29524 168.99986 315.16649
           X            0.99998   0.00092   0.00591
           Y           -0.00092   1.00000   0.00000
           Z           -0.00591  -0.00001   0.99998
 This molecule is an asymmetric top.
 Rotational symmetry number  1.
 Rotational temperatures (Kelvin)      0.53368     0.51251     0.27482
 Rotational constants (GHZ):          11.12011    10.67895     5.72631
 Zero-point vibrational energy     126342.6 (Joules/Mol)
                                   30.19661 (Kcal/Mol)
 Warning -- explicit consideration of   4 degrees of freedom as
           vibrations may cause significant error
 Vibrational temperatures:    299.15   626.03   653.25   862.44  1303.52
          (Kelvin)           1553.82  1608.64  1882.38  1939.22  2031.45
                             2145.05  2167.22  4303.92  4470.07  4544.86
 
 Zero-point correction=                           0.048121 (Hartree/Particle)
 Thermal correction to Energy=                    0.052340
 Thermal correction to Enthalpy=                  0.053284
 Thermal correction to Gibbs Free Energy=         0.021077
 Sum of electronic and zero-point Energies=           -244.873117
 Sum of electronic and thermal Energies=              -244.868899
 Sum of electronic and thermal Enthalpies=            -244.867955
 Sum of electronic and thermal Free Energies=         -244.900162
 
                     E (Thermal)             CV                S
                      KCal/Mol        Cal/Mol-Kelvin    Cal/Mol-Kelvin
 Total                   32.844             13.146             67.786
 Electronic               0.000              0.000              1.377
 Translational            0.889              2.981             38.245
 Rotational               0.889              2.981             23.673
 Vibrational             31.066              7.185              4.490
 Vibration     1          0.641              1.829              2.062
 Vibration     2          0.796              1.394              0.842
 Vibration     3          0.812              1.352              0.784
 Vibration     4          0.957              1.033              0.451
                       Q            Log10(Q)             Ln(Q)
 Total Bot       0.202022D-09         -9.694602        -22.322645
 Total V=0       0.275193D+13         12.439637         28.643324
 Vib (Bot)       0.162006D-21        -21.790469        -50.174409
 Vib (Bot)    1  0.956037D+00         -0.019525         -0.044959
 Vib (Bot)    2  0.398839D+00         -0.399203         -0.919198
 Vib (Bot)    3  0.376461D+00         -0.424280         -0.976940
 Vib (Bot)    4  0.249251D+00         -0.603363         -1.389294
 Vib (V=0)       0.220684D+01          0.343770          0.791560
 Vib (V=0)    1  0.157889D+01          0.198352          0.456723
 Vib (V=0)    2  0.113959D+01          0.056748          0.130666
 Vib (V=0)    3  0.112588D+01          0.051491          0.118563
 Vib (V=0)    4  0.105868D+01          0.024766          0.057025
 Electronic      0.200000D+01          0.301030          0.693147
 Translational   0.187338D+08          7.272625         16.745838
 Rotational      0.332822D+05          4.522212         10.412779
 ***** Axes restored to original set *****
 -------------------------------------------------------------------
 Center     Atomic                   Forces (Hartrees/Bohr)
 Number     Number              X              Y              Z
 -------------------------------------------------------------------
      1        6          -0.000076518    0.000025176    0.000036496
      2        7           0.000128118    0.000023649    0.000051592
      3        8          -0.000034587   -0.000045489   -0.000055206
      4        8          -0.000039907   -0.000006513   -0.000066520
      5        1          -0.000037618    0.000002747    0.000016285
      6        1           0.000031958   -0.000013439    0.000018348
      7        1           0.000028554    0.000013869   -0.000000996
 -------------------------------------------------------------------
 Cartesian Forces:  Max     0.000128118 RMS     0.000045807
 FormGI is forming the generalized inverse of G from B-inverse, IUseBI=4.

 GradGradGradGradGradGradGradGradGradGradGradGradGradGradGradGradGradGrad
 Berny optimization.
 Internal  Forces:  Max     0.000077986 RMS     0.000038356
 Search for a local minimum.
 Step number   1 out of a maximum of    2
 All quantities printed in internal units (Hartrees-Bohrs-Radians)
 Second derivative matrix not updated -- analytic derivatives used.
 ITU=  0
     Eigenvalues ---    0.00317   0.04455   0.06177   0.06227   0.12989
     Eigenvalues ---    0.15122   0.15744   0.22246   0.26777   0.32372
     Eigenvalues ---    0.34749   0.34817   0.36323   0.42221   0.56276
 Angle between quadratic step and forces=  67.48 degrees.
 Linear search not attempted -- first point.
 Iteration  1 RMS(Cart)=  0.00058071 RMS(Int)=  0.00000021
 Iteration  2 RMS(Cart)=  0.00000020 RMS(Int)=  0.00000006
 Variable       Old X    -DE/DX   Delta X   Delta X   Delta X     New X
                                 (Linear)    (Quad)   (Total)
    R1        2.75974  -0.00002   0.00000  -0.00012  -0.00012   2.75963
    R2        2.08574  -0.00003   0.00000  -0.00007  -0.00007   2.08567
    R3        2.06588   0.00002   0.00000   0.00007   0.00007   2.06595
    R4        2.06592   0.00002   0.00000   0.00003   0.00003   2.06595
    R5        2.46052   0.00005   0.00000   0.00011   0.00011   2.46063
    R6        2.46053   0.00005   0.00000   0.00010   0.00010   2.46062
    A1        1.90890  -0.00007   0.00000  -0.00050  -0.00050   1.90839
    A2        1.90191   0.00006   0.00000   0.00040   0.00040   1.90231
    A3        1.90197   0.00005   0.00000   0.00034   0.00034   1.90231
    A4        1.90602  -0.00001   0.00000  -0.00025  -0.00025   1.90577
    A5        1.90586  -0.00001   0.00000  -0.00010  -0.00010   1.90577
    A6        1.93899  -0.00002   0.00000   0.00009   0.00009   1.93909
    A7        1.98955   0.00004   0.00000  -0.00002  -0.00002   1.98952
    A8        1.98941   0.00005   0.00000   0.00010   0.00010   1.98952
    A9        2.13211  -0.00008   0.00000  -0.00032  -0.00032   2.13178
    D1        1.28111  -0.00001   0.00000  -0.00124  -0.00124   1.27987
    D2       -1.27913   0.00000   0.00000  -0.00076  -0.00076  -1.27990
    D3       -0.80134   0.00001   0.00000  -0.00088  -0.00088  -0.80222
    D4        2.92160   0.00003   0.00000  -0.00040  -0.00040   2.92120
    D5       -2.91978  -0.00003   0.00000  -0.00145  -0.00145  -2.92122
    D6        0.80317  -0.00002   0.00000  -0.00097  -0.00097   0.80219
         Item               Value     Threshold  Converged?
 Maximum Force            0.000078     0.000450     YES
 RMS     Force            0.000038     0.000300     YES
 Maximum Displacement     0.001377     0.001800     YES
 RMS     Displacement     0.000581     0.001200     YES
 Predicted change in Energy=-8.808903D-08
 Optimization completed.
    -- Stationary point found.
                           ----------------------------
                           !   Optimized Parameters   !
                           ! (Angstroms and Degrees)  !
 --------------------------                            --------------------------
 ! Name  Definition              Value          Derivative Info.                !
 --------------------------------------------------------------------------------
 ! R1    R(1,2)                  1.4604         -DE/DX =    0.0                 !
 ! R2    R(1,5)                  1.1037         -DE/DX =    0.0                 !
 ! R3    R(1,6)                  1.0932         -DE/DX =    0.0                 !
 ! R4    R(1,7)                  1.0932         -DE/DX =    0.0                 !
 ! R5    R(2,3)                  1.3021         -DE/DX =    0.0001              !
 ! R6    R(2,4)                  1.3021         -DE/DX =    0.0001              !
 ! A1    A(2,1,5)              109.3718         -DE/DX =   -0.0001              !
 ! A2    A(2,1,6)              108.9712         -DE/DX =    0.0001              !
 ! A3    A(2,1,7)              108.9746         -DE/DX =    0.0                 !
 ! A4    A(5,1,6)              109.2068         -DE/DX =    0.0                 !
 ! A5    A(5,1,7)              109.198          -DE/DX =    0.0                 !
 ! A6    A(6,1,7)              111.0962         -DE/DX =    0.0                 !
 ! A7    A(1,2,3)              113.9925         -DE/DX =    0.0                 !
 ! A8    A(1,2,4)              113.985          -DE/DX =    0.0                 !
 ! A9    A(3,2,4)              122.1607         -DE/DX =   -0.0001              !
 ! D1    D(5,1,2,3)             73.4021         -DE/DX =    0.0                 !
 ! D2    D(5,1,2,4)            -73.2889         -DE/DX =    0.0                 !
 ! D3    D(6,1,2,3)            -45.9135         -DE/DX =    0.0                 !
 ! D4    D(6,1,2,4)            167.3956         -DE/DX =    0.0                 !
 ! D5    D(7,1,2,3)           -167.291          -DE/DX =    0.0                 !
 ! D6    D(7,1,2,4)             46.018          -DE/DX =    0.0                 !
 --------------------------------------------------------------------------------
 GradGradGradGradGradGradGradGradGradGradGradGradGradGradGradGradGradGrad

 1\1\GINC-KATANA3\Freq\UM062X\6-31+G(d)\C1H3N1O2(1-,2)\Z5358697\18-Mar-
 2025\0\\#N Geom=AllCheck Guess=TCheck SCRF=Check GenChk UM062X/6-31+G(
 d) Freq\\nitromethane\\-1,2\C,-0.5573852653,-0.7426732125,0.6106697199
 \N,-1.924555226,-0.903504994,0.1230956644\O,-2.3544029888,-2.132305219
 7,0.1479509239\O,-2.248229913,-0.0751221729,-0.8278842369\H,0.14823446
 98,-1.1349265568,-0.1419581091\H,-0.4427073573,-1.307180245,1.53981086
 17\H,-0.3593537195,0.3207124009,0.769315176\\Version=ES64L-G09RevD.01\
 State=2-A\HF=-244.9212385\S2=0.756193\S2-1=0.\S2A=0.750027\RMSD=1.121e
 -09\RMSF=4.581e-05\ZeroPoint=0.0481214\Thermal=0.0523397\Dipole=1.4697
 397,0.3727975,0.9459933\DipoleDeriv=0.2669166,-0.0930586,-0.1961501,-0
 .0775117,0.2910426,0.0545685,-0.1630579,0.0529023,0.355086,0.4121951,0
 .2276552,0.3366098,0.2471015,1.3793016,-0.7275808,0.3767836,-0.7296742
 ,0.2397571,-0.7593095,-0.3088833,0.0625907,-0.4027277,-1.3607739,0.459
 4412,-0.0685805,0.0090187,-0.54317,-0.7055132,0.1838537,-0.1766962,0.1
 598329,-1.1332936,0.2452435,-0.2939074,0.7084121,-0.8245218,-0.2164587
 ,0.0166494,0.0118514,0.1220067,-0.0331481,-0.0542006,0.234528,-0.06562
 92,-0.1145129,0.0040788,-0.0131416,-0.0122844,0.0379621,0.0128043,0.10
 42445,-0.067735,0.0639463,-0.1435746,-0.0019091,-0.0130748,-0.0259212,
 -0.0866639,-0.1559329,-0.0817162,-0.0180308,-0.0389759,0.0309363\Polar
 =42.8466263,1.7521849,47.6393042,2.7942618,-6.9759173,36.6354173\PG=C0
 1 [X(C1H3N1O2)]\NImag=0\\0.44164233,0.00497395,0.61818867,-0.01016540,
 -0.02969552,0.56887590,-0.17006019,-0.00643546,-0.02337703,0.43486495,
 -0.02530141,-0.07857381,0.00011717,0.10272804,0.57883836,-0.06311429,0
 .00217077,-0.08219151,0.19403204,-0.12124273,0.40712434,-0.02007108,-0
 .04790161,-0.01024521,-0.11265860,-0.09600844,-0.04075432,0.11244509,-
 0.01187901,-0.02378647,-0.00529075,-0.12705908,-0.32885900,-0.02570036
 ,0.14341988,0.41426129,0.00290430,-0.01102530,0.00412317,-0.04824206,-
 0.00875586,-0.07026578,0.03093185,-0.02161011,0.05170402,-0.01529603,0
 .02321410,-0.04247583,-0.09890572,0.01980974,-0.08299745,0.02213945,0.
 00326557,0.01945256,0.09311537,0.01077463,-0.00184891,0.01322493,0.033
 02275,-0.16220769,0.14096987,0.00358962,-0.06812598,0.04541205,-0.0490
 9524,0.22782176,-0.00588027,0.01640346,-0.02260577,-0.11315173,0.12597
 909,-0.25075611,0.01952601,0.04973679,0.01190472,0.10876688,-0.1943626
 1,0.25755113,-0.13283041,0.05423118,0.10562360,-0.04146122,0.01314514,
 0.02318253,0.00444551,-0.00394735,-0.00219012,0.00463030,0.00045370,-0
 .00427917,0.15777804,0.05272222,-0.08187174,-0.06187239,-0.00135633,0.
 00201112,0.00234118,0.00113943,0.00302835,-0.00001406,-0.00011973,-0.0
 0126779,0.00202081,-0.06097151,0.08107914,0.10243909,-0.06170997,-0.16
 921248,-0.00742344,0.00390159,0.00826420,0.00149559,0.00511342,0.00014
 196,0.00153486,-0.00358918,0.00427748,-0.11669049,0.06875946,0.1780830
 9,-0.04937334,0.00706825,-0.01339741,-0.00443290,0.02105177,-0.0286379
 4,0.00106653,-0.00030107,0.00125034,-0.00699425,-0.00006770,-0.0055738
 1,0.00291112,-0.01123675,0.01660825,0.05668560,0.01345946,-0.12493822,
 0.12114812,-0.00026270,-0.00272660,-0.00250764,-0.00132121,0.00117803,
 -0.00174010,0.00097291,0.00260677,0.00071804,-0.00130245,0.00691548,-0
 .01140164,-0.01479930,0.12893913,-0.02082469,0.11694415,-0.24300952,-0
 .00036357,0.01102055,-0.01042538,0.00120970,-0.00224434,0.00143901,-0.
 00410218,-0.00170793,0.00028142,-0.00181427,0.01161471,-0.01836695,0.0
 2431180,-0.13234772,0.26290370,-0.05401128,-0.03515040,-0.00596272,-0.
 00734633,-0.03542483,-0.00171058,-0.00736690,-0.00349895,-0.00410688,0
 .00131088,0.00132225,0.00059208,0.00452666,0.01982267,0.00203614,0.000
 13723,0.00325330,0.00158321,0.06274974,-0.04474984,-0.30716952,-0.0376
 3156,-0.00063722,-0.00848237,0.00396891,-0.00291767,0.00230377,-0.0022
 6662,0.00195266,0.00302184,-0.00049558,-0.00160871,-0.00989456,-0.0010
 7369,-0.00171520,-0.01197459,-0.00327944,0.04967598,0.33219543,-0.0053
 5874,-0.03308758,-0.05597979,-0.00147421,-0.01101980,-0.00174977,-0.00
 216363,-0.00000466,0.00095291,-0.00017884,0.00005285,-0.00065287,-0.00
 383208,-0.02284971,-0.00318730,0.00543876,0.02613093,0.00717772,0.0075
 6875,0.04077798,0.05343909\\0.00007652,-0.00002518,-0.00003650,-0.0001
 2812,-0.00002365,-0.00005159,0.00003459,0.00004549,0.00005521,0.000039
 91,0.00000651,0.00006652,0.00003762,-0.00000275,-0.00001629,-0.0000319
 6,0.00001344,-0.00001835,-0.00002855,-0.00001387,0.00000100\\\@


 Sacred cows make the best hamburger.
                               -- Mark Twain
 Job cpu time:       0 days  0 hours  0 minutes 53.1 seconds.
 File lengths (MBytes):  RWF=    137 Int=      0 D2E=      0 Chk=      2 Scr=      2
 Normal termination of Gaussian 09 at Tue Mar 18 20:01:04 2025.
