 Entering Gaussian System, Link 0=g09
 Initial command:
 /apps/z_install_tree/linux-rocky8-ivybridge/gcc-12.2.0/gaussian-09-D.01-wczn3gur5lpur3omlkzwa2l5ecyxp5ef/g09/l1.exe "/srv/scratch/z5358697/gauss/Gau-3359195.inp" -scrdir="/srv/scratch/z5358697/gauss/"
 Entering Link 1 = /apps/z_install_tree/linux-rocky8-ivybridge/gcc-12.2.0/gaussian-09-D.01-wczn3gur5lpur3omlkzwa2l5ecyxp5ef/g09/l1.exe PID=   3359236.
  
 Copyright (c) 1988,1990,1992,1993,1995,1998,2003,2009,2013,
            Gaussian, Inc.  All Rights Reserved.
  
 This is part of the Gaussian(R) 09 program.  It is based on
 the Gaussian(R) 03 system (copyright 2003, Gaussian, Inc.),
 the Gaussian(R) 98 system (copyright 1998, Gaussian, Inc.),
 the Gaussian(R) 94 system (copyright 1995, Gaussian, Inc.),
 the Gaussian 92(TM) system (copyright 1992, Gaussian, Inc.),
 the Gaussian 90(TM) system (copyright 1990, Gaussian, Inc.),
 the Gaussian 88(TM) system (copyright 1988, Gaussian, Inc.),
 the Gaussian 86(TM) system (copyright 1986, Carnegie Mellon
 University), and the Gaussian 82(TM) system (copyright 1983,
 Carnegie Mellon University). Gaussian is a federally registered
 trademark of Gaussian, Inc.
  
 This software contains proprietary and confidential information,
 including trade secrets, belonging to Gaussian, Inc.
  
 This software is provided under written license and may be
 used, copied, transmitted, or stored only in accord with that
 written license.
  
 The following legend is applicable only to US Government
 contracts under FAR:
  
                    RESTRICTED RIGHTS LEGEND
  
 Use, reproduction and disclosure by the US Government is
 subject to restrictions as set forth in subparagraphs (a)
 and (c) of the Commercial Computer Software - Restricted
 Rights clause in FAR 52.227-19.
  
 Gaussian, Inc.
 340 Quinnipiac St., Bldg. 40, Wallingford CT 06492
  
  
 ---------------------------------------------------------------
 Warning -- This program may not be used in any manner that
 competes with the business of Gaussian, Inc. or will provide
 assistance to any competitor of Gaussian, Inc.  The licensee
 of this program is prohibited from giving any competitor of
 Gaussian, Inc. access to this program.  By using this program,
 the user acknowledges that Gaussian, Inc. is engaged in the
 business of creating and licensing software in the field of
 computational chemistry and represents and warrants to the
 licensee that it is not a competitor of Gaussian, Inc. and that
 it will not use this program in any manner prohibited above.
 ---------------------------------------------------------------
  

 Cite this work as:
 Gaussian 09, Revision D.01,
 M. J. Frisch, G. W. Trucks, H. B. Schlegel, G. E. Scuseria, 
 M. A. Robb, J. R. Cheeseman, G. Scalmani, V. Barone, B. Mennucci, 
 G. A. Petersson, H. Nakatsuji, M. Caricato, X. Li, H. P. Hratchian, 
 A. F. Izmaylov, J. Bloino, G. Zheng, J. L. Sonnenberg, M. Hada, 
 M. Ehara, K. Toyota, R. Fukuda, J. Hasegawa, M. Ishida, T. Nakajima, 
 Y. Honda, O. Kitao, H. Nakai, T. Vreven, J. A. Montgomery, Jr., 
 J. E. Peralta, F. Ogliaro, M. Bearpark, J. J. Heyd, E. Brothers, 
 K. N. Kudin, V. N. Staroverov, T. Keith, R. Kobayashi, J. Normand, 
 K. Raghavachari, A. Rendell, J. C. Burant, S. S. Iyengar, J. Tomasi, 
 M. Cossi, N. Rega, J. M. Millam, M. Klene, J. E. Knox, J. B. Cross, 
 V. Bakken, C. Adamo, J. Jaramillo, R. Gomperts, R. E. Stratmann, 
 O. Yazyev, A. J. Austin, R. Cammi, C. Pomelli, J. W. Ochterski, 
 R. L. Martin, K. Morokuma, V. G. Zakrzewski, G. A. Voth, 
 P. Salvador, J. J. Dannenberg, S. Dapprich, A. D. Daniels, 
 O. Farkas, J. B. Foresman, J. V. Ortiz, J. Cioslowski, 
 and D. J. Fox, Gaussian, Inc., Wallingford CT, 2013.
 
 ******************************************
 Gaussian 09:  ES64L-G09RevD.01 24-Apr-2013
                16-Mar-2025 
 ******************************************
 ---------------------------------
 #m062X/6-31+G(d) OPT Freq=noraman
 ---------------------------------
 1/14=-1,18=20,19=15,26=3,38=1/1,3;
 2/9=110,12=2,17=6,18=5,40=1/2;
 3/5=1,6=6,7=11,11=2,16=1,25=1,30=1,71=1,74=-55/1,2,3;
 4//1;
 5/5=2,38=5/2;
 6/7=2,8=2,9=2,10=2,28=1/1;
 7//1,2,3,16;
 1/14=-1,18=20,19=15,26=3/3(2);
 2/9=110/2;
 99//99;
 2/9=110/2;
 3/5=1,6=6,7=11,11=2,16=1,25=1,30=1,71=1,74=-55/1,2,3;
 4/5=5,16=3,69=1/1;
 5/5=2,38=5/2;
 7//1,2,3,16;
 1/14=-1,18=20,19=15,26=3/3(-5);
 2/9=110/2;
 6/7=2,8=2,9=2,10=2,19=2,28=1/1;
 99/9=1/99;
 ----------------------
 1,3,5-trichlorobenzene
 ----------------------
 Symbolic Z-matrix:
 Charge =  0 Multiplicity = 1
 C                     1.8851   -1.0363   -0.1124 
 C                     2.921    -1.6309    0.6081 
 C                     2.8783   -1.652     2.0022 
 C                     1.7997   -1.0786    2.6757 
 C                     0.7638   -0.4841    1.9551 
 C                     0.8066   -0.463     0.561 
 Cl                   -0.471     0.2711   -0.3284 
 Cl                    1.7471   -1.1052    4.3957 
 Cl                    4.2525   -2.3376   -0.2223 
 H                     1.9177   -1.0202   -1.1999 
 H                     3.6864   -2.1158    2.5642 
 H                    -0.0777   -0.0368    2.4802 
 

 GradGradGradGradGradGradGradGradGradGradGradGradGradGradGradGradGradGrad
 Berny optimization.
 Initialization pass.
                           ----------------------------
                           !    Initial Parameters    !
                           ! (Angstroms and Degrees)  !
 --------------------------                            --------------------------
 ! Name  Definition              Value          Derivative Info.                !
 --------------------------------------------------------------------------------
 ! R1    R(1,2)                  1.3949         estimate D2E/DX2                !
 ! R2    R(1,6)                  1.3947         estimate D2E/DX2                !
 ! R3    R(1,10)                 1.0881         estimate D2E/DX2                !
 ! R4    R(2,3)                  1.3949         estimate D2E/DX2                !
 ! R5    R(2,9)                  1.721          estimate D2E/DX2                !
 ! R6    R(3,4)                  1.3949         estimate D2E/DX2                !
 ! R7    R(3,11)                 1.0881         estimate D2E/DX2                !
 ! R8    R(4,5)                  1.3949         estimate D2E/DX2                !
 ! R9    R(4,8)                  1.721          estimate D2E/DX2                !
 ! R10   R(5,6)                  1.3949         estimate D2E/DX2                !
 ! R11   R(5,12)                 1.0881         estimate D2E/DX2                !
 ! R12   R(6,7)                  1.7211         estimate D2E/DX2                !
 ! A1    A(2,1,6)              120.0052         estimate D2E/DX2                !
 ! A2    A(2,1,10)             120.0193         estimate D2E/DX2                !
 ! A3    A(6,1,10)             119.9755         estimate D2E/DX2                !
 ! A4    A(1,2,3)              119.9958         estimate D2E/DX2                !
 ! A5    A(1,2,9)              120.0242         estimate D2E/DX2                !
 ! A6    A(3,2,9)              119.98           estimate D2E/DX2                !
 ! A7    A(2,3,4)              119.9999         estimate D2E/DX2                !
 ! A8    A(2,3,11)             119.9937         estimate D2E/DX2                !
 ! A9    A(4,3,11)             120.0064         estimate D2E/DX2                !
 ! A10   A(3,4,5)              119.9999         estimate D2E/DX2                !
 ! A11   A(3,4,8)              119.9883         estimate D2E/DX2                !
 ! A12   A(5,4,8)              120.0118         estimate D2E/DX2                !
 ! A13   A(4,5,6)              119.9967         estimate D2E/DX2                !
 ! A14   A(4,5,12)             120.0153         estimate D2E/DX2                !
 ! A15   A(6,5,12)             119.9881         estimate D2E/DX2                !
 ! A16   A(1,6,5)              120.0026         estimate D2E/DX2                !
 ! A17   A(1,6,7)              119.9885         estimate D2E/DX2                !
 ! A18   A(5,6,7)              120.0089         estimate D2E/DX2                !
 ! D1    D(6,1,2,3)             -0.0063         estimate D2E/DX2                !
 ! D2    D(6,1,2,9)           -179.9623         estimate D2E/DX2                !
 ! D3    D(10,1,2,3)          -179.96           estimate D2E/DX2                !
 ! D4    D(10,1,2,9)             0.0839         estimate D2E/DX2                !
 ! D5    D(2,1,6,5)              0.004          estimate D2E/DX2                !
 ! D6    D(2,1,6,7)            179.9751         estimate D2E/DX2                !
 ! D7    D(10,1,6,5)           179.9578         estimate D2E/DX2                !
 ! D8    D(10,1,6,7)            -0.0711         estimate D2E/DX2                !
 ! D9    D(1,2,3,4)              0.0043         estimate D2E/DX2                !
 ! D10   D(1,2,3,11)          -179.9977         estimate D2E/DX2                !
 ! D11   D(9,2,3,4)            179.9604         estimate D2E/DX2                !
 ! D12   D(9,2,3,11)            -0.0417         estimate D2E/DX2                !
 ! D13   D(2,3,4,5)              0.0            estimate D2E/DX2                !
 ! D14   D(2,3,4,8)            179.9824         estimate D2E/DX2                !
 ! D15   D(11,3,4,5)          -179.998          estimate D2E/DX2                !
 ! D16   D(11,3,4,8)            -0.0155         estimate D2E/DX2                !
 ! D17   D(3,4,5,6)             -0.0023         estimate D2E/DX2                !
 ! D18   D(3,4,5,12)           179.9965         estimate D2E/DX2                !
 ! D19   D(8,4,5,6)           -179.9847         estimate D2E/DX2                !
 ! D20   D(8,4,5,12)             0.0141         estimate D2E/DX2                !
 ! D21   D(4,5,6,1)              0.0003         estimate D2E/DX2                !
 ! D22   D(4,5,6,7)           -179.9708         estimate D2E/DX2                !
 ! D23   D(12,5,6,1)          -179.9985         estimate D2E/DX2                !
 ! D24   D(12,5,6,7)             0.0304         estimate D2E/DX2                !
 --------------------------------------------------------------------------------
 Trust Radius=3.00D-01 FncErr=1.00D-07 GrdErr=1.00D-06
 Number of steps in this run=     64 maximum allowed number of steps=    100.
 GradGradGradGradGradGradGradGradGradGradGradGradGradGradGradGradGradGrad

                          Input orientation:                          
 ---------------------------------------------------------------------
 Center     Atomic      Atomic             Coordinates (Angstroms)
 Number     Number       Type             X           Y           Z
 ---------------------------------------------------------------------
      1          6           0        1.885100   -1.036300   -0.112400
      2          6           0        2.921000   -1.630900    0.608100
      3          6           0        2.878300   -1.652000    2.002200
      4          6           0        1.799700   -1.078600    2.675700
      5          6           0        0.763800   -0.484100    1.955100
      6          6           0        0.806600   -0.463000    0.561000
      7         17           0       -0.471000    0.271100   -0.328400
      8         17           0        1.747100   -1.105200    4.395700
      9         17           0        4.252500   -2.337600   -0.222300
     10          1           0        1.917700   -1.020200   -1.199900
     11          1           0        3.686400   -2.115800    2.564200
     12          1           0       -0.077700   -0.036800    2.480200
 ---------------------------------------------------------------------
                    Distance matrix (angstroms):
                    1          2          3          4          5
     1  C    0.000000
     2  C    1.394904   0.000000
     3  C    2.416002   1.394913   0.000000
     4  C    2.789728   2.416054   1.394908   0.000000
     5  C    2.415946   2.789816   2.416054   1.394913   0.000000
     6  C    1.394741   2.415967   2.789753   2.416023   1.394916
     7  Cl   2.703176   4.000038   4.510856   4.000298   2.703596
     8  Cl   4.510738   4.000039   2.703229   1.721010   2.703548
     9  Cl   2.703709   1.721012   2.703123   3.999964   4.510827
    10  H    1.088108   2.156022   3.402259   3.877836   3.401899
    11  H    3.402086   2.155758   1.088108   2.155888   3.402211
    12  H    3.401935   3.877901   3.402248   2.155968   1.088085
                    6          7          8          9         10
     6  C    0.000000
     7  Cl   1.721103   0.000000
     8  Cl   4.000236   5.397341   0.000000
     9  Cl   4.000239   5.397039   5.396458   0.000000
    10  H    2.155408   2.851816   5.598845   2.853513   0.000000
    11  H    3.877861   5.598964   2.852471   2.852060   4.300824
    12  H    2.155681   2.852669   2.853159   5.598912   4.300213
                   11         12
    11  H    0.000000
    12  H    4.300901   0.000000
 Stoichiometry    C6H3Cl3
 Framework group  C1[X(C6H3Cl3)]
 Deg. of freedom    30
 Full point group                 C1      NOp   1
 Largest Abelian subgroup         C1      NOp   1
 Largest concise Abelian subgroup C1      NOp   1
                         Standard orientation:                         
 ---------------------------------------------------------------------
 Center     Atomic      Atomic             Coordinates (Angstroms)
 Number     Number       Type             X           Y           Z
 ---------------------------------------------------------------------
      1          6           0        0.884779    1.078314    0.000519
      2          6           0       -0.491532    1.305309    0.000478
      3          6           0       -1.376198    0.226814    0.000131
      4          6           0       -0.884526   -1.078569   -0.000084
      5          6           0        0.491812   -1.305459    0.000048
      6          6           0        1.376411   -0.226907    0.000347
      7         17           0        3.074655   -0.506489   -0.000249
      8         17           0       -1.976272   -2.408969   -0.000055
      9         17           0       -1.098706    2.915656   -0.000289
     10          1           0        1.575211    1.919314    0.001447
     11          1           0       -2.449796    0.403923    0.000061
     12          1           0        0.875609   -2.323608   -0.000062
 ---------------------------------------------------------------------
 Rotational constants (GHZ):      0.8587072      0.8584158      0.4292807
 Standard basis: 6-31+G(d) (6D, 7F)
 There are   189 symmetry adapted cartesian basis functions of A   symmetry.
 There are   189 symmetry adapted basis functions of A   symmetry.
   189 basis functions,   372 primitive gaussians,   189 cartesian basis functions
    45 alpha electrons       45 beta electrons
       nuclear repulsion energy       615.2511758386 Hartrees.
 NAtoms=   12 NActive=   12 NUniq=   12 SFac= 1.00D+00 NAtFMM=   60 NAOKFM=F Big=F
 Integral buffers will be    131072 words long.
 Raffenetti 2 integral format.
 Two-electron integral symmetry is turned on.
 One-electron integrals computed using PRISM.
 NBasis=   189 RedAO= T EigKep=  3.26D-06  NBF=   189
 NBsUse=   189 1.00D-06 EigRej= -1.00D+00 NBFU=   189
 ExpMin= 4.38D-02 ExpMax= 2.52D+04 ExpMxC= 3.78D+03 IAcc=2 IRadAn=         4 AccDes= 0.00D+00
 Harris functional with IExCor= 1009 and IRadAn=       4 diagonalized for initial guess.
 HarFok:  IExCor= 1009 AccDes= 0.00D+00 IRadAn=         4 IDoV= 1 UseB2=F ITyADJ=14
 ICtDFT=  3500011 ScaDFX=  1.000000  1.000000  1.000000  1.000000
 FoFCou: FMM=F IPFlag=           0 FMFlag=      100000 FMFlg1=           0
         NFxFlg=           0 DoJE=T BraDBF=F KetDBF=T FulRan=T
         wScrn=  0.000000 ICntrl=     500 IOpCl=  0 I1Cent=   200000004 NGrid=           0
         NMat0=    1 NMatS0=      1 NMatT0=    0 NMatD0=    1 NMtDS0=    0 NMtDT0=    0
 Petite list used in FoFCou.
 Requested convergence on RMS density matrix=1.00D-08 within 128 cycles.
 Requested convergence on MAX density matrix=1.00D-06.
 Requested convergence on             energy=1.00D-06.
 No special actions if energy rises.
 SCF Done:  E(RM062X) =  -1610.84909021     A.U. after   13 cycles
            NFock= 13  Conv=0.45D-08     -V/T= 2.0035

 **********************************************************************

            Population analysis using the SCF density.

 **********************************************************************

 Orbital symmetries:
       Occupied  (A) (A) (A) (A) (A) (A) (A) (A) (A) (A) (A) (A)
                 (A) (A) (A) (A) (A) (A) (A) (A) (A) (A) (A) (A)
                 (A) (A) (A) (A) (A) (A) (A) (A) (A) (A) (A) (A)
                 (A) (A) (A) (A) (A) (A) (A) (A) (A)
       Virtual   (A) (A) (A) (A) (A) (A) (A) (A) (A) (A) (A) (A)
                 (A) (A) (A) (A) (A) (A) (A) (A) (A) (A) (A) (A)
                 (A) (A) (A) (A) (A) (A) (A) (A) (A) (A) (A) (A)
                 (A) (A) (A) (A) (A) (A) (A) (A) (A) (A) (A) (A)
                 (A) (A) (A) (A) (A) (A) (A) (A) (A) (A) (A) (A)
                 (A) (A) (A) (A) (A) (A) (A) (A) (A) (A) (A) (A)
                 (A) (A) (A) (A) (A) (A) (A) (A) (A) (A) (A) (A)
                 (A) (A) (A) (A) (A) (A) (A) (A) (A) (A) (A) (A)
                 (A) (A) (A) (A) (A) (A) (A) (A) (A) (A) (A) (A)
                 (A) (A) (A) (A) (A) (A) (A) (A) (A) (A) (A) (A)
                 (A) (A) (A) (A) (A) (A) (A) (A) (A) (A) (A) (A)
                 (A) (A) (A) (A) (A) (A) (A) (A) (A) (A) (A) (A)
 The electronic state is 1-A.
 Alpha  occ. eigenvalues -- -102.69274-102.69272-102.69272 -10.64668 -10.64666
 Alpha  occ. eigenvalues --  -10.64664 -10.59432 -10.59431 -10.59430  -9.83956
 Alpha  occ. eigenvalues --   -9.83955  -9.83954  -7.56375  -7.56375  -7.56374
 Alpha  occ. eigenvalues --   -7.55687  -7.55686  -7.55686  -7.55669  -7.55667
 Alpha  occ. eigenvalues --   -7.55667  -1.04386  -0.99995  -0.99993  -0.92676
 Alpha  occ. eigenvalues --   -0.85247  -0.85245  -0.70984  -0.70982  -0.61852
 Alpha  occ. eigenvalues --   -0.58993  -0.55819  -0.52530  -0.52528  -0.51420
 Alpha  occ. eigenvalues --   -0.46501  -0.46498  -0.45188  -0.45185  -0.40384
 Alpha  occ. eigenvalues --   -0.40383  -0.38985  -0.38490  -0.31956  -0.31954
 Alpha virt. eigenvalues --   -0.01571  -0.01569   0.00803   0.01784   0.02615
 Alpha virt. eigenvalues --    0.02619   0.04539   0.04541   0.05028   0.05825
 Alpha virt. eigenvalues --    0.08042   0.08047   0.08789   0.08794   0.09419
 Alpha virt. eigenvalues --    0.10468   0.11415   0.11429   0.11665   0.12211
 Alpha virt. eigenvalues --    0.12220   0.12923   0.12925   0.15253   0.15254
 Alpha virt. eigenvalues --    0.15976   0.17840   0.17862   0.17873   0.18437
 Alpha virt. eigenvalues --    0.20071   0.20132   0.20138   0.20435   0.22967
 Alpha virt. eigenvalues --    0.23342   0.23346   0.24798   0.24811   0.25676
 Alpha virt. eigenvalues --    0.27991   0.28006   0.29969   0.31252   0.31259
 Alpha virt. eigenvalues --    0.32497   0.32500   0.36044   0.36047   0.48693
 Alpha virt. eigenvalues --    0.50690   0.59373   0.60314   0.60318   0.62601
 Alpha virt. eigenvalues --    0.64428   0.64432   0.65038   0.65991   0.66000
 Alpha virt. eigenvalues --    0.68370   0.70334   0.70654   0.70662   0.73196
 Alpha virt. eigenvalues --    0.73589   0.73591   0.75272   0.75275   0.77246
 Alpha virt. eigenvalues --    0.78577   0.79620   0.79623   0.85664   0.85668
 Alpha virt. eigenvalues --    0.91286   0.91775   0.92206   0.92212   0.96353
 Alpha virt. eigenvalues --    0.96355   0.96507   0.96509   0.96510   0.99124
 Alpha virt. eigenvalues --    0.99127   0.99987   1.00327   1.02232   1.09104
 Alpha virt. eigenvalues --    1.09108   1.12376   1.12386   1.17094   1.22844
 Alpha virt. eigenvalues --    1.22847   1.24756   1.24766   1.25426   1.32368
 Alpha virt. eigenvalues --    1.33596   1.44094   1.44097   1.47393   1.47399
 Alpha virt. eigenvalues --    1.49405   1.49412   1.51750   1.59610   1.59612
 Alpha virt. eigenvalues --    1.79357   1.83356   1.83723   2.00829   2.00989
 Alpha virt. eigenvalues --    2.00995   2.10879   2.10887   2.14403   2.14408
 Alpha virt. eigenvalues --    2.18360   2.18367   2.28123   2.28134   2.31575
 Alpha virt. eigenvalues --    2.57597   2.57601   2.61548   2.68203   2.68212
 Alpha virt. eigenvalues --    2.72608   2.72623   2.84625   3.00294   3.29997
 Alpha virt. eigenvalues --    4.20401   4.27018   4.27028   4.35679   4.35683
 Alpha virt. eigenvalues --    4.42240   4.46728   4.46737   4.67005
          Condensed to atoms (all electrons):
               1          2          3          4          5          6
     1  C    8.282525   0.269297  -1.496553   0.282126  -1.487781   0.266505
     2  C    0.269297   6.217326   0.269910  -0.425021   0.280088  -0.405810
     3  C   -1.496553   0.269910   8.287807   0.269165  -1.497456   0.282311
     4  C    0.282126  -0.425021   0.269165   6.210518   0.277728  -0.410031
     5  C   -1.487781   0.280088  -1.497456   0.277728   8.280634   0.264896
     6  C    0.266505  -0.405810   0.282311  -0.410031   0.264896   6.207917
     7  Cl  -0.045272   0.036896   0.051705   0.035973  -0.041606  -0.190917
     8  Cl   0.052277   0.039752  -0.040296  -0.198940  -0.044322   0.036845
     9  Cl  -0.043189  -0.199532  -0.040592   0.039931   0.052593   0.036358
    10  H    0.073977   0.055175   0.068360  -0.016429   0.068338   0.055311
    11  H    0.068247   0.054935   0.074577   0.055103   0.068291  -0.016371
    12  H    0.068479  -0.016418   0.068204   0.054760   0.074218   0.055560
               7          8          9         10         11         12
     1  C   -0.045272   0.052277  -0.043189   0.073977   0.068247   0.068479
     2  C    0.036896   0.039752  -0.199532   0.055175   0.054935  -0.016418
     3  C    0.051705  -0.040296  -0.040592   0.068360   0.074577   0.068204
     4  C    0.035973  -0.198940   0.039931  -0.016429   0.055103   0.054760
     5  C   -0.041606  -0.044322   0.052593   0.068338   0.068291   0.074218
     6  C   -0.190917   0.036845   0.036358   0.055311  -0.016371   0.055560
     7  Cl  16.929556  -0.002141  -0.002146   0.001155   0.000286   0.001131
     8  Cl  -0.002141  16.931931  -0.002250   0.000285   0.001134   0.001180
     9  Cl  -0.002146  -0.002250  16.931582   0.001205   0.001104   0.000286
    10  H    0.001155   0.000285   0.001205   0.445244  -0.000118  -0.000118
    11  H    0.000286   0.001134   0.001104  -0.000118   0.445270  -0.000118
    12  H    0.001131   0.001180   0.000286  -0.000118  -0.000118   0.445232
 Mulliken charges:
               1
     1  C   -0.290637
     2  C   -0.176598
     3  C   -0.297141
     4  C   -0.174884
     5  C   -0.295620
     6  C   -0.182573
     7  Cl   0.225380
     8  Cl   0.224544
     9  Cl   0.224651
    10  H    0.247614
    11  H    0.247660
    12  H    0.247604
 Sum of Mulliken charges =   0.00000
 Mulliken charges with hydrogens summed into heavy atoms:
               1
     1  C   -0.043023
     2  C   -0.176598
     3  C   -0.049481
     4  C   -0.174884
     5  C   -0.048016
     6  C   -0.182573
     7  Cl   0.225380
     8  Cl   0.224544
     9  Cl   0.224651
 Electronic spatial extent (au):  <R**2>=           2247.5502
 Charge=              0.0000 electrons
 Dipole moment (field-independent basis, Debye):
    X=              0.0006    Y=              0.0000    Z=              0.0008  Tot=              0.0010
 Quadrupole moment (field-independent basis, Debye-Ang):
   XX=            -72.2736   YY=            -72.2670   ZZ=            -74.8602
   XY=              0.0002   XZ=              0.0013   YZ=              0.0016
 Traceless Quadrupole moment (field-independent basis, Debye-Ang):
   XX=              0.8600   YY=              0.8666   ZZ=             -1.7266
   XY=              0.0002   XZ=              0.0013   YZ=              0.0016
 Octapole moment (field-independent basis, Debye-Ang**2):
  XXX=             -6.4858  YYY=             -3.4560  ZZZ=             -0.0055  XYY=              6.4928
  XXY=              3.4611  XXZ=             -0.0021  XZZ=             -0.0030  YZZ=              0.0009
  YYZ=             -0.0008  XYZ=              0.0066
 Hexadecapole moment (field-independent basis, Debye-Ang**3):
 XXXX=          -1369.4505 YYYY=          -1368.8924 ZZZZ=            -85.9522 XXXY=              0.0146
 XXXZ=             -0.0177 YYYX=             -0.0069 YYYZ=             -0.0174 ZZZX=             -0.0025
 ZZZY=             -0.0048 XXYY=           -456.3821 XXZZ=           -257.1690 YYZZ=           -257.0809
 XXYZ=              0.0051 YYXZ=              0.0146 ZZXY=              0.0015
 N-N= 6.152511758386D+02 E-N=-5.043974459254D+03  KE= 1.605177831386D+03
 Calling FoFJK, ICntrl=      2127 FMM=F ISym2X=0 I1Cent= 0 IOpClX= 0 NMat=1 NMatS=1 NMatT=0.
 ***** Axes restored to original set *****
 -------------------------------------------------------------------
 Center     Atomic                   Forces (Hartrees/Bohr)
 Number     Number              X              Y              Z
 -------------------------------------------------------------------
      1        6           0.000268418    0.000091089   -0.009961072
      2        6          -0.015435412    0.008253482    0.009961076
      3        6           0.007281742   -0.004178660    0.005063043
      4        6           0.000733717    0.000197841   -0.020140980
      5        6          -0.007678958    0.004094060    0.004639598
      6        6           0.014775902   -0.008442035    0.010257775
      7       17          -0.004320615    0.002453434   -0.002891520
      8       17          -0.000255425   -0.000040176    0.005941939
      9       17           0.004543875   -0.002439208   -0.002902138
     10        1           0.000053657   -0.000042238    0.001904933
     11        1          -0.001419657    0.000821320   -0.001021218
     12        1           0.001452756   -0.000768907   -0.000851436
 -------------------------------------------------------------------
 Cartesian Forces:  Max     0.020140980 RMS     0.006694853

 GradGradGradGradGradGradGradGradGradGradGradGradGradGradGradGradGradGrad
 Berny optimization.
 FormGI is forming the generalized inverse of G from B-inverse, IUseBI=4.
 Internal  Forces:  Max     0.005946882 RMS     0.002907683
 Search for a local minimum.
 Step number   1 out of a maximum of   64
 All quantities printed in internal units (Hartrees-Bohrs-Radians)
 Mixed Optimization -- RFO/linear search
 Second derivative matrix not updated -- first step.
 ITU=  0
     Eigenvalues ---    0.02156   0.02156   0.02156   0.02156   0.02156
     Eigenvalues ---    0.02156   0.02157   0.02157   0.02158   0.16000
     Eigenvalues ---    0.16000   0.16000   0.23479   0.23479   0.23500
     Eigenvalues ---    0.25000   0.25000   0.25000   0.33466   0.33476
     Eigenvalues ---    0.33476   0.35032   0.35032   0.35035   0.42416
     Eigenvalues ---    0.42424   0.46474   0.46474   0.46475   0.46494
 RFO step:  Lambda=-1.66460212D-03 EMin= 2.15602092D-02
 Linear search not attempted -- first point.
 Iteration  1 RMS(Cart)=  0.00681238 RMS(Int)=  0.00006602
 Iteration  2 RMS(Cart)=  0.00009070 RMS(Int)=  0.00000135
 Iteration  3 RMS(Cart)=  0.00000000 RMS(Int)=  0.00000135
 Variable       Old X    -DE/DX   Delta X   Delta X   Delta X     New X
                                 (Linear)    (Quad)   (Total)
    R1        2.63599  -0.00302   0.00000  -0.00648  -0.00648   2.62951
    R2        2.63568  -0.00298   0.00000  -0.00638  -0.00638   2.62930
    R3        2.05623  -0.00190   0.00000  -0.00541  -0.00541   2.05082
    R4        2.63600  -0.00322   0.00000  -0.00691  -0.00691   2.62910
    R5        3.25224   0.00592   0.00000   0.01759   0.01759   3.26983
    R6        2.63599  -0.00316   0.00000  -0.00678  -0.00678   2.62921
    R7        2.05623  -0.00193   0.00000  -0.00549  -0.00549   2.05074
    R8        2.63600  -0.00307   0.00000  -0.00659  -0.00659   2.62941
    R9        3.25224   0.00595   0.00000   0.01768   0.01768   3.26991
   R10        2.63601  -0.00315   0.00000  -0.00675  -0.00675   2.62926
   R11        2.05618  -0.00185   0.00000  -0.00526  -0.00526   2.05093
   R12        3.25241   0.00575   0.00000   0.01709   0.01709   3.26950
    A1        2.09449  -0.00564   0.00000  -0.02379  -0.02379   2.07069
    A2        2.09473   0.00273   0.00000   0.01131   0.01131   2.10604
    A3        2.09397   0.00292   0.00000   0.01249   0.01249   2.10645
    A4        2.09432   0.00566   0.00000   0.02393   0.02393   2.11825
    A5        2.09482  -0.00294   0.00000  -0.01239  -0.01239   2.08242
    A6        2.09405  -0.00272   0.00000  -0.01153  -0.01153   2.08251
    A7        2.09439  -0.00564   0.00000  -0.02388  -0.02388   2.07051
    A8        2.09429   0.00278   0.00000   0.01170   0.01169   2.10598
    A9        2.09451   0.00286   0.00000   0.01219   0.01219   2.10669
   A10        2.09439   0.00565   0.00000   0.02383   0.02383   2.11822
   A11        2.09419  -0.00270   0.00000  -0.01143  -0.01143   2.08277
   A12        2.09460  -0.00295   0.00000  -0.01240  -0.01240   2.08220
   A13        2.09434  -0.00558   0.00000  -0.02359  -0.02359   2.07075
   A14        2.09466   0.00273   0.00000   0.01142   0.01142   2.10609
   A15        2.09419   0.00285   0.00000   0.01217   0.01217   2.10635
   A16        2.09444   0.00555   0.00000   0.02351   0.02351   2.11795
   A17        2.09419  -0.00260   0.00000  -0.01106  -0.01106   2.08313
   A18        2.09455  -0.00295   0.00000  -0.01244  -0.01244   2.08211
    D1       -0.00011   0.00001   0.00000   0.00032   0.00032   0.00021
    D2       -3.14094  -0.00001   0.00000  -0.00058  -0.00058  -3.14151
    D3       -3.14090  -0.00001   0.00000  -0.00035  -0.00035  -3.14124
    D4        0.00146  -0.00003   0.00000  -0.00125  -0.00125   0.00022
    D5        0.00007  -0.00001   0.00000  -0.00024  -0.00023  -0.00016
    D6        3.14116   0.00001   0.00000   0.00039   0.00039   3.14155
    D7        3.14086   0.00001   0.00000   0.00044   0.00044   3.14129
    D8       -0.00124   0.00002   0.00000   0.00106   0.00106  -0.00018
    D9        0.00007   0.00000   0.00000  -0.00014  -0.00014  -0.00007
   D10       -3.14155   0.00000   0.00000  -0.00016  -0.00017   3.14147
   D11        3.14090   0.00002   0.00000   0.00076   0.00076  -3.14153
   D12       -0.00073   0.00002   0.00000   0.00074   0.00074   0.00001
   D13        0.00000   0.00000   0.00000  -0.00013  -0.00013  -0.00013
   D14        3.14129   0.00001   0.00000   0.00033   0.00033  -3.14157
   D15       -3.14156   0.00000   0.00000  -0.00011  -0.00011   3.14152
   D16       -0.00027   0.00001   0.00000   0.00035   0.00035   0.00008
   D17       -0.00004   0.00001   0.00000   0.00022   0.00022   0.00018
   D18        3.14153   0.00000   0.00000   0.00014   0.00015  -3.14151
   D19       -3.14133  -0.00001   0.00000  -0.00024  -0.00024  -3.14156
   D20        0.00025  -0.00001   0.00000  -0.00031  -0.00031  -0.00007
   D21        0.00001   0.00000   0.00000  -0.00004  -0.00003  -0.00003
   D22       -3.14108  -0.00002   0.00000  -0.00066  -0.00066   3.14144
   D23       -3.14157   0.00000   0.00000   0.00004   0.00004  -3.14153
   D24        0.00053  -0.00001   0.00000  -0.00058  -0.00058  -0.00005
         Item               Value     Threshold  Converged?
 Maximum Force            0.005947     0.000450     NO 
 RMS     Force            0.002908     0.000300     NO 
 Maximum Displacement     0.025147     0.001800     NO 
 RMS     Displacement     0.006822     0.001200     NO 
 Predicted change in Energy=-8.375891D-04
 GradGradGradGradGradGradGradGradGradGradGradGradGradGradGradGradGradGrad

                          Input orientation:                          
 ---------------------------------------------------------------------
 Center     Atomic      Atomic             Coordinates (Angstroms)
 Number     Number       Type             X           Y           Z
 ---------------------------------------------------------------------
      1          6           0        1.885451   -1.036157   -0.118403
      2          6           0        2.911019   -1.625299    0.614625
      3          6           0        2.882794   -1.654525    2.005290
      4          6           0        1.800092   -1.078552    2.662393
      5          6           0        0.759305   -0.481656    1.957736
      6          6           0        0.816367   -0.468424    0.567626
      7         17           0       -0.468859    0.269142   -0.325460
      8         17           0        1.746441   -1.104628    4.391728
      9         17           0        4.249039   -2.336456   -0.220817
     10          1           0        1.918910   -1.020050   -1.203014
     11          1           0        3.688810   -2.117171    2.565616
     12          1           0       -0.079869   -0.035624    2.481879
 ---------------------------------------------------------------------
                    Distance matrix (angstroms):
                    1          2          3          4          5
     1  C    0.000000
     2  C    1.391477   0.000000
     3  C    2.426344   1.391258   0.000000
     4  C    2.782428   2.392998   1.391320   0.000000
     5  C    2.426114   2.782398   2.426332   1.391425   0.000000
     6  C    1.391365   2.393352   2.782775   2.393328   1.391344
     7  Cl   2.699898   3.987008   4.512922   3.986437   2.699086
     8  Cl   4.512792   3.986708   2.699772   1.730364   2.699417
     9  Cl   2.699595   1.730320   2.699483   3.986547   4.512717
    10  H    1.085247   2.157411   3.409523   3.867675   3.409530
    11  H    3.409495   2.157142   1.085204   2.157626   3.409755
    12  H    3.409547   3.867701   3.409597   2.157438   1.085303
                    6          7          8          9         10
     6  C    0.000000
     7  Cl   1.730147   0.000000
     8  Cl   3.986672   5.389495   0.000000
     9  Cl   3.986781   5.390607   5.390358   0.000000
    10  H    2.157558   2.851938   5.598039   2.850814   0.000000
    11  H    3.867979   5.598126   2.851793   2.850640   4.305670
    12  H    2.157526   2.850499   2.850562   5.598021   4.306117
                   11         12
    11  H    0.000000
    12  H    4.306134   0.000000
 Stoichiometry    C6H3Cl3
 Framework group  C1[X(C6H3Cl3)]
 Deg. of freedom    30
 Full point group                 C1      NOp   1
 Largest Abelian subgroup         C1      NOp   1
 Largest concise Abelian subgroup C1      NOp   1
                         Standard orientation:                         
 ---------------------------------------------------------------------
 Center     Atomic      Atomic             Coordinates (Angstroms)
 Number     Number       Type             X           Y           Z
 ---------------------------------------------------------------------
      1          6           0       -0.514313    1.303101    0.000068
      2          6           0       -1.366836    0.203368   -0.000044
      3          6           0       -0.871657   -1.096785   -0.000023
      4          6           0        0.506851   -1.285167    0.000030
      5          6           0        1.385271   -0.206074   -0.000096
      6          6           0        0.859381    1.082055   -0.000058
      7         17           0        1.936325    2.436161    0.000010
      8         17           0        1.142494   -2.894551    0.000028
      9         17           0       -3.078287    0.458204   -0.000010
     10          1           0       -0.912931    2.312489    0.000377
     11          1           0       -1.547008   -1.946237    0.000007
     12          1           0        2.458718   -0.366061   -0.000133
 ---------------------------------------------------------------------
 Rotational constants (GHZ):      0.8611113      0.8607429      0.4304635
 Standard basis: 6-31+G(d) (6D, 7F)
 There are   189 symmetry adapted cartesian basis functions of A   symmetry.
 There are   189 symmetry adapted basis functions of A   symmetry.
   189 basis functions,   372 primitive gaussians,   189 cartesian basis functions
    45 alpha electrons       45 beta electrons
       nuclear repulsion energy       615.6908955027 Hartrees.
 NAtoms=   12 NActive=   12 NUniq=   12 SFac= 1.00D+00 NAtFMM=   60 NAOKFM=F Big=F
 Integral buffers will be    131072 words long.
 Raffenetti 2 integral format.
 Two-electron integral symmetry is turned on.
 One-electron integrals computed using PRISM.
 NBasis=   189 RedAO= T EigKep=  3.07D-06  NBF=   189
 NBsUse=   189 1.00D-06 EigRej= -1.00D+00 NBFU=   189
 Initial guess from the checkpoint file:  "/srv/scratch/z5358697/gauss/Gau-3359236.chk"
 B after Tr=     0.000000    0.000000    0.000000
         Rot=    0.862118    0.000000    0.000000   -0.506708 Ang=  60.89 deg.
 ExpMin= 4.38D-02 ExpMax= 2.52D+04 ExpMxC= 3.78D+03 IAcc=2 IRadAn=         4 AccDes= 0.00D+00
 Harris functional with IExCor= 1009 and IRadAn=       4 diagonalized for initial guess.
 HarFok:  IExCor= 1009 AccDes= 0.00D+00 IRadAn=         4 IDoV= 1 UseB2=F ITyADJ=14
 ICtDFT=  3500011 ScaDFX=  1.000000  1.000000  1.000000  1.000000
 FoFCou: FMM=F IPFlag=           0 FMFlag=      100000 FMFlg1=           0
         NFxFlg=           0 DoJE=T BraDBF=F KetDBF=T FulRan=T
         wScrn=  0.000000 ICntrl=     500 IOpCl=  0 I1Cent=   200000004 NGrid=           0
         NMat0=    1 NMatS0=      1 NMatT0=    0 NMatD0=    1 NMtDS0=    0 NMtDT0=    0
 Petite list used in FoFCou.
 Requested convergence on RMS density matrix=1.00D-08 within 128 cycles.
 Requested convergence on MAX density matrix=1.00D-06.
 Requested convergence on             energy=1.00D-06.
 No special actions if energy rises.
 SCF Done:  E(RM062X) =  -1610.85019492     A.U. after   11 cycles
            NFock= 11  Conv=0.86D-08     -V/T= 2.0035
 Calling FoFJK, ICntrl=      2127 FMM=F ISym2X=0 I1Cent= 0 IOpClX= 0 NMat=1 NMatS=1 NMatT=0.
 ***** Axes restored to original set *****
 -------------------------------------------------------------------
 Center     Atomic                   Forces (Hartrees/Bohr)
 Number     Number              X              Y              Z
 -------------------------------------------------------------------
      1        6           0.000225163   -0.000003886   -0.003753092
      2        6          -0.004874190    0.002575214    0.003084772
      3        6           0.002810977   -0.001614811    0.001941226
      4        6          -0.000064438    0.000266122   -0.006555478
      5        6          -0.002890940    0.001529503    0.001834807
      6        6           0.004759691   -0.002745797    0.003415284
      7       17          -0.002410006    0.001389061   -0.001815124
      8       17          -0.000087201   -0.000066481    0.003471648
      9       17           0.002543085   -0.001347556   -0.001707977
     10        1          -0.000055829    0.000025063    0.000553944
     11        1          -0.000459276    0.000261208   -0.000188364
     12        1           0.000502964   -0.000267642   -0.000281646
 -------------------------------------------------------------------
 Cartesian Forces:  Max     0.006555478 RMS     0.002372390

 GradGradGradGradGradGradGradGradGradGradGradGradGradGradGradGradGradGrad
 Berny optimization.
 Using GEDIIS/GDIIS optimizer.
 FormGI is forming the generalized inverse of G from B-inverse, IUseBI=4.
 Internal  Forces:  Max     0.003473285 RMS     0.001037098
 Search for a local minimum.
 Step number   2 out of a maximum of   64
 All quantities printed in internal units (Hartrees-Bohrs-Radians)
 Mixed Optimization -- RFO/linear search
 Update second derivatives using D2CorX and points    1    2
 DE= -1.10D-03 DEPred=-8.38D-04 R= 1.32D+00
 TightC=F SS=  1.41D+00  RLast= 7.97D-02 DXNew= 5.0454D-01 2.3914D-01
 Trust test= 1.32D+00 RLast= 7.97D-02 DXMaxT set to 3.00D-01
 ITU=  1  0
 Use linear search instead of GDIIS.
     Eigenvalues ---    0.02156   0.02156   0.02156   0.02156   0.02156
     Eigenvalues ---    0.02156   0.02157   0.02157   0.02158   0.15945
     Eigenvalues ---    0.16000   0.16001   0.16686   0.23499   0.23507
     Eigenvalues ---    0.25000   0.25000   0.25041   0.31256   0.33469
     Eigenvalues ---    0.33477   0.35030   0.35032   0.35050   0.42396
     Eigenvalues ---    0.42408   0.46471   0.46475   0.46488   0.48531
 RFO step:  Lambda=-7.70327060D-05 EMin= 2.15602074D-02
 Quartic linear search produced a step of  0.41719.
 Iteration  1 RMS(Cart)=  0.00333123 RMS(Int)=  0.00001094
 Iteration  2 RMS(Cart)=  0.00001571 RMS(Int)=  0.00000033
 Iteration  3 RMS(Cart)=  0.00000000 RMS(Int)=  0.00000033
 Variable       Old X    -DE/DX   Delta X   Delta X   Delta X     New X
                                 (Linear)    (Quad)   (Total)
    R1        2.62951   0.00001  -0.00270   0.00253  -0.00018   2.62933
    R2        2.62930   0.00006  -0.00266   0.00263  -0.00003   2.62927
    R3        2.05082  -0.00055  -0.00226  -0.00013  -0.00238   2.04843
    R4        2.62910   0.00021  -0.00288   0.00332   0.00044   2.62954
    R5        3.26983   0.00335   0.00734   0.00726   0.01460   3.28443
    R6        2.62921   0.00020  -0.00283   0.00326   0.00043   2.62964
    R7        2.05074  -0.00055  -0.00229  -0.00008  -0.00237   2.04837
    R8        2.62941  -0.00007  -0.00275   0.00233  -0.00042   2.62899
    R9        3.26991   0.00347   0.00737   0.00777   0.01514   3.28506
   R10        2.62926   0.00006  -0.00282   0.00277  -0.00005   2.62921
   R11        2.05093  -0.00063  -0.00219  -0.00051  -0.00270   2.04822
   R12        3.26950   0.00332   0.00713   0.00735   0.01448   3.28398
    A1        2.07069  -0.00154  -0.00993   0.00027  -0.00966   2.06103
    A2        2.10604   0.00084   0.00472   0.00077   0.00549   2.11153
    A3        2.10645   0.00070   0.00521  -0.00104   0.00417   2.11063
    A4        2.11825   0.00148   0.00998  -0.00060   0.00938   2.12763
    A5        2.08242  -0.00096  -0.00517  -0.00077  -0.00594   2.07648
    A6        2.08251  -0.00052  -0.00481   0.00137  -0.00344   2.07907
    A7        2.07051  -0.00157  -0.00996   0.00018  -0.00978   2.06073
    A8        2.10598   0.00088   0.00488   0.00082   0.00570   2.11168
    A9        2.10669   0.00070   0.00508  -0.00100   0.00408   2.11077
   A10        2.11822   0.00161   0.00994   0.00015   0.01009   2.12831
   A11        2.08277  -0.00089  -0.00477  -0.00076  -0.00552   2.07724
   A12        2.08220  -0.00072  -0.00517   0.00061  -0.00456   2.07763
   A13        2.07075  -0.00163  -0.00984  -0.00040  -0.01025   2.06050
   A14        2.10609   0.00076   0.00477  -0.00011   0.00466   2.11075
   A15        2.10635   0.00087   0.00508   0.00051   0.00558   2.11194
   A16        2.11795   0.00165   0.00981   0.00041   0.01022   2.12817
   A17        2.08313  -0.00097  -0.00462  -0.00132  -0.00594   2.07719
   A18        2.08211  -0.00068  -0.00519   0.00091  -0.00428   2.07783
    D1        0.00021  -0.00001   0.00014  -0.00061  -0.00047  -0.00026
    D2       -3.14151   0.00000  -0.00024   0.00035   0.00011  -3.14140
    D3       -3.14124  -0.00001  -0.00014  -0.00024  -0.00038   3.14156
    D4        0.00022   0.00000  -0.00052   0.00072   0.00020   0.00041
    D5       -0.00016   0.00000  -0.00010   0.00046   0.00036   0.00020
    D6        3.14155   0.00000   0.00016  -0.00025  -0.00009   3.14146
    D7        3.14129   0.00001   0.00018   0.00009   0.00028   3.14157
    D8       -0.00018   0.00000   0.00044  -0.00062  -0.00017  -0.00036
    D9       -0.00007   0.00000  -0.00006   0.00022   0.00016   0.00009
   D10        3.14147   0.00000  -0.00007   0.00034   0.00027  -3.14145
   D11       -3.14153   0.00000   0.00032  -0.00074  -0.00042   3.14124
   D12        0.00001   0.00000   0.00031  -0.00062  -0.00031  -0.00030
   D13       -0.00013   0.00000  -0.00006   0.00033   0.00027   0.00014
   D14       -3.14157   0.00000   0.00014  -0.00032  -0.00018   3.14143
   D15        3.14152   0.00000  -0.00005   0.00021   0.00017  -3.14150
   D16        0.00008   0.00000   0.00015  -0.00044  -0.00029  -0.00021
   D17        0.00018   0.00000   0.00009  -0.00047  -0.00038  -0.00020
   D18       -3.14151   0.00000   0.00006  -0.00024  -0.00018   3.14150
   D19       -3.14156   0.00000  -0.00010   0.00018   0.00008  -3.14148
   D20       -0.00007   0.00000  -0.00013   0.00041   0.00028   0.00022
   D21       -0.00003   0.00000  -0.00001   0.00007   0.00005   0.00002
   D22        3.14144   0.00000  -0.00027   0.00077   0.00050  -3.14124
   D23       -3.14153   0.00000   0.00002  -0.00017  -0.00015   3.14151
   D24       -0.00005   0.00000  -0.00024   0.00054   0.00030   0.00025
         Item               Value     Threshold  Converged?
 Maximum Force            0.003473     0.000450     NO 
 RMS     Force            0.001037     0.000300     NO 
 Maximum Displacement     0.007609     0.001800     NO 
 RMS     Displacement     0.003325     0.001200     NO 
 Predicted change in Energy=-1.580847D-04
 GradGradGradGradGradGradGradGradGradGradGradGradGradGradGradGradGradGrad

                          Input orientation:                          
 ---------------------------------------------------------------------
 Center     Atomic      Atomic             Coordinates (Angstroms)
 Number     Number       Type             X           Y           Z
 ---------------------------------------------------------------------
      1          6           0        1.885774   -1.036270   -0.122012
      2          6           0        2.908050   -1.624017    0.616537
      3          6           0        2.885588   -1.656201    2.007474
      4          6           0        1.799969   -1.078160    2.658399
      5          6           0        0.756074   -0.480081    1.959806
      6          6           0        0.819527   -0.470466    0.569969
      7         17           0       -0.470393    0.270312   -0.328551
      8         17           0        1.746665   -1.104717    4.395755
      9         17           0        4.251343   -2.337503   -0.224474
     10          1           0        1.918566   -1.019609   -1.205373
     11          1           0        3.690186   -2.117986    2.568123
     12          1           0       -0.081849   -0.034703    2.483546
 ---------------------------------------------------------------------
                    Distance matrix (angstroms):
                    1          2          3          4          5
     1  C    0.000000
     2  C    1.391384   0.000000
     3  C    2.432828   1.391490   0.000000
     4  C    2.782050   2.386421   1.391547   0.000000
     5  C    2.433010   2.782798   2.433179   1.391203   0.000000
     6  C    1.391350   2.386373   2.782264   2.385811   1.391318
     7  Cl   2.702099   3.986922   4.520074   3.986826   2.702571
     8  Cl   4.520426   3.987603   2.702807   1.738377   2.702829
     9  Cl   2.701781   1.738044   2.703895   3.988249   4.520841
    10  H    1.083985   2.159570   3.415079   3.866034   3.414797
    11  H    3.415090   2.159730   1.083952   2.159238   3.414937
    12  H    3.415203   3.866670   3.414905   2.158845   1.083872
                    6          7          8          9         10
     6  C    0.000000
     7  Cl   1.737810   0.000000
     8  Cl   3.987292   5.396769   0.000000
     9  Cl   3.986769   5.395027   5.398119   0.000000
    10  H    2.159000   2.853040   5.604411   2.853219   0.000000
    11  H    3.866216   5.604026   2.853809   2.856866   4.310956
    12  H    2.159663   2.855152   2.853933   5.604713   4.310432
                   11         12
    11  H    0.000000
    12  H    4.309927   0.000000
 Stoichiometry    C6H3Cl3
 Framework group  C1[X(C6H3Cl3)]
 Deg. of freedom    30
 Full point group                 C1      NOp   1
 Largest Abelian subgroup         C1      NOp   1
 Largest concise Abelian subgroup C1      NOp   1
                         Standard orientation:                         
 ---------------------------------------------------------------------
 Center     Atomic      Atomic             Coordinates (Angstroms)
 Number     Number       Type             X           Y           Z
 ---------------------------------------------------------------------
      1          6           0       -1.362788    0.338100    0.000150
      2          6           0       -0.955726   -0.992408    0.000238
      3          6           0        0.389021   -1.350041    0.000070
      4          6           0        1.337420   -0.331737   -0.000081
      5          6           0        0.975181    1.011479    0.000099
      6          6           0       -0.380666    1.323641    0.000200
      7         17           0       -0.862157    2.993416   -0.000109
      8         17           0        3.024546   -0.750732   -0.000041
      9         17           0       -2.163402   -2.242334   -0.000108
     10          1           0       -2.414709    0.599796    0.000253
     11          1           0        0.689568   -2.391494    0.000012
     12          1           0        1.727703    1.791537    0.000062
 ---------------------------------------------------------------------
 Rotational constants (GHZ):      0.8596071      0.8586252      0.4295579
 Standard basis: 6-31+G(d) (6D, 7F)
 There are   189 symmetry adapted cartesian basis functions of A   symmetry.
 There are   189 symmetry adapted basis functions of A   symmetry.
   189 basis functions,   372 primitive gaussians,   189 cartesian basis functions
    45 alpha electrons       45 beta electrons
       nuclear repulsion energy       614.9300647341 Hartrees.
 NAtoms=   12 NActive=   12 NUniq=   12 SFac= 1.00D+00 NAtFMM=   60 NAOKFM=F Big=F
 Integral buffers will be    131072 words long.
 Raffenetti 2 integral format.
 Two-electron integral symmetry is turned on.
 One-electron integrals computed using PRISM.
 NBasis=   189 RedAO= T EigKep=  3.03D-06  NBF=   189
 NBsUse=   189 1.00D-06 EigRej= -1.00D+00 NBFU=   189
 Initial guess from the checkpoint file:  "/srv/scratch/z5358697/gauss/Gau-3359236.chk"
 B after Tr=     0.000000    0.000000    0.000000
         Rot=    0.888933    0.000000    0.000000   -0.458038 Ang= -54.52 deg.
 Requested convergence on RMS density matrix=1.00D-08 within 128 cycles.
 Requested convergence on MAX density matrix=1.00D-06.
 Requested convergence on             energy=1.00D-06.
 No special actions if energy rises.
 SCF Done:  E(RM062X) =  -1610.85043144     A.U. after   11 cycles
            NFock= 11  Conv=0.32D-08     -V/T= 2.0035
 Calling FoFJK, ICntrl=      2127 FMM=F ISym2X=0 I1Cent= 0 IOpClX= 0 NMat=1 NMatS=1 NMatT=0.
 ***** Axes restored to original set *****
 -------------------------------------------------------------------
 Center     Atomic                   Forces (Hartrees/Bohr)
 Number     Number              X              Y              Z
 -------------------------------------------------------------------
      1        6          -0.000205338    0.000073481    0.000170124
      2        6          -0.001011630    0.000584416    0.000451208
      3        6          -0.000151767    0.000089234   -0.000066029
      4        6           0.000363609   -0.000231758   -0.000303063
      5        6           0.000127830   -0.000063945    0.000128043
      6        6           0.000422270   -0.000207349    0.000096379
      7       17          -0.000104640    0.000044830    0.000035969
      8       17          -0.000086514    0.000063139   -0.000208173
      9       17           0.000642496   -0.000357597   -0.000329776
     10        1           0.000036146   -0.000011494   -0.000005308
     11        1           0.000117276   -0.000065564    0.000031519
     12        1          -0.000149739    0.000082606   -0.000000892
 -------------------------------------------------------------------
 Cartesian Forces:  Max     0.001011630 RMS     0.000288378

 GradGradGradGradGradGradGradGradGradGradGradGradGradGradGradGradGradGrad
 Berny optimization.
 Using GEDIIS/GDIIS optimizer.
 FormGI is forming the generalized inverse of G from B-inverse, IUseBI=4.
 Internal  Forces:  Max     0.000802919 RMS     0.000163659
 Search for a local minimum.
 Step number   3 out of a maximum of   64
 All quantities printed in internal units (Hartrees-Bohrs-Radians)
 Mixed Optimization -- En-DIIS/RFO-DIIS
 Update second derivatives using D2CorX and points    1    2    3
 DE= -2.37D-04 DEPred=-1.58D-04 R= 1.50D+00
 TightC=F SS=  1.41D+00  RLast= 3.95D-02 DXNew= 5.0454D-01 1.1860D-01
 Trust test= 1.50D+00 RLast= 3.95D-02 DXMaxT set to 3.00D-01
 ITU=  1  1  0
 Use linear search instead of GDIIS.
     Eigenvalues ---    0.02156   0.02156   0.02156   0.02156   0.02156
     Eigenvalues ---    0.02156   0.02157   0.02157   0.02158   0.15875
     Eigenvalues ---    0.16000   0.16015   0.16758   0.23511   0.23518
     Eigenvalues ---    0.24999   0.25010   0.25166   0.30727   0.33469
     Eigenvalues ---    0.33931   0.35031   0.35039   0.35163   0.42397
     Eigenvalues ---    0.42405   0.46471   0.46478   0.46508   0.48538
 RFO step:  Lambda=-3.98060892D-06 EMin= 2.15602121D-02
 Quartic linear search produced a step of  0.01661.
 Iteration  1 RMS(Cart)=  0.00062780 RMS(Int)=  0.00000029
 Iteration  2 RMS(Cart)=  0.00000035 RMS(Int)=  0.00000012
 Variable       Old X    -DE/DX   Delta X   Delta X   Delta X     New X
                                 (Linear)    (Quad)   (Total)
    R1        2.62933  -0.00019   0.00000  -0.00041  -0.00041   2.62892
    R2        2.62927  -0.00033   0.00000  -0.00072  -0.00072   2.62855
    R3        2.04843   0.00001  -0.00004   0.00007   0.00003   2.04846
    R4        2.62954  -0.00023   0.00001  -0.00049  -0.00048   2.62905
    R5        3.28443   0.00080   0.00024   0.00216   0.00241   3.28683
    R6        2.62964  -0.00036   0.00001  -0.00078  -0.00077   2.62887
    R7        2.04837   0.00013  -0.00004   0.00043   0.00039   2.04876
    R8        2.62899  -0.00015  -0.00001  -0.00032  -0.00033   2.62867
    R9        3.28506  -0.00021   0.00025  -0.00092  -0.00067   3.28438
   R10        2.62921  -0.00019   0.00000  -0.00041  -0.00041   2.62880
   R11        2.04822   0.00015  -0.00004   0.00049   0.00044   2.04867
   R12        3.28398   0.00008   0.00024  -0.00004   0.00020   3.28418
    A1        2.06103  -0.00009  -0.00016  -0.00009  -0.00025   2.06078
    A2        2.11153  -0.00002   0.00009  -0.00040  -0.00031   2.11122
    A3        2.11063   0.00011   0.00007   0.00049   0.00056   2.11118
    A4        2.12763   0.00015   0.00016   0.00032   0.00047   2.12810
    A5        2.07648   0.00009  -0.00010   0.00055   0.00045   2.07693
    A6        2.07907  -0.00024  -0.00006  -0.00087  -0.00093   2.07815
    A7        2.06073  -0.00014  -0.00016  -0.00033  -0.00050   2.06024
    A8        2.11168   0.00006   0.00009   0.00003   0.00012   2.11180
    A9        2.11077   0.00009   0.00007   0.00031   0.00037   2.11115
   A10        2.12831   0.00012   0.00017   0.00019   0.00035   2.12866
   A11        2.07724   0.00018  -0.00009   0.00088   0.00079   2.07803
   A12        2.07763  -0.00029  -0.00008  -0.00107  -0.00114   2.07649
   A13        2.06050  -0.00008  -0.00017   0.00000  -0.00017   2.06033
   A14        2.11075   0.00015   0.00008   0.00074   0.00082   2.11156
   A15        2.11194  -0.00007   0.00009  -0.00074  -0.00065   2.11129
   A16        2.12817   0.00005   0.00017  -0.00009   0.00008   2.12825
   A17        2.07719   0.00007  -0.00010   0.00044   0.00034   2.07753
   A18        2.07783  -0.00012  -0.00007  -0.00036  -0.00043   2.07740
    D1       -0.00026   0.00001  -0.00001   0.00058   0.00057   0.00031
    D2       -3.14140  -0.00001   0.00000  -0.00028  -0.00028   3.14150
    D3        3.14156   0.00000  -0.00001   0.00031   0.00031  -3.14132
    D4        0.00041  -0.00001   0.00000  -0.00054  -0.00054  -0.00013
    D5        0.00020  -0.00001   0.00001  -0.00046  -0.00045  -0.00025
    D6        3.14146   0.00000   0.00000   0.00019   0.00018  -3.14154
    D7        3.14157   0.00000   0.00000  -0.00020  -0.00019   3.14138
    D8       -0.00036   0.00001   0.00000   0.00045   0.00045   0.00009
    D9        0.00009   0.00000   0.00000  -0.00018  -0.00018  -0.00009
   D10       -3.14145   0.00000   0.00000  -0.00033  -0.00032   3.14141
   D11        3.14124   0.00001  -0.00001   0.00067   0.00066  -3.14128
   D12       -0.00030   0.00001  -0.00001   0.00053   0.00052   0.00022
   D13        0.00014  -0.00001   0.00000  -0.00035  -0.00034  -0.00020
   D14        3.14143   0.00000   0.00000   0.00029   0.00029  -3.14147
   D15       -3.14150   0.00000   0.00000  -0.00021  -0.00020   3.14148
   D16       -0.00021   0.00001   0.00000   0.00043   0.00043   0.00021
   D17       -0.00020   0.00001  -0.00001   0.00046   0.00045   0.00026
   D18        3.14150   0.00000   0.00000   0.00021   0.00021  -3.14148
   D19       -3.14148   0.00000   0.00000  -0.00018  -0.00018   3.14153
   D20        0.00022  -0.00001   0.00000  -0.00043  -0.00042  -0.00021
   D21        0.00002   0.00000   0.00000  -0.00004  -0.00004  -0.00002
   D22       -3.14124  -0.00001   0.00001  -0.00069  -0.00068   3.14126
   D23        3.14151   0.00000   0.00000   0.00021   0.00020  -3.14147
   D24        0.00025  -0.00001   0.00000  -0.00044  -0.00043  -0.00019
         Item               Value     Threshold  Converged?
 Maximum Force            0.000803     0.000450     NO 
 RMS     Force            0.000164     0.000300     YES
 Maximum Displacement     0.001910     0.001800     NO 
 RMS     Displacement     0.000628     0.001200     YES
 Predicted change in Energy=-2.383425D-06
 GradGradGradGradGradGradGradGradGradGradGradGradGradGradGradGradGradGrad

                          Input orientation:                          
 ---------------------------------------------------------------------
 Center     Atomic      Atomic             Coordinates (Angstroms)
 Number     Number       Type             X           Y           Z
 ---------------------------------------------------------------------
      1          6           0        1.885534   -1.036047   -0.121826
      2          6           0        2.907748   -1.623466    0.616657
      3          6           0        2.885698   -1.656163    2.007333
      4          6           0        1.800220   -1.078539    2.657986
      5          6           0        0.756439   -0.480134    1.959846
      6          6           0        0.819786   -0.470328    0.570226
      7         17           0       -0.470945    0.270196   -0.327540
      8         17           0        1.745690   -1.104283    4.394960
      9         17           0        4.252073   -2.338240   -0.224245
     10          1           0        1.918616   -1.019635   -1.205195
     11          1           0        3.690564   -2.118197    2.567794
     12          1           0       -0.081923   -0.034565    2.483205
 ---------------------------------------------------------------------
                    Distance matrix (angstroms):
                    1          2          3          4          5
     1  C    0.000000
     2  C    1.391165   0.000000
     3  C    2.432733   1.391234   0.000000
     4  C    2.781445   2.385495   1.391137   0.000000
     5  C    2.432541   2.781995   2.432908   1.391030   0.000000
     6  C    1.390968   2.385680   2.781991   2.385354   1.391099
     7  Cl   2.702144   3.986607   4.519905   3.986306   2.702148
     8  Cl   4.519465   3.986916   2.702768   1.738020   2.701473
     9  Cl   2.703091   1.739318   2.704098   3.988193   4.521312
    10  H    1.083999   2.159200   3.414784   3.865444   3.414558
    11  H    3.415148   2.159744   1.084159   2.159265   3.414958
    12  H    3.414680   3.866102   3.415086   2.159373   1.084107
                    6          7          8          9         10
     6  C    0.000000
     7  Cl   1.737914   0.000000
     8  Cl   3.985949   5.394874   0.000000
     9  Cl   3.987590   5.396435   5.398301   0.000000
    10  H    2.159001   2.853759   5.603464   2.854121   0.000000
    11  H    3.866150   5.604064   2.854660   2.856430   4.310695
    12  H    2.159273   2.853857   2.852942   5.605419   4.310083
                   11         12
    11  H    0.000000
    12  H    4.310492   0.000000
 Stoichiometry    C6H3Cl3
 Framework group  C1[X(C6H3Cl3)]
 Deg. of freedom    30
 Full point group                 C1      NOp   1
 Largest Abelian subgroup         C1      NOp   1
 Largest concise Abelian subgroup C1      NOp   1
                         Standard orientation:                         
 ---------------------------------------------------------------------
 Center     Atomic      Atomic             Coordinates (Angstroms)
 Number     Number       Type             X           Y           Z
 ---------------------------------------------------------------------
      1          6           0       -1.003769    0.981661   -0.000061
      2          6           0       -1.326303   -0.371600   -0.000201
      3          6           0       -0.348355   -1.361120   -0.000080
      4          6           0        0.984665   -0.963222    0.000079
      5          6           0        1.352738    0.378227   -0.000120
      6          6           0        0.341864    1.333889   -0.000173
      7         17           0        0.773051    3.017463    0.000078
      8         17           0        2.228181   -2.177464    0.000047
      9         17           0       -3.001598   -0.839158    0.000072
     10          1           0       -1.778658    1.739684    0.000096
     11          1           0       -0.616869   -2.411501   -0.000024
     12          1           0        2.396704    0.670497   -0.000099
 ---------------------------------------------------------------------
 Rotational constants (GHZ):      0.8597270      0.8586432      0.4295924
 Standard basis: 6-31+G(d) (6D, 7F)
 There are   189 symmetry adapted cartesian basis functions of A   symmetry.
 There are   189 symmetry adapted basis functions of A   symmetry.
   189 basis functions,   372 primitive gaussians,   189 cartesian basis functions
    45 alpha electrons       45 beta electrons
       nuclear repulsion energy       614.9540246679 Hartrees.
 NAtoms=   12 NActive=   12 NUniq=   12 SFac= 1.00D+00 NAtFMM=   60 NAOKFM=F Big=F
 Integral buffers will be    131072 words long.
 Raffenetti 2 integral format.
 Two-electron integral symmetry is turned on.
 One-electron integrals computed using PRISM.
 NBasis=   189 RedAO= T EigKep=  3.03D-06  NBF=   189
 NBsUse=   189 1.00D-06 EigRej= -1.00D+00 NBFU=   189
 Initial guess from the checkpoint file:  "/srv/scratch/z5358697/gauss/Gau-3359236.chk"
 B after Tr=     0.000000    0.000000    0.000000
         Rot=    0.964978    0.000000    0.000000    0.262329 Ang=  30.42 deg.
 Requested convergence on RMS density matrix=1.00D-08 within 128 cycles.
 Requested convergence on MAX density matrix=1.00D-06.
 Requested convergence on             energy=1.00D-06.
 No special actions if energy rises.
 SCF Done:  E(RM062X) =  -1610.85043848     A.U. after    9 cycles
            NFock=  9  Conv=0.89D-08     -V/T= 2.0035
 Calling FoFJK, ICntrl=      2127 FMM=F ISym2X=0 I1Cent= 0 IOpClX= 0 NMat=1 NMatS=1 NMatT=0.
 ***** Axes restored to original set *****
 -------------------------------------------------------------------
 Center     Atomic                   Forces (Hartrees/Bohr)
 Number     Number              X              Y              Z
 -------------------------------------------------------------------
      1        6           0.000094363   -0.000021911   -0.000247893
      2        6           0.000232624   -0.000165504   -0.000032937
      3        6           0.000223941   -0.000123264   -0.000151525
      4        6           0.000032593    0.000048239   -0.000752528
      5        6          -0.000126890    0.000062749   -0.000131713
      6        6          -0.000065189    0.000000764    0.000262464
      7       17           0.000028749   -0.000004311   -0.000088497
      8       17           0.000118486   -0.000103501    0.000930905
      9       17          -0.000509501    0.000280181    0.000354760
     10        1           0.000015726   -0.000003465   -0.000061209
     11        1          -0.000057094    0.000035750   -0.000088509
     12        1           0.000012192   -0.000005727    0.000006683
 -------------------------------------------------------------------
 Cartesian Forces:  Max     0.000930905 RMS     0.000252900

 GradGradGradGradGradGradGradGradGradGradGradGradGradGradGradGradGradGrad
 Berny optimization.
 Using GEDIIS/GDIIS optimizer.
 FormGI is forming the generalized inverse of G from B-inverse, IUseBI=4.
 Internal  Forces:  Max     0.000928169 RMS     0.000183001
 Search for a local minimum.
 Step number   4 out of a maximum of   64
 All quantities printed in internal units (Hartrees-Bohrs-Radians)
 Mixed Optimization -- En-DIIS/RFO-DIIS
 Swapping is turned off.
 Update second derivatives using D2CorX and points    1    2    3    4
 DE= -7.04D-06 DEPred=-2.38D-06 R= 2.95D+00
 TightC=F SS=  1.41D+00  RLast= 4.21D-03 DXNew= 5.0454D-01 1.2642D-02
 Trust test= 2.95D+00 RLast= 4.21D-03 DXMaxT set to 3.00D-01
 ITU=  1  1  1  0
     Eigenvalues ---    0.02149   0.02156   0.02156   0.02156   0.02156
     Eigenvalues ---    0.02156   0.02157   0.02157   0.02158   0.13684
     Eigenvalues ---    0.15998   0.16013   0.16659   0.22695   0.23563
     Eigenvalues ---    0.24172   0.25009   0.26014   0.30134   0.33013
     Eigenvalues ---    0.34642   0.35015   0.35040   0.41049   0.42402
     Eigenvalues ---    0.44919   0.46145   0.46480   0.46710   0.80672
 En-DIIS/RFO-DIIS IScMMF=        0 using points:     4    3
 RFO step:  Lambda=-2.22921325D-06.
 DidBck=T Rises=F RFO-DIIS coefs:    0.62211    0.37789
 Iteration  1 RMS(Cart)=  0.00050809 RMS(Int)=  0.00000012
 Iteration  2 RMS(Cart)=  0.00000019 RMS(Int)=  0.00000006
 Variable       Old X    -DE/DX   Delta X   Delta X   Delta X     New X
                                 (Linear)    (Quad)   (Total)
    R1        2.62892  -0.00007   0.00016  -0.00044  -0.00028   2.62864
    R2        2.62855   0.00010   0.00027  -0.00039  -0.00012   2.62843
    R3        2.04846   0.00006  -0.00001   0.00008   0.00007   2.04853
    R4        2.62905  -0.00026   0.00018  -0.00075  -0.00057   2.62848
    R5        3.28683  -0.00068  -0.00091   0.00075  -0.00016   3.28668
    R6        2.62887   0.00001   0.00029  -0.00057  -0.00027   2.62859
    R7        2.04876  -0.00010  -0.00015   0.00004  -0.00011   2.04865
    R8        2.62867   0.00025   0.00012   0.00011   0.00023   2.62890
    R9        3.28438   0.00093   0.00025   0.00168   0.00193   3.28632
   R10        2.62880   0.00007   0.00016  -0.00020  -0.00004   2.62875
   R11        2.04867  -0.00001  -0.00017   0.00025   0.00008   2.04875
   R12        3.28418   0.00002  -0.00007   0.00051   0.00043   3.28461
    A1        2.06078  -0.00014   0.00009  -0.00088  -0.00078   2.06000
    A2        2.11122   0.00004   0.00012   0.00000   0.00011   2.11133
    A3        2.11118   0.00010  -0.00021   0.00088   0.00067   2.11185
    A4        2.12810   0.00021  -0.00018   0.00111   0.00093   2.12903
    A5        2.07693  -0.00002  -0.00017   0.00015  -0.00002   2.07692
    A6        2.07815  -0.00019   0.00035  -0.00126  -0.00092   2.07723
    A7        2.06024   0.00001   0.00019  -0.00065  -0.00046   2.05978
    A8        2.11180  -0.00003  -0.00005   0.00016   0.00011   2.11191
    A9        2.11115   0.00002  -0.00014   0.00049   0.00035   2.11149
   A10        2.12866  -0.00008  -0.00013   0.00035   0.00022   2.12888
   A11        2.07803  -0.00021  -0.00030  -0.00012  -0.00042   2.07761
   A12        2.07649   0.00028   0.00043  -0.00023   0.00020   2.07669
   A13        2.06033  -0.00005   0.00006  -0.00045  -0.00039   2.05994
   A14        2.11156   0.00003  -0.00031   0.00078   0.00047   2.11203
   A15        2.11129   0.00002   0.00024  -0.00033  -0.00008   2.11121
   A16        2.12825   0.00004  -0.00003   0.00051   0.00048   2.12873
   A17        2.07753  -0.00021  -0.00013  -0.00048  -0.00061   2.07692
   A18        2.07740   0.00016   0.00016  -0.00003   0.00013   2.07753
    D1        0.00031  -0.00001  -0.00021   0.00006  -0.00016   0.00015
    D2        3.14150   0.00000   0.00010  -0.00008   0.00002   3.14153
    D3       -3.14132  -0.00001  -0.00012  -0.00007  -0.00018  -3.14150
    D4       -0.00013   0.00001   0.00020  -0.00020   0.00000  -0.00013
    D5       -0.00025   0.00001   0.00017  -0.00004   0.00013  -0.00012
    D6       -3.14154   0.00000  -0.00007   0.00006  -0.00001  -3.14155
    D7        3.14138   0.00001   0.00007   0.00009   0.00016   3.14153
    D8        0.00009   0.00000  -0.00017   0.00018   0.00002   0.00011
    D9       -0.00009   0.00000   0.00007  -0.00003   0.00004  -0.00005
   D10        3.14141   0.00001   0.00012  -0.00002   0.00010   3.14151
   D11       -3.14128  -0.00001  -0.00025   0.00011  -0.00014  -3.14142
   D12        0.00022  -0.00001  -0.00020   0.00011  -0.00009   0.00014
   D13       -0.00020   0.00001   0.00013  -0.00002   0.00011  -0.00009
   D14       -3.14147   0.00000  -0.00011   0.00006  -0.00005  -3.14152
   D15        3.14148   0.00000   0.00008  -0.00003   0.00005   3.14153
   D16        0.00021  -0.00001  -0.00016   0.00005  -0.00011   0.00011
   D17        0.00026  -0.00001  -0.00017   0.00004  -0.00013   0.00012
   D18       -3.14148   0.00000  -0.00008   0.00002  -0.00005  -3.14153
   D19        3.14153   0.00000   0.00007  -0.00004   0.00003   3.14155
   D20       -0.00021   0.00001   0.00016  -0.00005   0.00011  -0.00010
   D21       -0.00002   0.00000   0.00002  -0.00001   0.00001  -0.00001
   D22        3.14126   0.00001   0.00026  -0.00011   0.00015   3.14141
   D23       -3.14147   0.00000  -0.00008   0.00001  -0.00007  -3.14154
   D24       -0.00019   0.00001   0.00016  -0.00009   0.00007  -0.00012
         Item               Value     Threshold  Converged?
 Maximum Force            0.000928     0.000450     NO 
 RMS     Force            0.000183     0.000300     YES
 Maximum Displacement     0.001706     0.001800     YES
 RMS     Displacement     0.000508     0.001200     YES
 Predicted change in Energy=-1.515294D-06
 GradGradGradGradGradGradGradGradGradGradGradGradGradGradGradGradGradGrad

                          Input orientation:                          
 ---------------------------------------------------------------------
 Center     Atomic      Atomic             Coordinates (Angstroms)
 Number     Number       Type             X           Y           Z
 ---------------------------------------------------------------------
      1          6           0        1.885371   -1.035966   -0.122113
      2          6           0        2.907133   -1.623236    0.616836
      3          6           0        2.885687   -1.656187    2.007213
      4          6           0        1.800369   -1.078549    2.657811
      5          6           0        0.756305   -0.480109    1.959880
      6          6           0        0.819832   -0.470438    0.570289
      7         17           0       -0.470783    0.270156   -0.328029
      8         17           0        1.746464   -1.104670    4.395823
      9         17           0        4.251764   -2.338081   -0.223342
     10          1           0        1.918844   -1.019631   -1.205510
     11          1           0        3.690704   -2.118257    2.567315
     12          1           0       -0.082191   -0.034434    2.483027
 ---------------------------------------------------------------------
                    Distance matrix (angstroms):
                    1          2          3          4          5
     1  C    0.000000
     2  C    1.391018   0.000000
     3  C    2.432969   1.390933   0.000000
     4  C    2.781550   2.384784   1.390992   0.000000
     5  C    2.432789   2.781469   2.433036   1.391154   0.000000
     6  C    1.390905   2.384939   2.781817   2.385162   1.391075
     7  Cl   2.701817   3.985978   4.519960   3.986525   2.702437
     8  Cl   4.520593   3.987080   2.703230   1.739043   2.702649
     9  Cl   2.702882   1.739234   2.703059   3.987080   4.520703
    10  H    1.084037   2.159166   3.414906   3.865587   3.415007
    11  H    3.415203   2.159490   1.084101   2.159294   3.415144
    12  H    3.414838   3.865620   3.415374   2.159805   1.084151
                    6          7          8          9         10
     6  C    0.000000
     7  Cl   1.738143   0.000000
     8  Cl   3.986929   5.396398   0.000000
     9  Cl   3.986991   5.395953   5.397640   0.000000
    10  H    2.159375   2.853741   5.604630   2.854029   0.000000
    11  H    3.865918   5.604062   2.854973   2.854974   4.310531
    12  H    2.159238   2.854087   2.854501   5.604854   4.310459
                   11         12
    11  H    0.000000
    12  H    4.310935   0.000000
 Stoichiometry    C6H3Cl3
 Framework group  C1[X(C6H3Cl3)]
 Deg. of freedom    30
 Full point group                 C1      NOp   1
 Largest Abelian subgroup         C1      NOp   1
 Largest concise Abelian subgroup C1      NOp   1
                         Standard orientation:                         
 ---------------------------------------------------------------------
 Center     Atomic      Atomic             Coordinates (Angstroms)
 Number     Number       Type             X           Y           Z
 ---------------------------------------------------------------------
      1          6           0       -1.301138    0.528801   -0.000049
      2          6           0       -1.086497   -0.845557   -0.000112
      3          6           0        0.192835   -1.391455   -0.000039
      4          6           0        1.275744   -0.518434    0.000041
      5          6           0        1.108636    0.862647   -0.000061
      6          6           0       -0.188937    1.364041   -0.000096
      7         17           0       -0.428044    3.085659    0.000048
      8         17           0        2.887169   -1.172329    0.000024
      9         17           0       -2.459363   -1.913346    0.000045
     10          1           0       -2.305572    0.936536   -0.000023
     11          1           0        0.341752   -2.465280   -0.000012
     12          1           0        1.964008    1.528772   -0.000055
 ---------------------------------------------------------------------
 Rotational constants (GHZ):      0.8594274      0.8588980      0.4295813
 Standard basis: 6-31+G(d) (6D, 7F)
 There are   189 symmetry adapted cartesian basis functions of A   symmetry.
 There are   189 symmetry adapted basis functions of A   symmetry.
   189 basis functions,   372 primitive gaussians,   189 cartesian basis functions
    45 alpha electrons       45 beta electrons
       nuclear repulsion energy       614.9393950590 Hartrees.
 NAtoms=   12 NActive=   12 NUniq=   12 SFac= 1.00D+00 NAtFMM=   60 NAOKFM=F Big=F
 Integral buffers will be    131072 words long.
 Raffenetti 2 integral format.
 Two-electron integral symmetry is turned on.
 One-electron integrals computed using PRISM.
 NBasis=   189 RedAO= T EigKep=  3.03D-06  NBF=   189
 NBsUse=   189 1.00D-06 EigRej= -1.00D+00 NBFU=   189
 Initial guess from the checkpoint file:  "/srv/scratch/z5358697/gauss/Gau-3359236.chk"
 B after Tr=     0.000000    0.000000    0.000000
         Rot=    0.981198    0.000000    0.000000   -0.193005 Ang= -22.26 deg.
 Requested convergence on RMS density matrix=1.00D-08 within 128 cycles.
 Requested convergence on MAX density matrix=1.00D-06.
 Requested convergence on             energy=1.00D-06.
 No special actions if energy rises.
 SCF Done:  E(RM062X) =  -1610.85036521     A.U. after    9 cycles
            NFock=  9  Conv=0.64D-08     -V/T= 2.0035
 Calling FoFJK, ICntrl=      2127 FMM=F ISym2X=0 I1Cent= 0 IOpClX= 0 NMat=1 NMatS=1 NMatT=0.
 ***** Axes restored to original set *****
 -------------------------------------------------------------------
 Center     Atomic                   Forces (Hartrees/Bohr)
 Number     Number              X              Y              Z
 -------------------------------------------------------------------
      1        6           0.000138356   -0.000056918   -0.000162074
      2        6           0.000315035   -0.000183947   -0.000325684
      3        6           0.000183144   -0.000105784    0.000091902
      4        6          -0.000036045    0.000044441   -0.000090392
      5        6          -0.000073846    0.000032399    0.000079597
      6        6          -0.000068169    0.000013224    0.000321777
      7       17          -0.000296429    0.000178068   -0.000297067
      8       17           0.000051115   -0.000037146    0.000147547
      9       17          -0.000285287    0.000157203    0.000196918
     10        1           0.000011312   -0.000007626    0.000020059
     11        1          -0.000074450    0.000042361   -0.000036001
     12        1           0.000135264   -0.000076275    0.000053417
 -------------------------------------------------------------------
 Cartesian Forces:  Max     0.000325684 RMS     0.000157081

 GradGradGradGradGradGradGradGradGradGradGradGradGradGradGradGradGradGrad
 Berny optimization.
 Using GEDIIS/GDIIS optimizer.
 FormGI is forming the generalized inverse of G from B-inverse, IUseBI=4.
 Internal  Forces:  Max     0.000449514 RMS     0.000111991
 Search for a local minimum.
 Step number   5 out of a maximum of   64
 All quantities printed in internal units (Hartrees-Bohrs-Radians)
 Mixed Optimization -- En-DIIS/RFO-DIIS
 Swapping is turned off.
 Update second derivatives using D2CorX and points    1    2    3    4    5
 DE=  7.33D-05 DEPred=-1.52D-06 R=-4.84D+01
 Trust test=-4.84D+01 RLast= 3.02D-03 DXMaxT set to 1.50D-01
 ITU= -1  1  1  1  0
     Eigenvalues ---    0.02148   0.02155   0.02156   0.02156   0.02156
     Eigenvalues ---    0.02156   0.02157   0.02157   0.02157   0.09228
     Eigenvalues ---    0.15528   0.16014   0.16639   0.21391   0.23808
     Eigenvalues ---    0.24302   0.25444   0.25945   0.29579   0.34432
     Eigenvalues ---    0.35014   0.35037   0.39552   0.40959   0.42875
     Eigenvalues ---    0.45971   0.46362   0.46661   0.57912   0.77668
 En-DIIS/RFO-DIIS IScMMF=        0 using points:     5    4    3
 RFO step:  Lambda=-9.87892398D-07.
 DidBck=F Rises=F RFO-DIIS coefs:    0.91140   -0.17898    0.26757
 Iteration  1 RMS(Cart)=  0.00047981 RMS(Int)=  0.00000013
 Iteration  2 RMS(Cart)=  0.00000015 RMS(Int)=  0.00000006
 Variable       Old X    -DE/DX   Delta X   Delta X   Delta X     New X
                                 (Linear)    (Quad)   (Total)
    R1        2.62864   0.00007   0.00014  -0.00017  -0.00004   2.62861
    R2        2.62843   0.00033   0.00020   0.00025   0.00045   2.62888
    R3        2.04853  -0.00002  -0.00001  -0.00006  -0.00008   2.04846
    R4        2.62848   0.00008   0.00018  -0.00030  -0.00012   2.62837
    R5        3.28668  -0.00038  -0.00063   0.00038  -0.00025   3.28643
    R6        2.62859   0.00006   0.00023  -0.00041  -0.00018   2.62842
    R7        2.04865  -0.00009  -0.00009  -0.00011  -0.00021   2.04845
    R8        2.62890   0.00007   0.00007   0.00000   0.00006   2.62896
    R9        3.28632   0.00015   0.00001   0.00082   0.00082   3.28714
   R10        2.62875   0.00016   0.00011   0.00009   0.00020   2.62895
   R11        2.04875  -0.00011  -0.00013  -0.00008  -0.00021   2.04854
   R12        3.28461   0.00045  -0.00009   0.00169   0.00160   3.28621
    A1        2.06000   0.00004   0.00014  -0.00037  -0.00023   2.05977
    A2        2.11133  -0.00006   0.00007  -0.00033  -0.00026   2.11107
    A3        2.11185   0.00002  -0.00021   0.00070   0.00049   2.11234
    A4        2.12903   0.00000  -0.00021   0.00070   0.00049   2.12952
    A5        2.07692   0.00007  -0.00012   0.00039   0.00027   2.07719
    A6        2.07723  -0.00007   0.00033  -0.00109  -0.00076   2.07648
[...]
    R1        2.62880  -0.00016   0.00000  -0.00039  -0.00039   2.62841
    R2        2.62877  -0.00001   0.00000  -0.00005  -0.00005   2.62872
    R3        2.04848  -0.00003   0.00000  -0.00010  -0.00010   2.04838
    R4        2.62909   0.00002   0.00000   0.00000   0.00000   2.62910
    R5        3.28566   0.00025   0.00000   0.00121   0.00121   3.28687
    R6        2.62885   0.00000   0.00000  -0.00002  -0.00002   2.62883
    R7        2.04853  -0.00002   0.00000  -0.00007  -0.00007   2.04847
    R8        2.62890   0.00001   0.00000   0.00012   0.00012   2.62903
    R9        3.28635  -0.00007   0.00000  -0.00032  -0.00032   3.28604
   R10        2.62882   0.00016   0.00000   0.00024   0.00024   2.62906
   R11        2.04849   0.00005   0.00000   0.00011   0.00011   2.04861
   R12        3.28554   0.00024   0.00000   0.00103   0.00103   3.28657
    A1        2.06032  -0.00006   0.00000  -0.00057  -0.00057   2.05976
    A2        2.11176  -0.00005   0.00000  -0.00035  -0.00035   2.11141
    A3        2.11111   0.00011   0.00000   0.00091   0.00091   2.11202
    A4        2.12839   0.00011   0.00000   0.00069   0.00069   2.12908
    A5        2.07739  -0.00005   0.00000  -0.00027  -0.00027   2.07712
    A6        2.07741  -0.00006   0.00000  -0.00042  -0.00042   2.07698
    A7        2.06022  -0.00002   0.00000  -0.00025  -0.00025   2.05996
    A8        2.11149  -0.00005   0.00000  -0.00041  -0.00041   2.11109
    A9        2.11147   0.00007   0.00000   0.00066   0.00066   2.11213
   A10        2.12870  -0.00002   0.00000  -0.00009  -0.00009   2.12861
   A11        2.07703   0.00009   0.00000   0.00048   0.00048   2.07751
   A12        2.07745  -0.00007   0.00000  -0.00038  -0.00038   2.07707
   A13        2.06002  -0.00004   0.00000  -0.00008  -0.00008   2.05994
   A14        2.11174   0.00001   0.00000   0.00005   0.00005   2.11179
   A15        2.11143   0.00002   0.00000   0.00003   0.00003   2.11146
   A16        2.12872   0.00003   0.00000   0.00030   0.00030   2.12901
   A17        2.07692  -0.00003   0.00000  -0.00021  -0.00021   2.07671
   A18        2.07755   0.00000   0.00000  -0.00009  -0.00009   2.07746
    D1        0.00013   0.00000   0.00000  -0.00013  -0.00013   0.00000
    D2        3.14156   0.00000   0.00000   0.00004   0.00004  -3.14158
    D3       -3.14149   0.00000   0.00000  -0.00010  -0.00010   3.14159
    D4       -0.00006   0.00000   0.00000   0.00007   0.00007   0.00001
    D5       -0.00011   0.00000   0.00000   0.00011   0.00011   0.00000
    D6       -3.14159   0.00000   0.00000  -0.00002  -0.00002   3.14158
    D7        3.14151   0.00000   0.00000   0.00008   0.00008  -3.14159
    D8        0.00004   0.00000   0.00000  -0.00004  -0.00004  -0.00001
    D9       -0.00004   0.00000   0.00000   0.00004   0.00004   0.00000
   D10        3.14152   0.00000   0.00000   0.00008   0.00008  -3.14159
   D11       -3.14146   0.00000   0.00000  -0.00014  -0.00014   3.14158
   D12        0.00009   0.00000   0.00000  -0.00010  -0.00010  -0.00001
   D13       -0.00009   0.00000   0.00000   0.00009   0.00009   0.00000
   D14       -3.14153   0.00000   0.00000  -0.00006  -0.00006   3.14159
   D15        3.14154   0.00000   0.00000   0.00005   0.00005   3.14159
   D16        0.00009   0.00000   0.00000  -0.00010  -0.00010   0.00000
   D17        0.00011   0.00000   0.00000  -0.00011  -0.00011   0.00000
   D18       -3.14154   0.00000   0.00000  -0.00005  -0.00005  -3.14159
   D19        3.14156   0.00000   0.00000   0.00004   0.00004  -3.14159
   D20       -0.00010   0.00000   0.00000   0.00010   0.00010   0.00000
   D21       -0.00001   0.00000   0.00000   0.00001   0.00001   0.00000
   D22        3.14147   0.00000   0.00000   0.00013   0.00013  -3.14159
   D23       -3.14154   0.00000   0.00000  -0.00005  -0.00005   3.14159
   D24       -0.00007   0.00000   0.00000   0.00007   0.00007   0.00000
         Item               Value     Threshold  Converged?
 Maximum Force            0.000248     0.000450     YES
 RMS     Force            0.000067     0.000300     YES
 Maximum Displacement     0.001161     0.001800     YES
 RMS     Displacement     0.000364     0.001200     YES
 Predicted change in Energy=-5.574216D-07
 Optimization completed.
    -- Stationary point found.
                           ----------------------------
                           !   Optimized Parameters   !
                           ! (Angstroms and Degrees)  !
 --------------------------                            --------------------------
 ! Name  Definition              Value          Derivative Info.                !
 --------------------------------------------------------------------------------
 ! R1    R(1,2)                  1.3911         -DE/DX =   -0.0002              !
 ! R2    R(1,6)                  1.3911         -DE/DX =    0.0                 !
 ! R3    R(1,10)                 1.084          -DE/DX =    0.0                 !
 ! R4    R(2,3)                  1.3913         -DE/DX =    0.0                 !
 ! R5    R(2,9)                  1.7387         -DE/DX =    0.0002              !
 ! R6    R(3,4)                  1.3911         -DE/DX =    0.0                 !
 ! R7    R(3,11)                 1.084          -DE/DX =    0.0                 !
 ! R8    R(4,5)                  1.3912         -DE/DX =    0.0                 !
 ! R9    R(4,8)                  1.7391         -DE/DX =   -0.0001              !
 ! R10   R(5,6)                  1.3911         -DE/DX =    0.0002              !
 ! R11   R(5,12)                 1.084          -DE/DX =    0.0                 !
 ! R12   R(6,7)                  1.7386         -DE/DX =    0.0002              !
 ! A1    A(2,1,6)              118.0478         -DE/DX =   -0.0001              !
 ! A2    A(2,1,10)             120.9948         -DE/DX =    0.0                 !
 ! A3    A(6,1,10)             120.9575         -DE/DX =    0.0001              !
 ! A4    A(1,2,3)              121.9479         -DE/DX =    0.0001              !
 ! A5    A(1,2,9)              119.0255         -DE/DX =    0.0                 !
 ! A6    A(3,2,9)              119.0266         -DE/DX =   -0.0001              !
 ! A7    A(2,3,4)              118.0419         -DE/DX =    0.0                 !
 ! A8    A(2,3,11)             120.9796         -DE/DX =    0.0                 !
 ! A9    A(4,3,11)             120.9785         -DE/DX =    0.0001              !
 ! A10   A(3,4,5)              121.9658         -DE/DX =    0.0                 !
 ! A11   A(3,4,8)              119.005          -DE/DX =    0.0001              !
 ! A12   A(5,4,8)              119.0292         -DE/DX =   -0.0001              !
 ! A13   A(4,5,6)              118.0302         -DE/DX =    0.0                 !
 ! A14   A(4,5,12)             120.9938         -DE/DX =    0.0                 !
 ! A15   A(6,5,12)             120.976          -DE/DX =    0.0                 !
 ! A16   A(1,6,5)              121.9665         -DE/DX =    0.0                 !
 ! A17   A(1,6,7)              118.9987         -DE/DX =    0.0                 !
 ! A18   A(5,6,7)              119.0347         -DE/DX =    0.0                 !
 ! D1    D(6,1,2,3)              0.0077         -DE/DX =    0.0                 !
 ! D2    D(6,1,2,9)           -180.0019         -DE/DX =    0.0                 !
 ! D3    D(10,1,2,3)           180.0059         -DE/DX =    0.0                 !
 ! D4    D(10,1,2,9)            -0.0036         -DE/DX =    0.0                 !
 ! D5    D(2,1,6,5)             -0.0063         -DE/DX =    0.0                 !
 ! D6    D(2,1,6,7)            180.0004         -DE/DX =    0.0                 !
 ! D7    D(10,1,6,5)          -180.0046         -DE/DX =    0.0                 !
 ! D8    D(10,1,6,7)             0.0021         -DE/DX =    0.0                 !
 ! D9    D(1,2,3,4)             -0.0022         -DE/DX =    0.0                 !
 ! D10   D(1,2,3,11)          -180.0043         -DE/DX =    0.0                 !
 ! D11   D(9,2,3,4)            180.0074         -DE/DX =    0.0                 !
 ! D12   D(9,2,3,11)             0.0053         -DE/DX =    0.0                 !
 ! D13   D(2,3,4,5)             -0.0051         -DE/DX =    0.0                 !
 ! D14   D(2,3,4,8)            180.0033         -DE/DX =    0.0                 !
 ! D15   D(11,3,4,5)           179.997          -DE/DX =    0.0                 !
 ! D16   D(11,3,4,8)             0.0054         -DE/DX =    0.0                 !
 ! D17   D(3,4,5,6)              0.0064         -DE/DX =    0.0                 !
 ! D18   D(3,4,5,12)          -179.9971         -DE/DX =    0.0                 !
 ! D19   D(8,4,5,6)           -180.002          -DE/DX =    0.0                 !
 ! D20   D(8,4,5,12)            -0.0055         -DE/DX =    0.0                 !
 ! D21   D(4,5,6,1)             -0.0005         -DE/DX =    0.0                 !
 ! D22   D(4,5,6,7)           -180.0072         -DE/DX =    0.0                 !
 ! D23   D(12,5,6,1)           180.003          -DE/DX =    0.0                 !
 ! D24   D(12,5,6,7)            -0.0037         -DE/DX =    0.0                 !
 --------------------------------------------------------------------------------
 GradGradGradGradGradGradGradGradGradGradGradGradGradGradGradGradGradGrad

 1\1\GINC-KATANA2\Freq\RM062X\6-31+G(d)\C6H3Cl3\Z5358697\16-Mar-2025\0\
 \#N Geom=AllCheck Guess=TCheck SCRF=Check GenChk RM062X/6-31+G(d) Freq
 \\1,3,5-trichlorobenzene\\0,1\C,1.8855513641,-1.0360778389,-0.12214802
 42\C,2.9075153921,-1.6234578937,0.6165928534\C,2.8855500366,-1.6561145
 781,2.007292619\C,1.800135105,-1.0784183639,2.6579687216\C,0.756167947
 ,-0.4800403154,1.9598350345\C,0.8198098929,-0.4704385964,0.5702150413\
 Cl,-0.4710484342,0.2703752973,-0.3285168899\Cl,1.7471283523,-1.1050366
 79,4.3960209907\Cl,4.251937064,-2.3381495263,-0.2229361982\H,1.9184054
 093,-1.0194293542,-1.2055333368\H,3.6905171624,-2.1181513434,2.5673708
 782\H,-0.0821692914,-0.034460808,2.4830383103\\Version=ES64L-G09RevD.0
 1\State=1-A\HF=-1610.8503468\RMSD=2.416e-09\RMSF=1.147e-04\ZeroPoint=0
 .0724604\Thermal=0.0803425\Dipole=-0.0002866,0.0001586,-0.000325\Dipol
 eDeriv=-0.4579771,0.1942037,-0.0055644,0.194221,-0.2135018,0.0044181,-
 0.0062507,0.0048291,-0.1484148,0.8081502,-0.427778,-0.4038959,-0.42799
 07,0.2385055,0.208042,-0.398998,0.2053161,0.4686539,-0.225967,0.061806
 7,0.1672595,0.0618684,-0.135704,-0.0810621,0.1651234,-0.0798924,-0.452
 4656,0.1700109,-0.0900249,-0.0344038,-0.0899182,0.0550961,-0.0219969,-
 0.0377667,-0.020212,1.2805187,-0.2110831,0.0630259,-0.1520669,0.062995
 8,-0.1434732,0.0955955,-0.1506852,0.0948336,-0.4702841,0.7553393,-0.42
 59303,0.4067593,-0.4258795,0.2494388,-0.2404195,0.4064222,-0.2402501,0
 .5070408,-0.4902269,0.2535127,-0.2817007,0.2534426,-0.1920707,0.163298
 8,-0.2808032,0.1628216,-0.2941163,-0.0837382,0.0194346,0.0227729,0.019
 428,-0.0582995,0.0126161,0.0229895,0.0125497,-0.8315696,-0.5248715,0.2
 526729,0.2777671,0.2528308,-0.1853637,-0.146226,0.2746812,-0.144497,-0
 .2689982,0.1048922,0.0229193,0.0011602,0.0228609,0.1338225,0.0025411,0
 .0029883,0.0015305,0.0474949,0.0788774,0.03796,-0.0169693,0.0379316,0.
 1254241,0.0114831,-0.0159986,0.0109441,0.0809899,0.0765938,0.0381974,0
 .018882,0.0382094,0.1261259,-0.00829,0.0182978,-0.0079733,0.0811505\Po
 lar=110.5765196,-30.3779021,72.2635067,-0.9160141,-1.8052527,127.31128
 98\PG=C01 [X(C6H3Cl3)]\NImag=0\\0.55564265,-0.23779134,0.25555735,-0.0
 1079202,-0.01526624,0.78497983,-0.21819915,0.09118741,-0.12874669,0.46
 611468,0.08902739,-0.11188948,0.07538871,-0.19157484,0.22864496,-0.061
 51228,0.03830082,-0.19669356,0.04764785,-0.04325672,0.64960970,0.03450
 310,-0.01453987,-0.02099285,-0.10333561,0.02511098,-0.04254971,0.60802
 355,-0.01298168,0.01367555,0.01258008,0.02294893,-0.07400531,0.0327618
 4,-0.26838848,0.27238916,-0.06938957,0.03927699,-0.02423916,0.02463047
 ,-0.00429523,-0.34886490,0.03040628,-0.03569322,0.71089143,-0.06520820
 ,0.03514335,-0.00148306,0.03049667,-0.01745579,0.08944784,-0.25290794,
 0.10495833,0.04375485,0.55080559,0.03514503,-0.02099068,0.00077473,-0.
 01536179,0.01409500,-0.04832613,0.10279718,-0.11606874,-0.02107754,-0.
 23624466,0.25294658,-0.00151503,0.00079269,-0.00021286,0.02435962,-0.0
 1242480,-0.02736656,0.11092143,-0.05812481,-0.15484246,-0.00393852,-0.
 01116180,0.53632671,0.02869576,-0.01275352,0.02391308,-0.01483230,0.00
 828781,-0.03043628,-0.03876101,0.02448575,0.02123223,-0.24309446,0.104
 57267,-0.11353948,0.61289982,-0.01431069,0.01525587,-0.01231775,0.0082
 9121,-0.00675798,0.01882520,0.02604354,-0.00705623,-0.01374123,0.10241
 283,-0.11877181,0.06594384,-0.26876967,0.27117159,0.07226748,-0.038987
 57,-0.02019099,-0.03049147,0.01885247,-0.06483388,-0.02723734,0.012993
 48,0.06990467,-0.04640934,0.02891560,-0.16299133,-0.04395653,0.0053934
 0,0.70886370,-0.23005756,0.08942968,0.12976568,-0.04952471,0.03068252,
 -0.03620345,-0.01870456,0.00834850,0.03357725,0.03721831,-0.01762071,-
 0.02088700,-0.10531348,0.02531693,-0.00951373,0.47672690,0.09158988,-0
 .10873066,-0.06749846,0.02858636,-0.01234419,0.01754207,0.00834891,-0.
 00568041,-0.01658114,-0.01552333,0.01221116,0.01268165,0.02316065,-0.0
 7321214,0.01445700,-0.19332547,0.22864159,0.06252337,-0.03041116,-0.18
 745403,0.02889956,-0.01836762,0.07953463,0.03363670,-0.01661018,-0.061
 94132,-0.08607080,0.04863575,-0.03199981,0.05749286,-0.02250156,-0.346
 24583,-0.06263017,0.01787887,0.64114277,-0.02959037,0.01947340,-0.0213
 3075,0.00223053,0.00138210,0.00498477,-0.00142908,0.00026860,-0.002057
 75,0.00262898,0.00129281,0.00098781,-0.00905566,0.00773930,-0.01004717
 ,-0.11669294,0.05323457,-0.05397514,0.15351846,0.01874163,-0.00623961,
 0.01174556,0.00150416,0.00427780,-0.00254082,0.00027024,-0.00124559,0.
 00107181,0.00117056,0.00439604,-0.00032186,0.00847665,-0.00048819,0.00
 635913,0.05323096,-0.05367751,0.03140253,-0.08095588,0.05774477,0.0014
 5240,-0.00082095,0.00509769,0.00120061,-0.00045424,-0.00144775,-0.0021
 0048,0.00109649,0.00086903,0.00476949,-0.00240878,-0.00189609,-0.03296
 654,0.01899871,-0.02099305,-0.05389101,0.03135851,-0.07428146,0.082682
 40,-0.04817737,0.09173994,0.00150385,-0.00142404,0.00011046,-0.0016692
 4,0.00376347,-0.00176011,0.00247009,0.00025667,0.02557216,-0.03577173,
 0.00671276,0.00541196,0.00405324,0.00094863,-0.02301215,-0.00163549,0.
 00363328,0.00156116,-0.00018898,0.00009066,-0.00080292,0.03167169,-0.0
 0142471,-0.00028569,0.00000322,0.00364050,0.00301025,0.00101136,0.0009
 9011,0.00429070,-0.01275777,0.00671202,-0.02705227,0.00195261,0.000215
 40,0.00385997,0.01407819,0.00375766,0.00299615,-0.00081999,0.00009277,
 -0.00013844,0.00048895,-0.01087126,0.01760680,0.00013586,-0.00001024,-
 0.00307742,0.00203308,-0.00108075,0.00377264,0.00275086,-0.00017151,-0
 .03741692,0.00544213,0.00193874,-0.17691252,-0.00020445,0.00149618,-0.
 03858301,-0.00228246,0.00130015,0.00375595,-0.00086806,0.00052461,-0.0
 0149646,-0.00788224,-0.00330937,0.24960695,-0.03063716,0.01874286,0.01
 970449,-0.11940619,0.05203015,0.05196681,-0.01180941,0.00863836,0.0108
 8384,0.00293894,0.00117331,-0.00054810,-0.00166508,0.00026820,0.001956
 22,0.00268509,0.00145771,-0.00471340,-0.00159007,0.00084317,-0.0000780
 1,-0.00030539,0.00010044,0.00096364,0.15966355,0.01947552,-0.00590567,
 -0.01091573,0.05203335,-0.04990837,-0.02710805,0.00789900,0.00029521,-
 0.00524481,0.00129873,0.00429928,0.00053601,0.00026810,-0.00117577,-0.
 00114726,0.00133612,0.00422634,0.00281739,0.00084104,-0.00053087,0.000
 03184,0.00010272,-0.00010796,-0.00048741,-0.07986696,0.05294423,-0.003
 11881,0.00167362,0.00594356,0.05192453,-0.02708209,-0.07079009,0.03384
 839,-0.01791465,-0.01906709,-0.00443071,0.00267646,-0.00222030,0.00195
 677,-0.00114655,0.00102592,-0.00094796,0.00074018,-0.00170881,-0.00001
 152,-0.00000486,0.00028244,0.00089220,-0.00044777,-0.00143860,-0.08014
 608,0.04178420,0.08588564,-0.05107391,0.00869580,0.00932262,0.00396663
 ,0.00007227,-0.02349746,-0.00221742,0.00440398,-0.00171309,-0.00136252
 ,0.00027500,-0.00006059,-0.00245202,0.00443230,0.00165722,0.00263488,-
 0.00073190,0.02425878,-0.00001394,-0.00156359,0.00053319,0.00006626,-0
 .00026292,-0.00000666,0.00001347,-0.00156045,-0.00056685,0.04977347,0.
 00869367,-0.03972499,0.00509236,-0.00076496,0.00272142,0.01339532,0.00
 441594,0.00319601,0.00110844,0.00027363,-0.00101792,-0.00001611,0.0044
 1967,0.00326630,-0.00075317,0.00010569,0.00307860,-0.01297737,-0.00152
 623,-0.00196241,-0.00041804,-0.00026293,-0.00026536,-0.00001240,-0.001
 59395,-0.00197550,0.00019110,-0.01369604,0.03209829,0.00939273,0.00505
 274,-0.35361925,0.00257491,-0.00098452,-0.01083542,-0.00208871,0.00131
 494,0.00058511,-0.00001820,-0.00003987,0.00068304,0.00205179,-0.000971
 35,0.00067507,-0.00182402,0.00141026,-0.00986269,-0.00062981,0.0002236
 4,0.00103916,-0.00000631,-0.00001248,0.00008816,0.00047369,-0.00038268
 ,0.00093574,-0.00996756,-0.00562767,0.37100145,0.00214636,0.00192384,0
 .00118318,0.00420803,-0.00089887,0.00273211,-0.21539014,0.10357160,-0.
 11383074,-0.01292307,0.00908969,-0.01346660,-0.00084410,0.00352862,0.0
 0321936,-0.00015849,-0.00042821,0.00088535,-0.00000268,-0.00022554,-0.
 00005957,-0.00007333,-0.00149281,-0.00054974,0.00012501,-0.00159983,0.
 00056018,0.00036722,-0.00005587,0.00011381,0.22301511,0.00191097,0.004
 65894,-0.00030093,-0.00006286,0.00280656,-0.00106138,0.10357413,-0.093
 51486,0.06600476,0.00825041,-0.00201145,0.00716841,0.00354039,0.003838
 26,-0.00154388,-0.00042646,-0.00063217,-0.00048822,-0.00022596,-0.0002
 9091,0.00001366,-0.00152623,-0.00197610,0.00018576,-0.00156594,-0.0018
 6513,-0.00042827,-0.00001578,0.00028255,-0.00004236,-0.11384514,0.0886
 5580,0.00156374,-0.00051052,-0.00523434,-0.02321533,0.01324999,-0.0110
 8470,-0.11386710,0.06602552,-0.13420974,0.01256246,-0.00718828,0.01081
 204,0.00286079,-0.00134619,-0.00145091,0.00083445,-0.00046022,-0.00088
 671,-0.00004634,0.00000636,0.00018132,0.00048437,-0.00038488,0.0008429
 8,-0.00050303,0.00015791,0.00097180,-0.00113001,0.00064367,-0.00036255
 ,0.11986478,-0.06985377,0.13972674,0.00227464,0.00191244,-0.00065413,-
 0.00004935,-0.00042720,-0.00082010,-0.00044158,0.00348943,-0.00306593,
 -0.01282058,0.00816872,0.01227450,-0.22963070,0.10409882,0.11156747,0.
 00282204,-0.00000246,-0.00186826,0.00018574,-0.00158302,-0.00073956,-0
 .00012096,-0.00145721,0.00046805,-0.00001276,-0.00022735,0.00003986,0.
 00029790,-0.00000861,-0.00007232,-0.00046992,0.00039246,0.00059123,0.2
 3796553,0.00192432,0.00461906,0.00071446,-0.00042749,-0.00065066,0.000
 45648,0.00347831,0.00372452,0.00192893,0.00900393,-0.00203518,-0.00702
 584,0.10409611,-0.08992988,-0.05861738,-0.00083542,0.00312325,0.001441
 57,-0.00161651,-0.00184508,0.00029123,-0.00142372,-0.00193806,-0.00037
 375,-0.00022735,-0.00029580,-0.00004136,-0.00004866,0.00030302,0.00005
 936,0.00043253,0.00004851,-0.00033959,-0.11435603,0.08487630,-0.001007
 86,0.00090983,-0.00529945,-0.00081714,0.00045479,-0.00100012,-0.002727
 46,0.00174204,-0.00166864,-0.01362613,0.00726114,0.01062013,0.11159576
 ,-0.05863270,-0.12518037,0.02400242,-0.01282887,-0.01005270,0.00031156
 ,-0.00028873,0.00090523,-0.00056857,0.00019792,0.00085825,0.00003993,-
 0.00004141,0.00017978,0.00117041,-0.00062612,-0.00032782,-0.00065212,0
 .00034621,0.00069407,-0.11772082,0.06150590,0.13027163\\-0.00004454,0.
 00001218,0.00007049,0.00039357,-0.00019897,-0.00006617,-0.00003010,0.0
 0002098,-0.00006917,-0.00007204,0.00002293,-0.00005144,0.00002784,-0.0
 0000476,-0.00015623,-0.00025035,0.00015018,-0.00004960,0.00017343,-0.0
 0010309,0.00013443,0.00004403,-0.00002280,0.00007069,-0.00019566,0.000
 10025,0.00011457,-0.00006859,0.00003763,-0.00002804,-0.00001337,0.0000
 0505,0.00005643,0.00003579,-0.00001960,-0.00002597\\\@


 LOGIC IS A SYSTEMATIC METHOD OF COMING TO THE
 WRONG CONCLUSION WITH CONFIDENCE.
 Job cpu time:       0 days  0 hours  5 minutes 42.2 seconds.
 File lengths (MBytes):  RWF=    134 Int=      0 D2E=      0 Chk=      4 Scr=      2
 Normal termination of Gaussian 09 at Sun Mar 16 20:02:34 2025.
