 Entering Gaussian System, Link 0=g09
 Initial command:
 /apps/z_install_tree/linux-rocky8-ivybridge/gcc-12.2.0/gaussian-09-D.01-wczn3gur5lpur3omlkzwa2l5ecyxp5ef/g09/l1.exe "/srv/scratch/z5358697/gauss/Gau-794784.inp" -scrdir="/srv/scratch/z5358697/gauss/"
 Entering Link 1 = /apps/z_install_tree/linux-rocky8-ivybridge/gcc-12.2.0/gaussian-09-D.01-wczn3gur5lpur3omlkzwa2l5ecyxp5ef/g09/l1.exe PID=    794786.
  
 Copyright (c) 1988,1990,1992,1993,1995,1998,2003,2009,2013,
            Gaussian, Inc.  All Rights Reserved.
  
 This is part of the Gaussian(R) 09 program.  It is based on
 the Gaussian(R) 03 system (copyright 2003, Gaussian, Inc.),
 the Gaussian(R) 98 system (copyright 1998, Gaussian, Inc.),
 the Gaussian(R) 94 system (copyright 1995, Gaussian, Inc.),
 the Gaussian 92(TM) system (copyright 1992, Gaussian, Inc.),
 the Gaussian 90(TM) system (copyright 1990, Gaussian, Inc.),
 the Gaussian 88(TM) system (copyright 1988, Gaussian, Inc.),
 the Gaussian 86(TM) system (copyright 1986, Carnegie Mellon
 University), and the Gaussian 82(TM) system (copyright 1983,
 Carnegie Mellon University). Gaussian is a federally registered
 trademark of Gaussian, Inc.
  
 This software contains proprietary and confidential information,
 including trade secrets, belonging to Gaussian, Inc.
  
 This software is provided under written license and may be
 used, copied, transmitted, or stored only in accord with that
 written license.
  
 The following legend is applicable only to US Government
 contracts under FAR:
  
                    RESTRICTED RIGHTS LEGEND
  
 Use, reproduction and disclosure by the US Government is
 subject to restrictions as set forth in subparagraphs (a)
 and (c) of the Commercial Computer Software - Restricted
 Rights clause in FAR 52.227-19.
  
 Gaussian, Inc.
 340 Quinnipiac St., Bldg. 40, Wallingford CT 06492
  
  
 ---------------------------------------------------------------
 Warning -- This program may not be used in any manner that
 competes with the business of Gaussian, Inc. or will provide
 assistance to any competitor of Gaussian, Inc.  The licensee
 of this program is prohibited from giving any competitor of
 Gaussian, Inc. access to this program.  By using this program,
 the user acknowledges that Gaussian, Inc. is engaged in the
 business of creating and licensing software in the field of
 computational chemistry and represents and warrants to the
 licensee that it is not a competitor of Gaussian, Inc. and that
 it will not use this program in any manner prohibited above.
 ---------------------------------------------------------------
  

 Cite this work as:
 Gaussian 09, Revision D.01,
 M. J. Frisch, G. W. Trucks, H. B. Schlegel, G. E. Scuseria, 
 M. A. Robb, J. R. Cheeseman, G. Scalmani, V. Barone, B. Mennucci, 
 G. A. Petersson, H. Nakatsuji, M. Caricato, X. Li, H. P. Hratchian, 
 A. F. Izmaylov, J. Bloino, G. Zheng, J. L. Sonnenberg, M. Hada, 
 M. Ehara, K. Toyota, R. Fukuda, J. Hasegawa, M. Ishida, T. Nakajima, 
 Y. Honda, O. Kitao, H. Nakai, T. Vreven, J. A. Montgomery, Jr., 
 J. E. Peralta, F. Ogliaro, M. Bearpark, J. J. Heyd, E. Brothers, 
 K. N. Kudin, V. N. Staroverov, T. Keith, R. Kobayashi, J. Normand, 
 K. Raghavachari, A. Rendell, J. C. Burant, S. S. Iyengar, J. Tomasi, 
 M. Cossi, N. Rega, J. M. Millam, M. Klene, J. E. Knox, J. B. Cross, 
 V. Bakken, C. Adamo, J. Jaramillo, R. Gomperts, R. E. Stratmann, 
 O. Yazyev, A. J. Austin, R. Cammi, C. Pomelli, J. W. Ochterski, 
 R. L. Martin, K. Morokuma, V. G. Zakrzewski, G. A. Voth, 
 P. Salvador, J. J. Dannenberg, S. Dapprich, A. D. Daniels, 
 O. Farkas, J. B. Foresman, J. V. Ortiz, J. Cioslowski, 
 and D. J. Fox, Gaussian, Inc., Wallingford CT, 2013.
 
 ******************************************
 Gaussian 09:  ES64L-G09RevD.01 24-Apr-2013
                18-Mar-2025 
 ******************************************
 ---------------------------------
 #m062X/6-31+G(d) OPT Freq=noraman
 ---------------------------------
 1/14=-1,18=20,19=15,26=3,38=1/1,3;
 2/9=110,12=2,17=6,18=5,40=1/2;
 3/5=1,6=6,7=11,11=2,16=1,25=1,30=1,71=1,74=-55/1,2,3;
 4//1;
 5/5=2,38=5/2;
 6/7=2,8=2,9=2,10=2,28=1/1;
 7//1,2,3,16;
 1/14=-1,18=20,19=15,26=3/3(2);
 2/9=110/2;
 99//99;
 2/9=110/2;
 3/5=1,6=6,7=11,11=2,16=1,25=1,30=1,71=1,74=-55/1,2,3;
 4/5=5,16=3,69=1/1;
 5/5=2,38=5/2;
 7//1,2,3,16;
 1/14=-1,18=20,19=15,26=3/3(-5);
 2/9=110/2;
 6/7=2,8=2,9=2,10=2,19=2,28=1/1;
 99/9=1/99;
 ---------------------
 isoindoline-1,3-dione
 ---------------------
 Symbolic Z-matrix:
 Charge =  0 Multiplicity = 1
 C                    -0.4087   -0.9494   -1.8988 
 C                    -0.1118   -0.9479   -0.5202 
 C                     0.0406   -2.1457    0.1841 
 C                    -0.1119   -3.3166   -0.5286 
 C                    -0.404    -3.3182   -1.886 
 C                    -0.5588   -2.1488   -2.601 
 C                    -0.4965   -4.7098   -2.3265 
 O                    -0.7391   -5.0654   -3.4639 
 N                    -0.2546   -5.4684   -1.2055 
 C                    -0.015    -4.7072   -0.0858 
 O                     0.2311   -5.0602    1.0516 
 H                    -0.5213   -0.0028   -2.421 
 H                    -0.0005   -0.0001    0.0001 
 H                     0.2685   -2.144     1.2436 
 H                    -0.7867   -2.1496   -3.6604 
 H                    -0.2532   -6.4822   -1.2046 
 

 GradGradGradGradGradGradGradGradGradGradGradGradGradGradGradGradGradGrad
 Berny optimization.
 Initialization pass.
                           ----------------------------
                           !    Initial Parameters    !
                           ! (Angstroms and Degrees)  !
 --------------------------                            --------------------------
 ! Name  Definition              Value          Derivative Info.                !
 --------------------------------------------------------------------------------
 ! R1    R(1,2)                  1.4102         estimate D2E/DX2                !
 ! R2    R(1,6)                  1.3979         estimate D2E/DX2                !
 ! R3    R(1,12)                 1.0869         estimate D2E/DX2                !
 ! R4    R(2,3)                  1.3979         estimate D2E/DX2                !
 ! R5    R(2,13)                 1.0869         estimate D2E/DX2                !
 ! R6    R(3,4)                  1.3792         estimate D2E/DX2                !
 ! R7    R(3,14)                 1.0837         estimate D2E/DX2                !
 ! R8    R(4,5)                  1.3885         estimate D2E/DX2                !
 ! R9    R(4,10)                 1.4626         estimate D2E/DX2                !
 ! R10   R(5,6)                  1.3794         estimate D2E/DX2                !
 ! R11   R(5,7)                  1.4626         estimate D2E/DX2                !
 ! R12   R(6,15)                 1.0836         estimate D2E/DX2                !
 ! R13   R(7,8)                  1.2161         estimate D2E/DX2                !
 ! R14   R(7,9)                  1.375          estimate D2E/DX2                !
 ! R15   R(9,10)                 1.375          estimate D2E/DX2                !
 ! R16   R(9,16)                 1.0138         estimate D2E/DX2                !
 ! R17   R(10,11)                1.2161         estimate D2E/DX2                !
 ! A1    A(2,1,6)              120.9692         estimate D2E/DX2                !
 ! A2    A(2,1,12)             119.3767         estimate D2E/DX2                !
 ! A3    A(6,1,12)             119.654          estimate D2E/DX2                !
 ! A4    A(1,2,3)              120.9703         estimate D2E/DX2                !
 ! A5    A(1,2,13)             119.3697         estimate D2E/DX2                !
 ! A6    A(3,2,13)             119.66           estimate D2E/DX2                !
 ! A7    A(2,3,4)              117.0684         estimate D2E/DX2                !
 ! A8    A(2,3,14)             120.9413         estimate D2E/DX2                !
 ! A9    A(4,3,14)             121.9903         estimate D2E/DX2                !
 ! A10   A(3,4,5)              121.9664         estimate D2E/DX2                !
 ! A11   A(3,4,10)             130.0459         estimate D2E/DX2                !
 ! A12   A(5,4,10)             107.9877         estimate D2E/DX2                !
 ! A13   A(4,5,6)              121.9637         estimate D2E/DX2                !
 ! A14   A(4,5,7)              107.9894         estimate D2E/DX2                !
 ! A15   A(6,5,7)              130.0469         estimate D2E/DX2                !
 ! A16   A(1,6,5)              117.062          estimate D2E/DX2                !
 ! A17   A(1,6,15)             120.9506         estimate D2E/DX2                !
 ! A18   A(5,6,15)             121.9874         estimate D2E/DX2                !
 ! A19   A(5,7,8)              124.9253         estimate D2E/DX2                !
 ! A20   A(5,7,9)              105.5609         estimate D2E/DX2                !
 ! A21   A(8,7,9)              129.5137         estimate D2E/DX2                !
 ! A22   A(7,9,10)             112.9007         estimate D2E/DX2                !
 ! A23   A(7,9,16)             123.5507         estimate D2E/DX2                !
 ! A24   A(10,9,16)            123.5487         estimate D2E/DX2                !
 ! A25   A(4,10,9)             105.5613         estimate D2E/DX2                !
 ! A26   A(4,10,11)            124.9283         estimate D2E/DX2                !
 ! A27   A(9,10,11)            129.5103         estimate D2E/DX2                !
 ! D1    D(6,1,2,3)             -0.0191         estimate D2E/DX2                !
 ! D2    D(6,1,2,13)           179.9918         estimate D2E/DX2                !
 ! D3    D(12,1,2,3)          -179.9745         estimate D2E/DX2                !
 ! D4    D(12,1,2,13)            0.0364         estimate D2E/DX2                !
 ! D5    D(2,1,6,5)              0.0131         estimate D2E/DX2                !
 ! D6    D(2,1,6,15)          -179.9846         estimate D2E/DX2                !
 ! D7    D(12,1,6,5)           179.9683         estimate D2E/DX2                !
 ! D8    D(12,1,6,15)           -0.0293         estimate D2E/DX2                !
 ! D9    D(1,2,3,4)              0.0131         estimate D2E/DX2                !
 ! D10   D(1,2,3,14)          -179.9833         estimate D2E/DX2                !
 ! D11   D(13,2,3,4)          -179.9979         estimate D2E/DX2                !
 ! D12   D(13,2,3,14)            0.0057         estimate D2E/DX2                !
 ! D13   D(2,3,4,5)             -0.0021         estimate D2E/DX2                !
 ! D14   D(2,3,4,10)           179.9687         estimate D2E/DX2                !
 ! D15   D(14,3,4,5)           179.9943         estimate D2E/DX2                !
 ! D16   D(14,3,4,10)           -0.0349         estimate D2E/DX2                !
 ! D17   D(3,4,5,6)             -0.0034         estimate D2E/DX2                !
 ! D18   D(3,4,5,7)            179.9492         estimate D2E/DX2                !
 ! D19   D(10,4,5,6)          -179.98           estimate D2E/DX2                !
 ! D20   D(10,4,5,7)            -0.0273         estimate D2E/DX2                !
 ! D21   D(3,4,10,9)          -179.9542         estimate D2E/DX2                !
 ! D22   D(3,4,10,11)           -0.0263         estimate D2E/DX2                !
 ! D23   D(5,4,10,9)             0.0198         estimate D2E/DX2                !
 ! D24   D(5,4,10,11)          179.9477         estimate D2E/DX2                !
 ! D25   D(4,5,6,1)             -0.0021         estimate D2E/DX2                !
 ! D26   D(4,5,6,15)           179.9955         estimate D2E/DX2                !
 ! D27   D(7,5,6,1)           -179.9432         estimate D2E/DX2                !
 ! D28   D(7,5,6,15)             0.0543         estimate D2E/DX2                !
 ! D29   D(4,5,7,8)           -179.9116         estimate D2E/DX2                !
 ! D30   D(4,5,7,9)              0.0246         estimate D2E/DX2                !
 ! D31   D(6,5,7,8)              0.036          estimate D2E/DX2                !
 ! D32   D(6,5,7,9)            179.9721         estimate D2E/DX2                !
 ! D33   D(5,7,9,10)            -0.0123         estimate D2E/DX2                !
 ! D34   D(5,7,9,16)           179.9784         estimate D2E/DX2                !
 ! D35   D(8,7,9,10)           179.9198         estimate D2E/DX2                !
 ! D36   D(8,7,9,16)            -0.0895         estimate D2E/DX2                !
 ! D37   D(7,9,10,4)            -0.0041         estimate D2E/DX2                !
 ! D38   D(7,9,10,11)         -179.9275         estimate D2E/DX2                !
 ! D39   D(16,9,10,4)         -179.9947         estimate D2E/DX2                !
 ! D40   D(16,9,10,11)           0.0819         estimate D2E/DX2                !
 --------------------------------------------------------------------------------
 Trust Radius=3.00D-01 FncErr=1.00D-07 GrdErr=1.00D-06
 Number of steps in this run=     94 maximum allowed number of steps=    100.
 GradGradGradGradGradGradGradGradGradGradGradGradGradGradGradGradGradGrad

                          Input orientation:                          
 ---------------------------------------------------------------------
 Center     Atomic      Atomic             Coordinates (Angstroms)
 Number     Number       Type             X           Y           Z
 ---------------------------------------------------------------------
      1          6           0       -0.408700   -0.949400   -1.898800
      2          6           0       -0.111800   -0.947900   -0.520200
      3          6           0        0.040600   -2.145700    0.184100
      4          6           0       -0.111900   -3.316600   -0.528600
      5          6           0       -0.404000   -3.318200   -1.886000
      6          6           0       -0.558800   -2.148800   -2.601000
      7          6           0       -0.496500   -4.709800   -2.326500
      8          8           0       -0.739100   -5.065400   -3.463900
      9          7           0       -0.254600   -5.468400   -1.205500
     10          6           0       -0.015000   -4.707200   -0.085800
     11          8           0        0.231100   -5.060200    1.051600
     12          1           0       -0.521300   -0.002800   -2.421000
     13          1           0       -0.000500   -0.000100    0.000100
     14          1           0        0.268500   -2.144000    1.243600
     15          1           0       -0.786700   -2.149600   -3.660400
     16          1           0       -0.253200   -6.482200   -1.204600
 ---------------------------------------------------------------------
                    Distance matrix (angstroms):
                    1          2          3          4          5
     1  C    0.000000
     2  C    1.410209   0.000000
     3  C    2.443660   1.397852   0.000000
     4  C    2.751213   2.368715   1.379204   0.000000
     5  C    2.368839   2.751202   2.420277   1.388474   0.000000
     6  C    1.397918   2.443706   2.848872   2.420396   1.379378
     7  C    3.785663   4.190776   3.628526   2.306809   1.462582
     8  O    4.415898   5.100263   4.737139   3.473855   2.377976
     9  N    4.574470   4.574380   3.613650   2.260266   2.260257
    10  C    4.190827   3.785553   2.576280   1.462611   2.306808
    11  O    5.100282   4.415784   3.046827   2.377987   3.473818
    12  H    1.086933   2.161931   3.419693   3.837976   3.360337
    13  H    2.161855   1.086934   2.153867   3.360224   3.837965
    14  H    3.429336   2.164780   1.083735   2.158793   3.409604
    15  H    2.164855   3.429348   3.932508   3.409606   2.158838
    16  H    5.578348   5.578250   4.562898   3.240056   3.240053
                    6          7          8          9         10
     6  C    0.000000
     7  C    2.576422   0.000000
     8  O    3.046910   1.216135   0.000000
     9  N    3.613821   1.375002   2.344679   0.000000
    10  C    3.628686   2.291852   3.473354   1.374977   0.000000
    11  O    4.737265   3.473290   4.618556   2.344575   1.216081
    12  H    2.153862   4.708014   5.173490   5.605475   5.276446
    13  H    3.419698   5.276396   6.180784   5.605385   4.707906
    14  H    3.932607   4.462529   5.631198   4.162134   2.901322
    15  H    1.083636   2.901401   2.922801   4.162223   4.462578
    16  H    4.563078   2.111695   2.710693   1.013801   2.111653
                   11         12         13         14         15
    11  O    0.000000
    12  H    6.180805   0.000000
    13  H    5.173384   2.476482   0.000000
    14  H    2.922753   4.317154   2.492982   0.000000
    15  H    5.631204   2.493050   4.317143   5.016243   0.000000
    16  H    2.710548   6.598040   6.597938   5.008576   5.008692
                   16
    16  H    0.000000
 Stoichiometry    C8H5NO2
 Framework group  C1[X(C8H5NO2)]
 Deg. of freedom    42
 Full point group                 C1      NOp   1
 Largest Abelian subgroup         C1      NOp   1
 Largest concise Abelian subgroup C1      NOp   1
                         Standard orientation:                         
 ---------------------------------------------------------------------
 Center     Atomic      Atomic             Coordinates (Angstroms)
 Number     Number       Type             X           Y           Z
 ---------------------------------------------------------------------
      1          6           0       -2.518834    0.705016    0.000031
      2          6           0       -2.518712   -0.705193    0.000545
      3          6           0       -1.320084   -1.424415    0.000104
      4          6           0       -0.150022   -0.694236   -0.000566
      5          6           0       -0.150019    0.694238   -0.000843
      6          6           0       -1.320260    1.424457   -0.000533
      7          6           0        1.241064    1.145939   -0.000324
      8          8           0        1.595329    2.309331    0.001138
      9          7           0        2.000983    0.000010   -0.000331
     10          6           0        1.241099   -1.145913   -0.000531
     11          8           0        1.595438   -2.309225    0.000597
     12          1           0       -3.466047    1.238129    0.000814
     13          1           0       -3.465899   -1.238353    0.001113
     14          1           0       -1.320538   -2.508149    0.000228
     15          1           0       -1.320706    2.508093   -0.000677
     16          1           0        3.014784    0.000001   -0.000341
 ---------------------------------------------------------------------
 Rotational constants (GHZ):      1.7422310      1.2457321      0.7263656
 Standard basis: 6-31+G(d) (6D, 7F)
 There are   219 symmetry adapted cartesian basis functions of A   symmetry.
 There are   219 symmetry adapted basis functions of A   symmetry.
   219 basis functions,   372 primitive gaussians,   219 cartesian basis functions
    38 alpha electrons       38 beta electrons
       nuclear repulsion energy       559.7577504463 Hartrees.
 NAtoms=   16 NActive=   16 NUniq=   16 SFac= 1.00D+00 NAtFMM=   60 NAOKFM=F Big=F
 Integral buffers will be    131072 words long.
 Raffenetti 2 integral format.
 Two-electron integral symmetry is turned on.
 One-electron integrals computed using PRISM.
 NBasis=   219 RedAO= T EigKep=  2.62D-06  NBF=   219
 NBsUse=   218 1.00D-06 EigRej=  8.01D-07 NBFU=   218
 ExpMin= 4.38D-02 ExpMax= 5.48D+03 ExpMxC= 8.25D+02 IAcc=2 IRadAn=         4 AccDes= 0.00D+00
 Harris functional with IExCor= 1009 and IRadAn=       4 diagonalized for initial guess.
 HarFok:  IExCor= 1009 AccDes= 0.00D+00 IRadAn=         4 IDoV= 1 UseB2=F ITyADJ=14
 ICtDFT=  3500011 ScaDFX=  1.000000  1.000000  1.000000  1.000000
 FoFCou: FMM=F IPFlag=           0 FMFlag=      100000 FMFlg1=           0
         NFxFlg=           0 DoJE=T BraDBF=F KetDBF=T FulRan=T
         wScrn=  0.000000 ICntrl=     500 IOpCl=  0 I1Cent=   200000004 NGrid=           0
         NMat0=    1 NMatS0=      1 NMatT0=    0 NMatD0=    1 NMtDS0=    0 NMtDT0=    0
 Petite list used in FoFCou.
 Requested convergence on RMS density matrix=1.00D-08 within 128 cycles.
 Requested convergence on MAX density matrix=1.00D-06.
 Requested convergence on             energy=1.00D-06.
 No special actions if energy rises.
 SCF Done:  E(RM062X) =  -512.900464087     A.U. after   15 cycles
            NFock= 15  Conv=0.34D-08     -V/T= 2.0080

 **********************************************************************

            Population analysis using the SCF density.

 **********************************************************************

 Orbital symmetries:
       Occupied  (A) (A) (A) (A) (A) (A) (A) (A) (A) (A) (A) (A)
                 (A) (A) (A) (A) (A) (A) (A) (A) (A) (A) (A) (A)
                 (A) (A) (A) (A) (A) (A) (A) (A) (A) (A) (A) (A)
                 (A) (A)
       Virtual   (A) (A) (A) (A) (A) (A) (A) (A) (A) (A) (A) (A)
                 (A) (A) (A) (A) (A) (A) (A) (A) (A) (A) (A) (A)
                 (A) (A) (A) (A) (A) (A) (A) (A) (A) (A) (A) (A)
                 (A) (A) (A) (A) (A) (A) (A) (A) (A) (A) (A) (A)
                 (A) (A) (A) (A) (A) (A) (A) (A) (A) (A) (A) (A)
                 (A) (A) (A) (A) (A) (A) (A) (A) (A) (A) (A) (A)
                 (A) (A) (A) (A) (A) (A) (A) (A) (A) (A) (A) (A)
                 (A) (A) (A) (A) (A) (A) (A) (A) (A) (A) (A) (A)
                 (A) (A) (A) (A) (A) (A) (A) (A) (A) (A) (A) (A)
                 (A) (A) (A) (A) (A) (A) (A) (A) (A) (A) (A) (A)
                 (A) (A) (A) (A) (A) (A) (A) (A) (A) (A) (A) (A)
                 (A) (A) (A) (A) (A) (A) (A) (A) (A) (A) (A) (A)
                 (A) (A) (A) (A) (A) (A) (A) (A) (A) (A) (A) (A)
                 (A) (A) (A) (A) (A) (A) (A) (A) (A) (A) (A) (A)
                 (A) (A) (A) (A) (A) (A) (A) (A) (A) (A) (A) (A)
 The electronic state is 1-A.
 Alpha  occ. eigenvalues --  -19.65747 -19.65747 -14.83061 -10.69187 -10.69186
 Alpha  occ. eigenvalues --  -10.59018 -10.58967 -10.58911 -10.58892 -10.58621
 Alpha  occ. eigenvalues --  -10.58542  -1.21148  -1.18942  -1.09646  -0.99769
 Alpha  occ. eigenvalues --   -0.89834  -0.88499  -0.78286  -0.76849  -0.71258
 Alpha  occ. eigenvalues --   -0.68160  -0.61820  -0.60581  -0.57777  -0.57168
 Alpha  occ. eigenvalues --   -0.53868  -0.53685  -0.52794  -0.52218  -0.48522
 Alpha  occ. eigenvalues --   -0.46139  -0.45933  -0.44540  -0.37504  -0.37065
 Alpha  occ. eigenvalues --   -0.35645  -0.34012  -0.33694
 Alpha virt. eigenvalues --   -0.06237  -0.02072   0.00892   0.01671   0.02589
 Alpha virt. eigenvalues --    0.03857   0.04044   0.04752   0.05010   0.05168
 Alpha virt. eigenvalues --    0.07461   0.07593   0.07782   0.08081   0.10099
 Alpha virt. eigenvalues --    0.10537   0.10852   0.11955   0.12005   0.12628
 Alpha virt. eigenvalues --    0.13858   0.14358   0.15632   0.16290   0.16669
 Alpha virt. eigenvalues --    0.17999   0.18747   0.19448   0.19677   0.19783
 Alpha virt. eigenvalues --    0.19999   0.20921   0.21332   0.22376   0.22749
 Alpha virt. eigenvalues --    0.23228   0.23610   0.23632   0.25222   0.26683
 Alpha virt. eigenvalues --    0.27624   0.28714   0.29168   0.29401   0.29711
 Alpha virt. eigenvalues --    0.30304   0.31360   0.33086   0.33219   0.33561
 Alpha virt. eigenvalues --    0.34142   0.34848   0.36313   0.36589   0.38253
 Alpha virt. eigenvalues --    0.40155   0.40263   0.43431   0.44493   0.47549
 Alpha virt. eigenvalues --    0.51173   0.54799   0.54939   0.65286   0.67489
 Alpha virt. eigenvalues --    0.68716   0.72336   0.72351   0.74648   0.75505
 Alpha virt. eigenvalues --    0.76047   0.76417   0.76586   0.78838   0.80296
 Alpha virt. eigenvalues --    0.81006   0.83075   0.83934   0.86836   0.87302
 Alpha virt. eigenvalues --    0.89962   0.93124   0.96831   0.96977   0.98149
 Alpha virt. eigenvalues --    1.00766   1.04369   1.05996   1.07534   1.09081
 Alpha virt. eigenvalues --    1.10314   1.13662   1.14178   1.16615   1.17356
 Alpha virt. eigenvalues --    1.21822   1.26117   1.26958   1.28570   1.28604
 Alpha virt. eigenvalues --    1.28899   1.31551   1.34481   1.34524   1.37560
 Alpha virt. eigenvalues --    1.38724   1.38871   1.39372   1.39578   1.42029
 Alpha virt. eigenvalues --    1.44161   1.45258   1.47542   1.48855   1.50841
 Alpha virt. eigenvalues --    1.51520   1.51875   1.55106   1.56044   1.73144
 Alpha virt. eigenvalues --    1.78434   1.79057   1.79281   1.84368   1.86402
 Alpha virt. eigenvalues --    1.86740   1.87777   1.89538   1.95715   1.98140
 Alpha virt. eigenvalues --    1.98473   2.00164   2.03876   2.05483   2.07960
 Alpha virt. eigenvalues --    2.11643   2.12536   2.14992   2.16923   2.22167
 Alpha virt. eigenvalues --    2.22538   2.26029   2.26554   2.27024   2.30590
 Alpha virt. eigenvalues --    2.30781   2.32732   2.44350   2.45109   2.53755
 Alpha virt. eigenvalues --    2.54870   2.57403   2.64812   2.66446   2.67413
 Alpha virt. eigenvalues --    2.73394   2.73836   2.74529   2.75909   2.84954
 Alpha virt. eigenvalues --    2.85671   2.92752   3.06944   3.08732   3.10436
 Alpha virt. eigenvalues --    3.26993   3.30575   3.33448   3.46305   4.11702
 Alpha virt. eigenvalues --    4.23853   4.29684   4.31449   4.32089   4.41866
 Alpha virt. eigenvalues --    4.48022   4.54241   4.76611   4.80316   5.03279
          Condensed to atoms (all electrons):
               1          2          3          4          5          6
     1  C    5.570997   0.514871  -0.282922   0.028346  -0.460946   0.308898
     2  C    0.514871   5.571310   0.309305  -0.461684   0.027861  -0.282368
     3  C   -0.282922   0.309305   9.142427  -2.920420  -0.751524   1.694984
     4  C    0.028346  -0.461684  -2.920420  10.811340  -0.510827  -0.753946
     5  C   -0.460946   0.027861  -0.751524  -0.510827  10.808630  -2.919932
     6  C    0.308898  -0.282368   1.694984  -0.753946  -2.919932   9.145112
     7  C    0.095147   0.008141  -0.466878   0.137221  -0.717330   0.061481
     8  O    0.025890  -0.005798   0.048588  -0.000975  -0.097106  -0.045891
     9  N    0.021349   0.021329  -0.354014   0.068085   0.067384  -0.354212
    10  C    0.008207   0.095285   0.063097  -0.718752   0.136061  -0.465774
    11  O   -0.005802   0.025901  -0.045962  -0.097233  -0.000871   0.048615
    12  H    0.293537   0.008126  -0.003536   0.006605   0.023142  -0.018164
    13  H    0.008127   0.293528  -0.018166   0.023152   0.006613  -0.003544
    14  H   -0.005123  -0.036708   0.294303   0.033995   0.040638  -0.013846
    15  H   -0.036728  -0.005119  -0.013846   0.040658   0.033973   0.294326
    16  H    0.000136   0.000136   0.007817   0.041074   0.041112   0.007821
               7          8          9         10         11         12
     1  C    0.095147   0.025890   0.021349   0.008207  -0.005802   0.293537
     2  C    0.008141  -0.005798   0.021329   0.095285   0.025901   0.008126
     3  C   -0.466878   0.048588  -0.354014   0.063097  -0.045962  -0.003536
     4  C    0.137221  -0.000975   0.068085  -0.718752  -0.097233   0.006605
     5  C   -0.717330  -0.097106   0.067384   0.136061  -0.000871   0.023142
     6  C    0.061481  -0.045891  -0.354212  -0.465774   0.048615  -0.018164
     7  C    6.147060   0.273149   0.122907  -0.303470   0.081174   0.001067
     8  O    0.273149   8.345349  -0.130184   0.081198   0.002297   0.000007
     9  N    0.122907  -0.130184   7.919903   0.122670  -0.130219   0.000201
    10  C   -0.303470   0.081198   0.122670   6.147093   0.273223   0.000492
    11  O    0.081174   0.002297  -0.130219   0.273223   8.345379  -0.000001
    12  H    0.001067   0.000007   0.000201   0.000492  -0.000001   0.473530
    13  H    0.000492  -0.000002   0.000201   0.001067   0.000007  -0.003248
    14  H    0.010626   0.000016   0.000142  -0.024206   0.003646  -0.000105
    15  H   -0.024192   0.003644   0.000143   0.010618   0.000016  -0.002616
    16  H   -0.052337   0.002770   0.257309  -0.052336   0.002770   0.000000
              13         14         15         16
     1  C    0.008127  -0.005123  -0.036728   0.000136
     2  C    0.293528  -0.036708  -0.005119   0.000136
     3  C   -0.018166   0.294303  -0.013846   0.007817
     4  C    0.023152   0.033995   0.040658   0.041074
     5  C    0.006613   0.040638   0.033973   0.041112
     6  C   -0.003544  -0.013846   0.294326   0.007821
     7  C    0.000492   0.010626  -0.024192  -0.052337
     8  O   -0.000002   0.000016   0.003644   0.002770
     9  N    0.000201   0.000142   0.000143   0.257309
    10  C    0.001067  -0.024206   0.010618  -0.052336
    11  O    0.000007   0.003646   0.000016   0.002770
    12  H   -0.003248  -0.000105  -0.002616   0.000000
    13  H    0.473532  -0.002617  -0.000105   0.000000
    14  H   -0.002617   0.448749   0.000013  -0.000001
    15  H   -0.000105   0.000013   0.448745  -0.000001
    16  H    0.000000  -0.000001  -0.000001   0.270564
 Mulliken charges:
               1
     1  C   -0.083983
     2  C   -0.084116
     3  C   -0.703252
     4  C    0.273360
     5  C    0.273122
     6  C   -0.703562
     7  C    0.625742
     8  O   -0.502952
     9  N   -0.632993
    10  C    0.625529
    11  O   -0.502939
    12  H    0.220965
    13  H    0.220964
    14  H    0.250478
    15  H    0.250471
    16  H    0.473167
 Sum of Mulliken charges =   0.00000
 Mulliken charges with hydrogens summed into heavy atoms:
               1
     1  C    0.136982
     2  C    0.136847
     3  C   -0.452774
     4  C    0.273360
     5  C    0.273122
     6  C   -0.453091
     7  C    0.625742
     8  O   -0.502952
     9  N   -0.159827
    10  C    0.625529
    11  O   -0.502939
 Electronic spatial extent (au):  <R**2>=           1476.4487
 Charge=              0.0000 electrons
 Dipole moment (field-independent basis, Debye):
    X=             -2.6597    Y=             -0.0003    Z=             -0.0035  Tot=              2.6597
 Quadrupole moment (field-independent basis, Debye-Ang):
   XX=            -52.1323   YY=            -73.3622   ZZ=            -64.0749
   XY=             -0.0004   XZ=             -0.0130   YZ=             -0.0034
 Traceless Quadrupole moment (field-independent basis, Debye-Ang):
   XX=             11.0575   YY=            -10.1724   ZZ=             -0.8851
   XY=             -0.0004   XZ=             -0.0130   YZ=             -0.0034
 Octapole moment (field-independent basis, Debye-Ang**2):
  XXX=              8.9081  YYY=             -0.0035  ZZZ=              0.0087  XYY=            -37.0002
  XXY=              0.0005  XXZ=              0.0024  XZZ=             10.9884  YZZ=             -0.0005
  YYZ=             -0.0183  XYZ=             -0.0027
 Hexadecapole moment (field-independent basis, Debye-Ang**3):
 XXXX=           -929.8483 YYYY=           -834.5062 ZZZZ=            -68.3566 XXXY=             -0.0009
 XXXZ=             -0.0949 YYYX=             -0.0067 YYYZ=             -0.0205 ZZZX=              0.0059
 ZZZY=              0.0072 XXYY=           -343.5651 XXZZ=           -211.0181 YYZZ=           -141.0276
 XXYZ=             -0.0081 YYXZ=             -0.0403 ZZXY=             -0.0006
 N-N= 5.597577504463D+02 E-N=-2.313738835475D+03  KE= 5.088257610498D+02
 Calling FoFJK, ICntrl=      2127 FMM=F ISym2X=0 I1Cent= 0 IOpClX= 0 NMat=1 NMatS=1 NMatT=0.
 ***** Axes restored to original set *****
 -------------------------------------------------------------------
 Center     Atomic                   Forces (Hartrees/Bohr)
 Number     Number              X              Y              Z
 -------------------------------------------------------------------
      1        6           0.001962893    0.000470610    0.008849765
      2        6          -0.001951564    0.000517633   -0.008908071
      3        6           0.000287840    0.007204028    0.001439611
      4        6          -0.002016961    0.015796424   -0.009064469
      5        6           0.001899145    0.015963495    0.008969023
      6        6          -0.000287201    0.007097577   -0.001253875
      7        6          -0.007500130    0.005105681   -0.035375898
      8        8           0.002867443   -0.010202342    0.013627320
      9        7          -0.000026106   -0.032651327    0.000018196
     10        6           0.007726080    0.005218629    0.035248355
     11        8          -0.002967419   -0.010247354   -0.013495476
     12        1           0.000106006   -0.000620087    0.000617951
     13        1          -0.000123964   -0.000627623   -0.000602188
     14        1           0.000299739   -0.001974511    0.001330407
     15        1          -0.000292269   -0.001967593   -0.001394375
     16        1           0.000016468    0.000916760   -0.000006276
 -------------------------------------------------------------------
 Cartesian Forces:  Max     0.035375898 RMS     0.010491874

 GradGradGradGradGradGradGradGradGradGradGradGradGradGradGradGradGradGrad
 Berny optimization.
 FormGI is forming the generalized inverse of G from B-inverse, IUseBI=4.
 Internal  Forces:  Max     0.023812779 RMS     0.006075159
 Search for a local minimum.
 Step number   1 out of a maximum of   94
 All quantities printed in internal units (Hartrees-Bohrs-Radians)
 Mixed Optimization -- RFO/linear search
 Second derivative matrix not updated -- first step.
 ITU=  0
     Eigenvalues ---    0.01585   0.01637   0.01725   0.01905   0.01999
     Eigenvalues ---    0.02010   0.02023   0.02023   0.02063   0.02092
     Eigenvalues ---    0.02241   0.02249   0.02265   0.16000   0.16000
     Eigenvalues ---    0.16000   0.16000   0.16000   0.22000   0.22610
     Eigenvalues ---    0.23730   0.24536   0.25000   0.25000   0.25000
     Eigenvalues ---    0.34501   0.35169   0.35169   0.35547   0.35559
     Eigenvalues ---    0.36095   0.39676   0.42864   0.43732   0.45342
     Eigenvalues ---    0.45615   0.48078   0.48316   0.48827   0.49017
     Eigenvalues ---    0.97116   0.97141
 RFO step:  Lambda=-8.72746353D-03 EMin= 1.58511687D-02
 Linear search not attempted -- first point.
 Iteration  1 RMS(Cart)=  0.02963711 RMS(Int)=  0.00063681
 Iteration  2 RMS(Cart)=  0.00063934 RMS(Int)=  0.00002489
 Iteration  3 RMS(Cart)=  0.00000011 RMS(Int)=  0.00002489
 Variable       Old X    -DE/DX   Delta X   Delta X   Delta X     New X
                                 (Linear)    (Quad)   (Total)
    R1        2.66491  -0.00787   0.00000  -0.01855  -0.01855   2.64636
    R2        2.64168   0.00081   0.00000   0.00123   0.00123   2.64292
    R3        2.05401  -0.00085   0.00000  -0.00235  -0.00235   2.05165
    R4        2.64156   0.00086   0.00000   0.00136   0.00135   2.64291
    R5        2.05401  -0.00085   0.00000  -0.00235  -0.00235   2.05165
    R6        2.60632   0.00485   0.00000   0.01016   0.01016   2.61648
    R7        2.04796   0.00136   0.00000   0.00374   0.00374   2.05170
    R8        2.62384   0.00433   0.00000   0.00844   0.00843   2.63227
    R9        2.76393   0.02380   0.00000   0.06289   0.06288   2.82682
   R10        2.60665   0.00470   0.00000   0.00985   0.00985   2.61650
   R11        2.76388   0.02381   0.00000   0.06290   0.06290   2.82678
   R12        2.04778   0.00143   0.00000   0.00391   0.00391   2.05169
   R13        2.29816  -0.01033   0.00000  -0.01055  -0.01055   2.28762
   R14        2.59838   0.01677   0.00000   0.03408   0.03409   2.63247
   R15        2.59833   0.01680   0.00000   0.03414   0.03415   2.63248
   R16        1.91581  -0.00092   0.00000  -0.00198  -0.00198   1.91382
   R17        2.29806  -0.01025   0.00000  -0.01046  -0.01046   2.28760
    A1        2.11131   0.00180   0.00000   0.00423   0.00423   2.11554
    A2        2.08352  -0.00115   0.00000  -0.00358  -0.00358   2.07994
    A3        2.08836  -0.00065   0.00000  -0.00065  -0.00065   2.08771
    A4        2.11133   0.00178   0.00000   0.00419   0.00418   2.11551
    A5        2.08339  -0.00113   0.00000  -0.00349  -0.00348   2.07991
    A6        2.08846  -0.00066   0.00000  -0.00070  -0.00070   2.08776
    A7        2.04323   0.00006   0.00000  -0.00038  -0.00038   2.04284
    A8        2.11082   0.00200   0.00000   0.01219   0.01219   2.12301
    A9        2.12913  -0.00205   0.00000  -0.01181  -0.01180   2.11733
   A10        2.12872  -0.00188   0.00000  -0.00390  -0.00389   2.12483
   A11        2.26973   0.00092   0.00000   0.00393   0.00394   2.27367
   A12        1.88474   0.00096   0.00000  -0.00004  -0.00005   1.88469
   A13        2.12867  -0.00186   0.00000  -0.00387  -0.00386   2.12481
   A14        1.88477   0.00096   0.00000  -0.00004  -0.00006   1.88471
   A15        2.26975   0.00090   0.00000   0.00391   0.00392   2.27367
   A16        2.04312   0.00010   0.00000  -0.00028  -0.00028   2.04284
   A17        2.11099   0.00196   0.00000   0.01207   0.01207   2.12306
   A18        2.12908  -0.00206   0.00000  -0.01179  -0.01179   2.11729
   A19        2.18036   0.01569   0.00000   0.05969   0.05969   2.24005
   A20        1.84239   0.00040   0.00000   0.00345   0.00345   1.84584
   A21        2.26044  -0.01609   0.00000  -0.06314  -0.06314   2.19730
   A22        1.97049  -0.00271   0.00000  -0.00680  -0.00678   1.96370
   A23        2.15637   0.00135   0.00000   0.00339   0.00338   2.15975
   A24        2.15633   0.00136   0.00000   0.00341   0.00340   2.15973
   A25        1.84239   0.00039   0.00000   0.00344   0.00344   1.84583
   A26        2.18041   0.01568   0.00000   0.05965   0.05964   2.24005
   A27        2.26038  -0.01607   0.00000  -0.06308  -0.06308   2.19730
    D1       -0.00033   0.00001   0.00000   0.00032   0.00032  -0.00001
    D2        3.14145   0.00000   0.00000   0.00011   0.00012   3.14157
    D3       -3.14115  -0.00001   0.00000  -0.00032  -0.00033  -3.14147
    D4        0.00064  -0.00002   0.00000  -0.00053  -0.00053   0.00010
    D5        0.00023   0.00000   0.00000  -0.00020  -0.00020   0.00002
    D6       -3.14132  -0.00001   0.00000  -0.00031  -0.00032   3.14154
    D7        3.14104   0.00001   0.00000   0.00045   0.00045   3.14149
    D8       -0.00051   0.00001   0.00000   0.00033   0.00033  -0.00018
    D9        0.00023  -0.00001   0.00000  -0.00022  -0.00021   0.00002
   D10       -3.14130  -0.00001   0.00000  -0.00030  -0.00029   3.14159
   D11       -3.14156   0.00000   0.00000  -0.00001  -0.00001  -3.14156
   D12        0.00010   0.00000   0.00000  -0.00009  -0.00009   0.00001
   D13       -0.00004   0.00000   0.00000   0.00001   0.00000  -0.00003
   D14        3.14105   0.00000   0.00000   0.00011   0.00013   3.14117
   D15        3.14149   0.00000   0.00000   0.00009   0.00008   3.14157
   D16       -0.00061   0.00000   0.00000   0.00019   0.00021  -0.00040
   D17       -0.00006   0.00000   0.00000   0.00011   0.00011   0.00005
   D18        3.14071   0.00001   0.00000   0.00052   0.00053   3.14124
   D19       -3.14124   0.00000   0.00000   0.00003   0.00001  -3.14123
   D20       -0.00048   0.00001   0.00000   0.00043   0.00043  -0.00004
   D21       -3.14079  -0.00002   0.00000  -0.00091  -0.00093   3.14147
   D22       -0.00046   0.00002   0.00000   0.00110   0.00116   0.00071
   D23        0.00035  -0.00002   0.00000  -0.00082  -0.00082  -0.00047
   D24        3.14068   0.00002   0.00000   0.00119   0.00127  -3.14123
   D25       -0.00004   0.00000   0.00000  -0.00001  -0.00001  -0.00004
   D26        3.14151   0.00000   0.00000   0.00010   0.00011  -3.14156
   D27       -3.14060  -0.00001   0.00000  -0.00052  -0.00053  -3.14113
   D28        0.00095  -0.00001   0.00000  -0.00040  -0.00042   0.00053
   D29       -3.14005  -0.00002   0.00000  -0.00145  -0.00152  -3.14157
   D30        0.00043   0.00000   0.00000   0.00012   0.00011   0.00054
   D31        0.00063  -0.00002   0.00000  -0.00100  -0.00105  -0.00042
   D32        3.14111   0.00001   0.00000   0.00057   0.00058  -3.14150
   D33       -0.00021  -0.00002   0.00000  -0.00068  -0.00066  -0.00088
   D34        3.14121  -0.00002   0.00000  -0.00062  -0.00057   3.14064
   D35        3.14019   0.00004   0.00000   0.00110   0.00102   3.14121
   D36       -0.00156   0.00004   0.00000   0.00116   0.00111  -0.00045
   D37       -0.00007   0.00003   0.00000   0.00094   0.00092   0.00085
   D38       -3.14033  -0.00005   0.00000  -0.00132  -0.00122  -3.14154
   D39       -3.14150   0.00003   0.00000   0.00088   0.00083  -3.14067
   D40        0.00143  -0.00004   0.00000  -0.00137  -0.00131   0.00012
         Item               Value     Threshold  Converged?
 Maximum Force            0.023813     0.000450     NO 
 RMS     Force            0.006075     0.000300     NO 
 Maximum Displacement     0.148807     0.001800     NO 
 RMS     Displacement     0.029501     0.001200     NO 
 Predicted change in Energy=-4.481481D-03
 GradGradGradGradGradGradGradGradGradGradGradGradGradGradGradGradGradGrad

                          Input orientation:                          
 ---------------------------------------------------------------------
 Center     Atomic      Atomic             Coordinates (Angstroms)
 Number     Number       Type             X           Y           Z
 ---------------------------------------------------------------------
      1          6           0       -0.407608   -0.924728   -1.894047
      2          6           0       -0.113135   -0.923147   -0.524967
      3          6           0        0.040753   -2.118487    0.184592
      4          6           0       -0.110934   -3.296771   -0.526538
      5          6           0       -0.403862   -3.298347   -1.888323
      6          6           0       -0.558495   -2.121688   -2.601521
      7          6           0       -0.498689   -4.721634   -2.338745
      8          8           0       -0.736653   -5.144074   -3.447961
      9          7           0       -0.254549   -5.494152   -1.205527
     10          6           0       -0.011555   -4.719043   -0.073829
     11          8           0        0.227442   -5.138945    1.036121
     12          1           0       -0.519963    0.022656   -2.412272
     13          1           0       -0.003034    0.025447   -0.008474
     14          1           0        0.269061   -2.125404    1.246005
     15          1           0       -0.786825   -2.131080   -3.662906
     16          1           0       -0.253854   -6.506903   -1.204509
 ---------------------------------------------------------------------
                    Distance matrix (angstroms):
                    1          2          3          4          5
     1  C    0.000000
     2  C    1.400392   0.000000
     3  C    2.438612   1.398568   0.000000
     4  C    2.754031   2.373626   1.384582   0.000000
     5  C    2.373629   2.754058   2.426258   1.392935   0.000000
     6  C    1.398571   2.438632   2.849831   2.426250   1.384590
     7  C    3.823944   4.226931   3.665324   2.337666   1.495867
     8  O    4.508414   5.171933   4.791031   3.512658   2.439248
     9  N    4.623540   4.623553   3.662615   2.304373   2.304358
    10  C    4.226923   3.823960   2.613888   1.495887   2.337663
    11  O    5.171924   4.508430   3.143744   2.439263   3.512651
    12  H    1.085688   2.149878   3.412126   3.839518   3.364085
    13  H    2.149860   1.085688   2.153055   3.364100   3.839545
    14  H    3.429203   2.174359   1.085712   2.158334   3.413595
    15  H    2.174386   3.429231   3.935516   3.413572   2.158314
    16  H    5.626702   5.626714   4.612439   3.284055   3.284042
                    6          7          8          9         10
     6  C    0.000000
     7  C    2.613876   0.000000
     8  O    3.143727   1.210555   0.000000
     9  N    3.662608   1.393044   2.320235   0.000000
    10  C    3.665327   2.316711   3.477238   1.393047   0.000000
    11  O    4.791031   3.477231   4.586556   2.320231   1.210548
    12  H    2.153024   4.744908   5.273965   5.653482   5.311357
    13  H    3.412129   5.311367   6.252377   5.653510   4.744948
    14  H    3.935521   4.492247   5.670727   4.199124   2.923640
    15  H    1.085708   2.923592   3.021068   4.199081   4.492223
    16  H    4.612435   2.129230   2.668983   1.012752   2.129223
                   11         12         13         14         15
    11  O    0.000000
    12  H    6.252373   0.000000
    13  H    5.274016   2.458754   0.000000
    14  H    3.021129   4.315057   2.504778   0.000000
    15  H    5.670701   2.504772   4.315069   5.021189   0.000000
    16  H    2.668965   6.645649   6.645676   5.047375   5.047335
                   16
    16  H    0.000000
 Stoichiometry    C8H5NO2
 Framework group  C1[X(C8H5NO2)]
 Deg. of freedom    42
 Full point group                 C1      NOp   1
 Largest Abelian subgroup         C1      NOp   1
 Largest concise Abelian subgroup C1      NOp   1
                         Standard orientation:                         
 ---------------------------------------------------------------------
 Center     Atomic      Atomic             Coordinates (Angstroms)
 Number     Number       Type             X           Y           Z
 ---------------------------------------------------------------------
      1          6           0       -2.552132    0.700196    0.000004
      2          6           0       -2.552146   -0.700196    0.000068
      3          6           0       -1.355994   -1.424912   -0.000007
      4          6           0       -0.178523   -0.696467   -0.000128
      5          6           0       -0.178506    0.696467   -0.000216
      6          6           0       -1.355981    1.424919   -0.000125
      7          6           0        1.244267    1.158351    0.000165
      8          8           0        1.665438    2.293277    0.000239
      9          7           0        2.018081   -0.000003   -0.000265
     10          6           0        1.244267   -1.158360    0.000248
     11          8           0        1.665439   -2.293279    0.000080
     12          1           0       -3.500109    1.229401    0.000178
     13          1           0       -3.500150   -1.229353    0.000194
     14          1           0       -1.347863   -2.510593    0.000044
     15          1           0       -1.347803    2.510596   -0.000222
     16          1           0        3.030832   -0.000011   -0.000943
 ---------------------------------------------------------------------
 Rotational constants (GHZ):      1.7527800      1.1991479      0.7120237
 Standard basis: 6-31+G(d) (6D, 7F)
 There are   219 symmetry adapted cartesian basis functions of A   symmetry.
 There are   219 symmetry adapted basis functions of A   symmetry.
   219 basis functions,   372 primitive gaussians,   219 cartesian basis functions
    38 alpha electrons       38 beta electrons
       nuclear repulsion energy       555.7235331202 Hartrees.
 NAtoms=   16 NActive=   16 NUniq=   16 SFac= 1.00D+00 NAtFMM=   60 NAOKFM=F Big=F
 Integral buffers will be    131072 words long.
 Raffenetti 2 integral format.
 Two-electron integral symmetry is turned on.
 One-electron integrals computed using PRISM.
 NBasis=   219 RedAO= T EigKep=  2.68D-06  NBF=   219
 NBsUse=   218 1.00D-06 EigRej=  8.70D-07 NBFU=   218
 Initial guess from the checkpoint file:  "/srv/scratch/z5358697/gauss/Gau-794786.chk"
 B after Tr=     0.000000    0.000000    0.000000
         Rot=    1.000000    0.000000   -0.000003    0.000014 Ang=   0.00 deg.
 ExpMin= 4.38D-02 ExpMax= 5.48D+03 ExpMxC= 8.25D+02 IAcc=2 IRadAn=         4 AccDes= 0.00D+00
 Harris functional with IExCor= 1009 and IRadAn=       4 diagonalized for initial guess.
 HarFok:  IExCor= 1009 AccDes= 0.00D+00 IRadAn=         4 IDoV= 1 UseB2=F ITyADJ=14
 ICtDFT=  3500011 ScaDFX=  1.000000  1.000000  1.000000  1.000000
 FoFCou: FMM=F IPFlag=           0 FMFlag=      100000 FMFlg1=           0
         NFxFlg=           0 DoJE=T BraDBF=F KetDBF=T FulRan=T
         wScrn=  0.000000 ICntrl=     500 IOpCl=  0 I1Cent=   200000004 NGrid=           0
         NMat0=    1 NMatS0=      1 NMatT0=    0 NMatD0=    1 NMtDS0=    0 NMtDT0=    0
 Petite list used in FoFCou.
 Requested convergence on RMS density matrix=1.00D-08 within 128 cycles.
 Requested convergence on MAX density matrix=1.00D-06.
 Requested convergence on             energy=1.00D-06.
 No special actions if energy rises.
 SCF Done:  E(RM062X) =  -512.904984079     A.U. after   13 cycles
            NFock= 13  Conv=0.47D-08     -V/T= 2.0084
 Calling FoFJK, ICntrl=      2127 FMM=F ISym2X=0 I1Cent= 0 IOpClX= 0 NMat=1 NMatS=1 NMatT=0.
 ***** Axes restored to original set *****
 -------------------------------------------------------------------
 Center     Atomic                   Forces (Hartrees/Bohr)
 Number     Number              X              Y              Z
 -------------------------------------------------------------------
      1        6           0.000296315   -0.000280091    0.001357371
      2        6          -0.000300747   -0.000283481   -0.001368601
      3        6           0.000021199    0.000512444    0.000111477
      4        6          -0.000592418   -0.000616436   -0.002996356
      5        6           0.000692405   -0.000588418    0.002977725
      6        6          -0.000032549    0.000501069   -0.000098811
      7        6          -0.002772801   -0.002022619   -0.012483288
      8        8           0.001219546    0.001472233    0.005602441
      9        7           0.000049371    0.002300077   -0.000011552
     10        6           0.002562075   -0.001982603    0.012522768
     11        8          -0.001170599    0.001456632   -0.005607895
     12        1          -0.000050043    0.000002519   -0.000206708
     13        1           0.000045556    0.000000162    0.000211631
     14        1          -0.000006473   -0.000602068   -0.000051626
     15        1           0.000018000   -0.000596605    0.000047589
     16        1           0.000021163    0.000727183   -0.000006165
 -------------------------------------------------------------------
 Cartesian Forces:  Max     0.012522768 RMS     0.003012263

 GradGradGradGradGradGradGradGradGradGradGradGradGradGradGradGradGradGrad
 Berny optimization.
 Using GEDIIS/GDIIS optimizer.
 FormGI is forming the generalized inverse of G from B-inverse, IUseBI=4.
 Internal  Forces:  Max     0.005886934 RMS     0.001326938
 Search for a local minimum.
 Step number   2 out of a maximum of   94
 All quantities printed in internal units (Hartrees-Bohrs-Radians)
 Mixed Optimization -- RFO/linear search
 Update second derivatives using D2CorX and points    1    2
 DE= -4.52D-03 DEPred=-4.48D-03 R= 1.01D+00
 TightC=F SS=  1.41D+00  RLast= 1.64D-01 DXNew= 5.0454D-01 4.9309D-01
 Trust test= 1.01D+00 RLast= 1.64D-01 DXMaxT set to 4.93D-01
 ITU=  1  0
 Use linear search instead of GDIIS.
     Eigenvalues ---    0.01555   0.01608   0.01719   0.01900   0.01999
     Eigenvalues ---    0.02009   0.02023   0.02023   0.02063   0.02091
     Eigenvalues ---    0.02239   0.02247   0.02264   0.15863   0.16000
     Eigenvalues ---    0.16000   0.16000   0.16005   0.21599   0.22000
     Eigenvalues ---    0.22616   0.24532   0.25000   0.25000   0.27066
     Eigenvalues ---    0.34532   0.35169   0.35171   0.35548   0.35560
     Eigenvalues ---    0.38131   0.39636   0.42867   0.42918   0.45343
     Eigenvalues ---    0.45587   0.47629   0.48071   0.48830   0.48999
     Eigenvalues ---    0.95577   0.97129
 RFO step:  Lambda=-3.85206735D-04 EMin= 1.55487126D-02
 Quartic linear search produced a step of  0.05469.
 Iteration  1 RMS(Cart)=  0.00435880 RMS(Int)=  0.00002056
 Iteration  2 RMS(Cart)=  0.00002716 RMS(Int)=  0.00000443
 Iteration  3 RMS(Cart)=  0.00000000 RMS(Int)=  0.00000443
 Variable       Old X    -DE/DX   Delta X   Delta X   Delta X     New X
                                 (Linear)    (Quad)   (Total)
    R1        2.64636  -0.00110  -0.00101  -0.00243  -0.00344   2.64291
    R2        2.64292  -0.00020   0.00007  -0.00046  -0.00039   2.64253
    R3        2.05165   0.00011  -0.00013   0.00034   0.00021   2.05186
    R4        2.64291  -0.00020   0.00007  -0.00045  -0.00037   2.64254
    R5        2.05165   0.00011  -0.00013   0.00034   0.00021   2.05186
    R6        2.61648  -0.00033   0.00056  -0.00081  -0.00026   2.61622
    R7        2.05170  -0.00005   0.00020  -0.00018   0.00003   2.05173
    R8        2.63227  -0.00008   0.00046  -0.00054  -0.00009   2.63217
    R9        2.82682  -0.00001   0.00344  -0.00071   0.00272   2.82954
   R10        2.61650  -0.00033   0.00054  -0.00082  -0.00028   2.61622
   R11        2.82678   0.00000   0.00344  -0.00069   0.00275   2.82953
   R12        2.05169  -0.00005   0.00021  -0.00017   0.00004   2.05173
   R13        2.28762  -0.00589  -0.00058  -0.00629  -0.00686   2.28075
   R14        2.63247   0.00253   0.00186   0.00521   0.00708   2.63955
   R15        2.63248   0.00253   0.00187   0.00520   0.00708   2.63956
   R16        1.91382  -0.00073  -0.00011  -0.00167  -0.00178   1.91204
   R17        2.28760  -0.00588  -0.00057  -0.00628  -0.00685   2.28076
    A1        2.11554   0.00001   0.00023  -0.00014   0.00009   2.11563
    A2        2.07994   0.00018  -0.00020   0.00132   0.00113   2.08107
    A3        2.08771  -0.00019  -0.00004  -0.00119  -0.00122   2.08649
    A4        2.11551   0.00002   0.00023  -0.00011   0.00011   2.11563
    A5        2.07991   0.00019  -0.00019   0.00134   0.00115   2.08106
    A6        2.08776  -0.00020  -0.00004  -0.00123  -0.00127   2.08650
    A7        2.04284   0.00017  -0.00002   0.00059   0.00056   2.04341
    A8        2.12301   0.00053   0.00067   0.00367   0.00434   2.12735
    A9        2.11733  -0.00070  -0.00065  -0.00426  -0.00490   2.11243
   A10        2.12483  -0.00019  -0.00021  -0.00047  -0.00068   2.12415
   A11        2.27367  -0.00151   0.00022  -0.00573  -0.00550   2.26816
   A12        1.88469   0.00170   0.00000   0.00620   0.00619   1.89088
   A13        2.12481  -0.00018  -0.00021  -0.00045  -0.00066   2.12415
   A14        1.88471   0.00169   0.00000   0.00618   0.00617   1.89088
   A15        2.27367  -0.00151   0.00021  -0.00573  -0.00550   2.26816
   A16        2.04284   0.00017  -0.00002   0.00059   0.00058   2.04341
   A17        2.12306   0.00053   0.00066   0.00363   0.00429   2.12735
   A18        2.11729  -0.00070  -0.00065  -0.00422  -0.00487   2.11242
   A19        2.24005   0.00238   0.00326   0.00957   0.01284   2.25288
   A20        1.84584  -0.00334   0.00019  -0.01427  -0.01408   1.83176
   A21        2.19730   0.00096  -0.00345   0.00470   0.00125   2.19855
   A22        1.96370   0.00329  -0.00037   0.01617   0.01581   1.97951
   A23        2.15975  -0.00165   0.00019  -0.00809  -0.00791   2.15184
   A24        2.15973  -0.00165   0.00019  -0.00808  -0.00790   2.15183
   A25        1.84583  -0.00334   0.00019  -0.01427  -0.01408   1.83175
   A26        2.24005   0.00238   0.00326   0.00957   0.01283   2.25288
   A27        2.19730   0.00096  -0.00345   0.00470   0.00125   2.19855
    D1       -0.00001   0.00000   0.00002   0.00001   0.00003   0.00002
    D2        3.14157   0.00000   0.00001  -0.00001   0.00000   3.14156
    D3       -3.14147   0.00000  -0.00002  -0.00008  -0.00009  -3.14157
    D4        0.00010   0.00000  -0.00003  -0.00010  -0.00013  -0.00002
    D5        0.00002   0.00000  -0.00001   0.00007   0.00006   0.00009
    D6        3.14154   0.00000  -0.00002   0.00008   0.00006  -3.14158
    D7        3.14149   0.00000   0.00002   0.00016   0.00018  -3.14151
    D8       -0.00018   0.00000   0.00002   0.00016   0.00018   0.00000
    D9        0.00002   0.00000  -0.00001  -0.00012  -0.00014  -0.00012
   D10        3.14159   0.00000  -0.00002  -0.00001  -0.00002   3.14157
   D11       -3.14156   0.00000   0.00000  -0.00010  -0.00011   3.14152
   D12        0.00001   0.00000   0.00000   0.00001   0.00001   0.00002
   D13       -0.00003   0.00000   0.00000   0.00016   0.00016   0.00012
   D14        3.14117   0.00001   0.00001   0.00038   0.00039   3.14156
   D15        3.14157   0.00000   0.00000   0.00004   0.00005  -3.14156
   D16       -0.00040   0.00001   0.00001   0.00027   0.00028  -0.00013
   D17        0.00005   0.00000   0.00001  -0.00008  -0.00007  -0.00002
   D18        3.14124   0.00000   0.00003   0.00010   0.00013   3.14137
   D19       -3.14123  -0.00001   0.00000  -0.00026  -0.00025  -3.14149
   D20       -0.00004   0.00000   0.00002  -0.00008  -0.00005  -0.00009
   D21        3.14147   0.00002  -0.00005   0.00104   0.00098  -3.14074
   D22        0.00071  -0.00002   0.00006  -0.00154  -0.00148  -0.00078
   D23       -0.00047   0.00002  -0.00004   0.00124   0.00119   0.00072
   D24       -3.14123  -0.00002   0.00007  -0.00134  -0.00128   3.14068
   D25       -0.00004   0.00000   0.00000  -0.00004  -0.00004  -0.00009
   D26       -3.14156   0.00000   0.00001  -0.00004  -0.00004   3.14158
   D27       -3.14113  -0.00001  -0.00003  -0.00027  -0.00030  -3.14143
   D28        0.00053  -0.00001  -0.00002  -0.00028  -0.00029   0.00024
   D29       -3.14157   0.00001  -0.00008   0.00084   0.00076  -3.14081
   D30        0.00054  -0.00002   0.00001  -0.00112  -0.00110  -0.00056
   D31       -0.00042   0.00002  -0.00006   0.00104   0.00099   0.00056
   D32       -3.14150  -0.00001   0.00003  -0.00091  -0.00088   3.14081
   D33       -0.00088   0.00003  -0.00004   0.00199   0.00195   0.00108
   D34        3.14064   0.00003  -0.00003   0.00153   0.00150  -3.14105
   D35        3.14121   0.00000   0.00006   0.00009   0.00016   3.14138
   D36       -0.00045   0.00000   0.00006  -0.00036  -0.00030  -0.00075
   D37        0.00085  -0.00003   0.00005  -0.00203  -0.00198  -0.00113
   D38       -3.14154   0.00001  -0.00007   0.00047   0.00039  -3.14116
   D39       -3.14067  -0.00003   0.00005  -0.00158  -0.00153   3.14099
   D40        0.00012   0.00001  -0.00007   0.00092   0.00084   0.00096
         Item               Value     Threshold  Converged?
 Maximum Force            0.005887     0.000450     NO 
 RMS     Force            0.001327     0.000300     NO 
 Maximum Displacement     0.017679     0.001800     NO 
 RMS     Displacement     0.004365     0.001200     NO 
 Predicted change in Energy=-2.035077D-04
 GradGradGradGradGradGradGradGradGradGradGradGradGradGradGradGradGradGrad

                          Input orientation:                          
 ---------------------------------------------------------------------
 Center     Atomic      Atomic             Coordinates (Angstroms)
 Number     Number       Type             X           Y           Z
 ---------------------------------------------------------------------
      1          6           0       -0.407251   -0.924822   -1.893203
      2          6           0       -0.113191   -0.923248   -0.525898
      3          6           0        0.040546   -2.118337    0.183726
      4          6           0       -0.111248   -3.296997   -0.526494
      5          6           0       -0.404112   -3.298561   -1.888243
      6          6           0       -0.558300   -2.121539   -2.600650
      7          6           0       -0.501431   -4.720360   -2.347577
      8          8           0       -0.737504   -5.149056   -3.450824
      9          7           0       -0.254264   -5.485740   -1.205594
     10          6           0       -0.010585   -4.717745   -0.064615
     11          8           0        0.228055   -5.143912    1.039061
     12          1           0       -0.519805    0.022061   -2.412534
     13          1           0       -0.002716    0.024832   -0.008308
     14          1           0        0.268851   -2.129841    1.245114
     15          1           0       -0.786543   -2.135488   -3.662027
     16          1           0       -0.252401   -6.497548   -1.204833
 ---------------------------------------------------------------------
                    Distance matrix (angstroms):
                    1          2          3          4          5
     1  C    0.000000
     2  C    1.398570   0.000000
     3  C    2.436931   1.398370   0.000000
     4  C    2.753675   2.373750   1.384446   0.000000
     5  C    2.373746   2.753677   2.425634   1.392886   0.000000
     6  C    1.398366   2.436928   2.848047   2.425630   1.384442
     7  C    3.823798   4.229339   3.670389   2.344046   1.497321
     8  O    4.514355   5.177105   4.795890   3.517673   2.444819
     9  N    4.614995   4.615000   3.654657   2.296132   2.296130
    10  C    4.229343   3.823810   2.611744   1.497327   2.344049
    11  O    5.177113   4.514371   3.149739   2.444827   3.517678
    12  H    1.085800   2.149032   3.411138   3.839299   3.363748
    13  H    2.149028   1.085799   2.152191   3.363755   3.839299
    14  H    3.429026   2.176765   1.085726   2.155301   3.411263
    15  H    2.176766   3.429029   3.933724   3.411260   2.155296
    16  H    5.617215   5.617219   4.603411   3.274689   3.274688
                    6          7          8          9         10
     6  C    0.000000
     7  C    2.611733   0.000000
     8  O    3.149725   1.206923   0.000000
     9  N    3.654650   1.396790   2.321192   0.000000
    10  C    3.670389   2.335135   3.490107   1.396793   0.000000
    11  O    4.795892   3.490109   4.592536   2.321197   1.206924
    12  H    2.152183   4.742902   5.278816   5.644740   5.313925
    13  H    3.411131   5.313920   6.257791   5.644747   4.742918
    14  H    3.933719   4.495726   5.672763   4.188278   2.913884
    15  H    1.085731   2.913868   3.021358   4.188265   4.495724
    16  H    4.603404   2.127505   2.664250   1.011810   2.127503
                   11         12         13         14         15
    11  O    0.000000
    12  H    6.257801   0.000000
    13  H    5.278840   2.459205   0.000000
    14  H    3.021381   4.316370   2.507476   0.000000
    15  H    5.672764   2.507470   4.316368   5.019355   0.000000
    16  H    2.664250   6.635914   6.635922   5.034958   5.034945
                   16
    16  H    0.000000
 Stoichiometry    C8H5NO2
 Framework group  C1[X(C8H5NO2)]
 Deg. of freedom    42
 Full point group                 C1      NOp   1
 Largest Abelian subgroup         C1      NOp   1
 Largest concise Abelian subgroup C1      NOp   1
                         Standard orientation:                         
 ---------------------------------------------------------------------
 Center     Atomic      Atomic             Coordinates (Angstroms)
 Number     Number       Type             X           Y           Z
 ---------------------------------------------------------------------
      1          6           0       -2.552146    0.699280    0.000166
      2          6           0       -2.552147   -0.699290    0.000182
      3          6           0       -1.356240   -1.424030    0.000010
      4          6           0       -0.178398   -0.696445   -0.000327
      5          6           0       -0.178401    0.696442   -0.000342
      6          6           0       -1.356244    1.424018   -0.000045
      7          6           0        1.242869    1.167570   -0.000429
      8          8           0        1.670296    2.296272    0.000272
      9          7           0        2.009564    0.000008    0.000296
     10          6           0        1.242881   -1.167565   -0.000540
     11          8           0        1.670319   -2.296264    0.000266
     12          1           0       -3.499627    1.229601    0.000327
     13          1           0       -3.499631   -1.229604    0.000377
     14          1           0       -1.343514   -2.509681    0.000045
     15          1           0       -1.343516    2.509674   -0.000049
     16          1           0        3.021374    0.000011    0.000878
 ---------------------------------------------------------------------
 Rotational constants (GHZ):      1.7476114      1.1994768      0.7112849
 Standard basis: 6-31+G(d) (6D, 7F)
 There are   219 symmetry adapted cartesian basis functions of A   symmetry.
 There are   219 symmetry adapted basis functions of A   symmetry.
   219 basis functions,   372 primitive gaussians,   219 cartesian basis functions
    38 alpha electrons       38 beta electrons
       nuclear repulsion energy       555.6097865458 Hartrees.
 NAtoms=   16 NActive=   16 NUniq=   16 SFac= 1.00D+00 NAtFMM=   60 NAOKFM=F Big=F
 Integral buffers will be    131072 words long.
 Raffenetti 2 integral format.
 Two-electron integral symmetry is turned on.
 One-electron integrals computed using PRISM.
 NBasis=   219 RedAO= T EigKep=  2.67D-06  NBF=   219
 NBsUse=   218 1.00D-06 EigRej=  8.81D-07 NBFU=   218
 Initial guess from the checkpoint file:  "/srv/scratch/z5358697/gauss/Gau-794786.chk"
 B after Tr=     0.000000    0.000000    0.000000
         Rot=    1.000000    0.000000    0.000000   -0.000003 Ang=   0.00 deg.
 Requested convergence on RMS density matrix=1.00D-08 within 128 cycles.
 Requested convergence on MAX density matrix=1.00D-06.
 Requested convergence on             energy=1.00D-06.
 No special actions if energy rises.
 SCF Done:  E(RM062X) =  -512.905191672     A.U. after   12 cycles
            NFock= 12  Conv=0.31D-08     -V/T= 2.0084
 Calling FoFJK, ICntrl=      2127 FMM=F ISym2X=0 I1Cent= 0 IOpClX= 0 NMat=1 NMatS=1 NMatT=0.
 ***** Axes restored to original set *****
 -------------------------------------------------------------------
 Center     Atomic                   Forces (Hartrees/Bohr)
 Number     Number              X              Y              Z
 -------------------------------------------------------------------
      1        6          -0.000021892    0.000299992   -0.000107331
      2        6           0.000031331    0.000296744    0.000105459
      3        6          -0.000048927   -0.000223183   -0.000153437
      4        6          -0.000211419    0.000030758   -0.000697975
      5        6           0.000108493    0.000032245    0.000724286
      6        6           0.000022166   -0.000223712    0.000151939
      7        6          -0.000108086   -0.000243357   -0.001291686
      8        8           0.000200632    0.000584204    0.001212886
      9        7          -0.000110245   -0.000399540    0.000026742
     10        6           0.000477183   -0.000238730    0.001212707
     11        8          -0.000332581    0.000582483   -0.001189297
     12        1          -0.000012231    0.000033031   -0.000062111
     13        1           0.000014118    0.000033201    0.000062685
     14        1          -0.000006842   -0.000094741   -0.000034738
     15        1           0.000010062   -0.000094109    0.000037280
     16        1          -0.000011763   -0.000375287    0.000002592
 -------------------------------------------------------------------
 Cartesian Forces:  Max     0.001291686 RMS     0.000432478

 GradGradGradGradGradGradGradGradGradGradGradGradGradGradGradGradGradGrad
 Berny optimization.
 Using GEDIIS/GDIIS optimizer.
 FormGI is forming the generalized inverse of G from B-inverse, IUseBI=4.
 Internal  Forces:  Max     0.001358991 RMS     0.000262769
 Search for a local minimum.
 Step number   3 out of a maximum of   94
 All quantities printed in internal units (Hartrees-Bohrs-Radians)
 Mixed Optimization -- En-DIIS/RFO-DIIS
 Update second derivatives using D2CorX and points    1    2    3
 DE= -2.08D-04 DEPred=-2.04D-04 R= 1.02D+00
 TightC=F SS=  1.41D+00  RLast= 3.98D-02 DXNew= 8.2927D-01 1.1931D-01
 Trust test= 1.02D+00 RLast= 3.98D-02 DXMaxT set to 4.93D-01
 ITU=  1  1  0
 Use linear search instead of GDIIS.
     Eigenvalues ---    0.01553   0.01606   0.01725   0.01902   0.01999
     Eigenvalues ---    0.02009   0.02023   0.02023   0.02063   0.02092
     Eigenvalues ---    0.02239   0.02247   0.02264   0.15611   0.16000
     Eigenvalues ---    0.16000   0.16000   0.16004   0.21806   0.22000
     Eigenvalues ---    0.23598   0.24531   0.25000   0.25000   0.27475
     Eigenvalues ---    0.34561   0.35169   0.35169   0.35548   0.35560
     Eigenvalues ---    0.38174   0.39118   0.42330   0.42863   0.45474
     Eigenvalues ---    0.45721   0.47750   0.48070   0.48864   0.49122
     Eigenvalues ---    0.89802   0.97129
 RFO step:  Lambda=-1.15057123D-05 EMin= 1.55318470D-02
 Quartic linear search produced a step of  0.01688.
 Iteration  1 RMS(Cart)=  0.00112801 RMS(Int)=  0.00000169
 Iteration  2 RMS(Cart)=  0.00000170 RMS(Int)=  0.00000098
 Iteration  3 RMS(Cart)=  0.00000000 RMS(Int)=  0.00000098
 Variable       Old X    -DE/DX   Delta X   Delta X   Delta X     New X
                                 (Linear)    (Quad)   (Total)
    R1        2.64291   0.00010  -0.00006   0.00031   0.00025   2.64317
    R2        2.64253   0.00025  -0.00001   0.00062   0.00062   2.64314
    R3        2.05186   0.00006   0.00000   0.00017   0.00017   2.05204
    R4        2.64254   0.00025  -0.00001   0.00061   0.00061   2.64315
    R5        2.05186   0.00006   0.00000   0.00017   0.00018   2.05204
    R6        2.61622  -0.00006   0.00000  -0.00017  -0.00017   2.61605
    R7        2.05173  -0.00003   0.00000  -0.00009  -0.00009   2.05163
    R8        2.63217  -0.00086   0.00000  -0.00215  -0.00216   2.63002
    R9        2.82954   0.00004   0.00005   0.00018   0.00022   2.82976
   R10        2.61622  -0.00005   0.00000  -0.00016  -0.00017   2.61605
   R11        2.82953   0.00004   0.00005   0.00019   0.00023   2.82976
   R12        2.05173  -0.00004   0.00000  -0.00010  -0.00010   2.05164
   R13        2.28075  -0.00136  -0.00012  -0.00152  -0.00164   2.27912
   R14        2.63955   0.00027   0.00012   0.00084   0.00096   2.64051
   R15        2.63956   0.00026   0.00012   0.00084   0.00096   2.64051
   R16        1.91204   0.00038  -0.00003   0.00082   0.00079   1.91283
   R17        2.28076  -0.00136  -0.00012  -0.00153  -0.00164   2.27912
    A1        2.11563  -0.00026   0.00000  -0.00086  -0.00086   2.11477
    A2        2.08107   0.00017   0.00002   0.00070   0.00072   2.08178
    A3        2.08649   0.00009  -0.00002   0.00017   0.00015   2.08663
    A4        2.11563  -0.00026   0.00000  -0.00086  -0.00086   2.11477
    A5        2.08106   0.00017   0.00002   0.00070   0.00072   2.08179
    A6        2.08650   0.00009  -0.00002   0.00016   0.00014   2.08663
    A7        2.04341   0.00024   0.00001   0.00100   0.00101   2.04442
    A8        2.12735  -0.00002   0.00007   0.00020   0.00027   2.12762
    A9        2.11243  -0.00022  -0.00008  -0.00120  -0.00128   2.11115
   A10        2.12415   0.00002  -0.00001  -0.00014  -0.00015   2.12400
   A11        2.26816  -0.00014  -0.00009  -0.00011  -0.00021   2.26796
   A12        1.89088   0.00011   0.00010   0.00025   0.00036   1.89123
   A13        2.12415   0.00002  -0.00001  -0.00014  -0.00015   2.12400
   A14        1.89088   0.00011   0.00010   0.00025   0.00035   1.89123
   A15        2.26816  -0.00013  -0.00009  -0.00011  -0.00021   2.26796
   A16        2.04341   0.00024   0.00001   0.00100   0.00101   2.04442
   A17        2.12735  -0.00002   0.00007   0.00019   0.00027   2.12762
   A18        2.11242  -0.00022  -0.00008  -0.00119  -0.00128   2.11114
   A19        2.25288  -0.00019   0.00022  -0.00056  -0.00035   2.25253
   A20        1.83176   0.00012  -0.00024   0.00047   0.00023   1.83199
   A21        2.19855   0.00006   0.00002   0.00010   0.00012   2.19866
   A22        1.97951  -0.00047   0.00027  -0.00144  -0.00118   1.97834
   A23        2.15184   0.00023  -0.00013   0.00072   0.00059   2.15243
   A24        2.15183   0.00023  -0.00013   0.00072   0.00059   2.15242
   A25        1.83175   0.00012  -0.00024   0.00047   0.00023   1.83199
   A26        2.25288  -0.00019   0.00022  -0.00056  -0.00035   2.25254
   A27        2.19855   0.00006   0.00002   0.00009   0.00011   2.19866
    D1        0.00002   0.00000   0.00000  -0.00002  -0.00002   0.00000
    D2        3.14156   0.00000   0.00000   0.00006   0.00006  -3.14156
    D3       -3.14157   0.00000   0.00000  -0.00008  -0.00008   3.14154
    D4       -0.00002   0.00000   0.00000   0.00001   0.00001  -0.00002
    D5        0.00009   0.00000   0.00000  -0.00021  -0.00020  -0.00012
    D6       -3.14158   0.00000   0.00000  -0.00005  -0.00005   3.14155
    D7       -3.14151   0.00000   0.00000  -0.00015  -0.00015   3.14152
    D8        0.00000   0.00000   0.00000   0.00000   0.00000   0.00001
    D9       -0.00012   0.00001   0.00000   0.00027   0.00027   0.00014
   D10        3.14157   0.00000   0.00000   0.00002   0.00002   3.14158
   D11        3.14152   0.00000   0.00000   0.00019   0.00018  -3.14148
   D12        0.00002   0.00000   0.00000  -0.00007  -0.00007  -0.00004
   D13        0.00012  -0.00001   0.00000  -0.00029  -0.00029  -0.00016
   D14        3.14156   0.00000   0.00001  -0.00021  -0.00020   3.14136
   D15       -3.14156   0.00000   0.00000  -0.00004  -0.00004   3.14158
   D16       -0.00013   0.00000   0.00000   0.00004   0.00005  -0.00008
   D17       -0.00002   0.00000   0.00000   0.00007   0.00007   0.00004
   D18        3.14137   0.00001   0.00000   0.00028   0.00028  -3.14153
   D19       -3.14149   0.00000   0.00000   0.00000  -0.00001  -3.14149
   D20       -0.00009   0.00000   0.00000   0.00021   0.00021   0.00012
   D21       -3.14074  -0.00003   0.00002  -0.00197  -0.00196   3.14049
   D22       -0.00078   0.00004  -0.00002   0.00260   0.00257   0.00180
   D23        0.00072  -0.00003   0.00002  -0.00189  -0.00188  -0.00116
   D24        3.14068   0.00004  -0.00002   0.00268   0.00265  -3.13986
   D25       -0.00009   0.00000   0.00000   0.00019   0.00018   0.00010
   D26        3.14158   0.00000   0.00000   0.00003   0.00003  -3.14157
   D27       -3.14143   0.00000  -0.00001  -0.00008  -0.00009  -3.14152
   D28        0.00024   0.00000   0.00000  -0.00023  -0.00024   0.00000
   D29       -3.14081  -0.00004   0.00001  -0.00238  -0.00236   3.14002
   D30       -0.00056   0.00003  -0.00002   0.00155   0.00153   0.00097
   D31        0.00056  -0.00003   0.00002  -0.00214  -0.00212  -0.00155
   D32        3.14081   0.00003  -0.00001   0.00179   0.00178  -3.14060
   D33        0.00108  -0.00005   0.00003  -0.00292  -0.00288  -0.00181
   D34       -3.14105  -0.00004   0.00003  -0.00222  -0.00220   3.13994
   D35        3.14138   0.00001   0.00000   0.00085   0.00085  -3.14096
   D36       -0.00075   0.00002  -0.00001   0.00154   0.00154   0.00079
   D37       -0.00113   0.00005  -0.00003   0.00304   0.00301   0.00188
   D38       -3.14116  -0.00002   0.00001  -0.00134  -0.00134   3.14069
   D39        3.14099   0.00004  -0.00003   0.00235   0.00232  -3.13987
   D40        0.00096  -0.00003   0.00001  -0.00203  -0.00202  -0.00106
         Item               Value     Threshold  Converged?
 Maximum Force            0.001359     0.000450     NO 
 RMS     Force            0.000263     0.000300     YES
 Maximum Displacement     0.004213     0.001800     NO 
 RMS     Displacement     0.001128     0.001200     YES
 Predicted change in Energy=-5.809438D-06
 GradGradGradGradGradGradGradGradGradGradGradGradGradGradGradGradGradGrad

                          Input orientation:                          
 ---------------------------------------------------------------------
 Center     Atomic      Atomic             Coordinates (Angstroms)
 Number     Number       Type             X           Y           Z
 ---------------------------------------------------------------------
      1          6           0       -0.407532   -0.923949   -1.893214
      2          6           0       -0.113477   -0.922378   -0.525769
      3          6           0        0.040500   -2.118368    0.182919
      4          6           0       -0.110476   -3.297058   -0.527245
      5          6           0       -0.403091   -3.298622   -1.887880
      6          6           0       -0.557918   -2.121566   -2.599923
      7          6           0       -0.499993   -4.720370   -2.347859
      8          8           0       -0.737958   -5.147970   -3.450177
      9          7           0       -0.254575   -5.486714   -1.205524
     10          6           0       -0.008879   -4.717748   -0.065010
     11          8           0        0.227462   -5.142815    1.038635
     12          1           0       -0.520644    0.022635   -2.413162
     13          1           0       -0.003284    0.025399   -0.007369
     14          1           0        0.268757   -2.131099    1.244255
     15          1           0       -0.786161   -2.136737   -3.661230
     16          1           0       -0.254630   -6.498940   -1.204348
 ---------------------------------------------------------------------
                    Distance matrix (angstroms):
                    1          2          3          4          5
     1  C    0.000000
     2  C    1.398705   0.000000
     3  C    2.436739   1.398692   0.000000
     4  C    2.754226   2.374682   1.384355   0.000000
     5  C    2.374683   2.754225   2.424455   1.391745   0.000000
     6  C    1.398692   2.436738   2.846458   2.424455   1.384354
     7  C    3.824665   4.230148   3.669794   2.343540   1.497444
     8  O    4.513941   5.176655   4.794149   3.516125   2.443971
     9  N    4.616832   4.616832   3.655215   2.296828   2.296827
    10  C    4.230149   3.824667   2.611644   1.497446   2.343540
    11  O    5.176657   4.513943   3.148727   2.443972   3.516125
    12  H    1.085892   2.149671   3.411512   3.839959   3.364593
    13  H    2.149671   1.085892   2.152641   3.364592   3.839958
    14  H    3.429036   2.177176   1.085678   2.154412   3.409510
    15  H    2.177176   3.429036   3.932072   3.409510   2.154411
    16  H    5.619469   5.619469   4.604457   3.275865   3.275865
                    6          7          8          9         10
     6  C    0.000000
     7  C    2.611642   0.000000
     8  O    3.148725   1.206056   0.000000
     9  N    3.655214   1.397299   2.320964   0.000000
    10  C    3.669794   2.335081   3.489412   1.397299   0.000000
    11  O    4.794150   3.489412   4.591459   2.320964   1.206056
    12  H    2.152641   4.743500   5.278047   5.646424   5.314786
    13  H    3.411511   5.314785   6.257508   5.646424   4.743501
    14  H    3.932072   4.494284   5.670332   4.187534   2.912389
    15  H    1.085679   2.912387   3.019005   4.187532   4.494284
    16  H    4.604456   2.128645   2.665046   1.012227   2.128645
                   11         12         13         14         15
    11  O    0.000000
    12  H    6.257510   0.000000
    13  H    5.278049   2.460794   0.000000
    14  H    3.019009   4.317224   2.508197   0.000000
    15  H    5.670332   2.508199   4.317224   5.017636   0.000000
    16  H    2.665044   6.637991   6.637991   5.034642   5.034641
                   16
    16  H    0.000000
 Stoichiometry    C8H5NO2
 Framework group  C1[X(C8H5NO2)]
 Deg. of freedom    42
 Full point group                 C1      NOp   1
 Largest Abelian subgroup         C1      NOp   1
 Largest concise Abelian subgroup C1      NOp   1
                         Standard orientation:                         
 ---------------------------------------------------------------------
 Center     Atomic      Atomic             Coordinates (Angstroms)
 Number     Number       Type             X           Y           Z
 ---------------------------------------------------------------------
      1          6           0       -2.552792    0.699352   -0.000210
      2          6           0       -2.552792   -0.699353   -0.000249
      3          6           0       -1.355987   -1.423230   -0.000039
      4          6           0       -0.178112   -0.695873    0.000387
      5          6           0       -0.178112    0.695872    0.000402
      6          6           0       -1.355987    1.423228    0.000045
      7          6           0        1.243108    1.167541    0.000822
      8          8           0        1.669439    2.295730   -0.000517
      9          7           0        2.010764    0.000001   -0.000278
     10          6           0        1.243111   -1.167540    0.000962
     11          8           0        1.669444   -2.295728   -0.000502
     12          1           0       -3.499975    1.230396   -0.000428
     13          1           0       -3.499973   -1.230398   -0.000479
[...]
 ! D13   D(2,3,4,5)              0.0007         -DE/DX =    0.0                 !
 ! D14   D(2,3,4,10)           180.0002         -DE/DX =    0.0                 !
 ! D15   D(14,3,4,5)          -180.0001         -DE/DX =    0.0                 !
 ! D16   D(14,3,4,10)           -0.0006         -DE/DX =    0.0                 !
 ! D17   D(3,4,5,6)             -0.0007         -DE/DX =    0.0                 !
 ! D18   D(3,4,5,7)            179.9978         -DE/DX =    0.0                 !
 ! D19   D(10,4,5,6)          -180.0003         -DE/DX =    0.0                 !
 ! D20   D(10,4,5,7)            -0.0018         -DE/DX =    0.0                 !
 ! D21   D(3,4,10,9)          -179.9965         -DE/DX =    0.0                 !
 ! D22   D(3,4,10,11)            0.0016         -DE/DX =    0.0                 !
 ! D23   D(5,4,10,9)             0.003          -DE/DX =    0.0                 !
 ! D24   D(5,4,10,11)          180.0011         -DE/DX =    0.0                 !
 ! D25   D(4,5,6,1)              0.0003         -DE/DX =    0.0                 !
 ! D26   D(4,5,6,15)           179.9998         -DE/DX =    0.0                 !
 ! D27   D(7,5,6,1)           -179.9978         -DE/DX =    0.0                 !
 ! D28   D(7,5,6,15)             0.0017         -DE/DX =    0.0                 !
 ! D29   D(4,5,7,8)            179.9964         -DE/DX =    0.0                 !
 ! D30   D(4,5,7,9)             -0.0001         -DE/DX =    0.0                 !
 ! D31   D(6,5,7,8)             -0.0053         -DE/DX =    0.0                 !
 ! D32   D(6,5,7,9)            179.9982         -DE/DX =    0.0                 !
 ! D33   D(5,7,9,10)             0.0022         -DE/DX =    0.0                 !
 ! D34   D(5,7,9,16)          -180.0085         -DE/DX =    0.0                 !
 ! D35   D(8,7,9,10)          -179.9945         -DE/DX =    0.0                 !
 ! D36   D(8,7,9,16)            -0.0051         -DE/DX =    0.0                 !
 ! D37   D(7,9,10,4)            -0.0032         -DE/DX =    0.0                 !
 ! D38   D(7,9,10,11)         -180.0014         -DE/DX =    0.0                 !
 ! D39   D(16,9,10,4)          180.0074         -DE/DX =    0.0                 !
 ! D40   D(16,9,10,11)           0.0093         -DE/DX =    0.0                 !
 --------------------------------------------------------------------------------
 GradGradGradGradGradGradGradGradGradGradGradGradGradGradGradGradGradGrad

 1\1\GINC-KATANA2\Freq\RM062X\6-31+G(d)\C8H5N1O2\Z5358697\18-Mar-2025\0
 \\#N Geom=AllCheck Guess=TCheck SCRF=Check GenChk RM062X/6-31+G(d) Fre
 q\\isoindoline-1,3-dione\\0,1\C,-0.4073963913,-0.9240744527,-1.8933231
 3\C,-0.1132727264,-0.9225032698,-0.5257317864\C,0.0404557692,-2.118425
 8107,0.182964969\C,-0.1109900859,-3.29708638,-0.5271794194\C,-0.403592
 372,-3.2986496199,-1.8877278092\C,-0.5580537606,-2.1216232168,-2.59993
 03922\C,-0.500920839,-4.7203218166,-2.3477229971\O,-0.7376762891,-5.14
 73534298,-3.4505406639\N,-0.2544169076,-5.4868524356,-1.2055570395\C,-
 0.0099766461,-4.7176989475,-0.0647114191\O,0.227807712,-5.142195985,1.
 0388630091\H,-0.520301546,0.0223747528,-2.4134966251\H,-0.0027947948,0
 .0251391751,-0.0072120899\H,0.2687287196,-2.1311653929,1.2443283818\H,
 -0.7862893313,-2.1368018648,-3.6612696578\H,-0.2532105107,-6.499061305
 7,-1.2046533303\\Version=ES64L-G09RevD.01\State=1-A\HF=-512.9051973\RM
 SD=1.760e-09\RMSF=1.203e-05\ZeroPoint=0.117279\Thermal=0.1251059\Dipol
 e=-0.0015441,1.1881286,-0.0010322\DipoleDeriv=-0.118106,-0.0063978,0.0
 165917,-0.0195617,0.1079626,-0.0897931,0.0165258,-0.0285798,-0.0449948
 ,-0.1181715,0.0058465,0.0163522,0.019012,0.108234,0.0895675,0.0164168,
 0.0283546,-0.045201,-0.0902606,0.014623,0.0460334,-0.0139506,-0.117283
 1,-0.0649536,0.0458903,0.0679005,0.1135739,-0.0076576,0.0417855,-0.022
 4238,0.0397961,-0.3750415,0.1831311,-0.022426,0.1923939,-0.1061001,-0.
 0074491,-0.0408837,-0.021871,-0.0388851,-0.3759034,-0.1827181,-0.02186
 88,-0.1919792,-0.1054467,-0.0902592,-0.0144638,0.0458935,0.0140995,-0.
 1172887,0.0654746,0.0460378,-0.0673814,0.1135778,0.404949,0.0440445,0.
 3536593,0.0055691,1.4218527,0.0315479,0.3534584,0.2104779,1.9733982,-0
 .4094729,-0.074287,-0.2040184,-0.0831403,-0.7749925,-0.3886594,-0.2040
 348,-0.3474597,-1.3161457,-0.4259854,0.00051,-0.2420726,0.0004709,-0.9
 258167,-0.0008202,-0.2420884,-0.0008286,-1.499633,0.4050464,-0.0460748
 ,0.3537427,-0.0075937,1.4213012,-0.0296696,0.3539256,-0.2085981,1.9738
 528,-0.4098601,0.0748507,-0.2050929,0.0837059,-0.7733046,0.3871901,-0.
 2050404,0.3459905,-1.3174466,0.1366521,0.0117756,-0.0200032,0.0113997,
 -0.0331502,0.0521186,-0.0200037,0.0538733,0.0482293,0.1367105,-0.01137
 47,-0.0198493,-0.0109986,-0.0333936,-0.0520272,-0.0198464,-0.053782,0.
 0484142,0.1356735,-0.0025434,-0.0291272,0.0030299,0.0864815,0.0138076,
 -0.0291025,-0.0120961,0.0065573,0.1356746,0.0026171,-0.0290966,-0.0029
 551,0.0864771,-0.0140217,-0.0291272,0.0118822,0.0065607,0.3225162,-0.0
 000277,-0.0387179,0.000002,0.2938652,-0.0001744,-0.0387165,-0.000168,0
 .1508039\Polar=53.7706135,-0.0755305,122.4095606,14.3874874,0.0142433,
 117.5752306\PG=C01 [X(C8H5N1O2)]\NImag=0\\0.16549648,-0.00790718,0.737
 30448,0.11336538,-0.03373560,0.66805137,-0.07739507,0.00833188,-0.0566
 9505,0.16545934,-0.00828235,-0.13532495,-0.03886749,0.00663850,0.73745
 991,-0.05677977,0.03838379,-0.32900480,0.11326631,0.03390483,0.6679332
 4,0.00458366,0.00618493,-0.00591912,-0.07010365,0.02785600,-0.02611694
 ,0.16682509,0.01784388,0.04186639,0.08315320,0.01183410,-0.28677832,0.
 05389079,0.00268015,0.67974071,-0.00586003,0.02894187,-0.02123614,-0.0
 2619869,0.12839042,-0.18561849,0.13087749,0.01520778,0.74730446,-0.008
 99596,-0.00716623,-0.01126708,0.01018489,-0.00579753,0.01361305,-0.064
 28432,-0.01710857,-0.03003388,0.15419061,-0.00619325,-0.02025712,-0.02
 886679,0.00586897,-0.06083278,0.02694349,-0.03017412,-0.29718747,-0.14
 151102,0.01992283,0.74104632,-0.01126184,-0.03339015,-0.05911596,0.013
 67239,-0.02730365,0.07068431,-0.03010075,-0.08076137,-0.19820972,0.120
 82302,0.09576098,0.69052240,0.01018418,0.00600355,0.01367045,-0.009030
 22,0.00717456,-0.01135314,0.00466443,-0.01780017,-0.00630554,-0.072271
 49,0.00772628,-0.05781828,0.15429681,-0.00566284,-0.06083132,-0.026678
 86,0.00620224,-0.02011429,0.02876968,-0.00585507,0.03113545,-0.0270974
 1,-0.00771339,-0.11612272,-0.03615522,-0.02122492,0.74060660,0.0136115
 9,0.02756827,0.07068356,-0.01135841,0.03329321,-0.05922456,-0.00624483
 ,-0.08263859,-0.02345793,-0.05789761,0.03563500,-0.32885743,0.12110568
 ,-0.09553613,0.69085583,-0.07000292,-0.02734486,-0.02593006,0.00464555
 ,-0.00629018,-0.00569486,-0.00444142,0.00063627,0.00109474,0.00460386,
 0.00577575,-0.00646678,-0.06440659,0.03071715,-0.03036015,0.16684084,-
 0.01132325,-0.28719680,-0.05378012,-0.01794944,0.04160853,-0.08327784,
 -0.00044712,-0.07748625,-0.00244910,0.01772124,0.03138737,0.08252644,0
 .01765268,-0.29667624,0.08085565,-0.00376678,0.67967142,-0.02584881,-0
 .12827978,-0.18530055,-0.00575433,-0.02906660,-0.02104017,0.00108927,0
 .00258795,0.00040228,-0.00640635,0.02698536,-0.02364927,-0.03042636,0.
 14160554,-0.19859842,0.13091976,-0.01475389,0.74735769,0.00810931,0.00
 186876,-0.00170003,-0.00129603,0.00053794,-0.00076064,0.00624324,-0.00
 032305,-0.00321959,-0.00105676,-0.00623054,-0.00398532,-0.07368196,0.0
 0000970,-0.00691099,-0.00050600,0.00171693,0.00404107,0.23201944,0.001
 12045,-0.00093077,0.00516144,0.00081397,-0.00024208,0.00378932,0.00092
 967,0.00826577,0.00432965,-0.00515144,-0.01291081,-0.02401290,-0.00624
 696,-0.19387698,-0.02969241,-0.00057658,-0.02393355,-0.00279565,0.0440
 9719,0.59990395,-0.00170378,0.00864137,0.00059876,-0.00075917,0.002506
 59,-0.00464892,-0.00321303,-0.00149429,-0.00801252,-0.00397804,-0.0290
 3669,-0.01885803,-0.00694338,-0.00059283,-0.10448845,0.00402917,0.0078
 6939,0.01740272,0.16909685,0.20708039,0.98292192,-0.00095544,-0.000359
 87,0.00035595,0.00021043,0.00012462,-0.00005994,-0.00116650,-0.0002466
 1,0.00026122,0.00209271,-0.00079499,0.00026829,0.01635373,-0.00631016,
 -0.00775583,-0.00059695,0.00052442,-0.00071233,-0.09697772,-0.05174793
 ,-0.12628244,0.06581336,0.00000271,0.00103493,0.00002288,-0.00033325,0
 .00051844,-0.00154801,-0.00065321,-0.00146274,-0.00303913,0.00053194,-
 0.00663232,0.00242787,-0.00979302,-0.00934167,-0.04566725,-0.00015522,
 0.00348252,-0.00070231,-0.04927791,-0.20528164,-0.22978682,0.05610621,
 0.18605964,0.00035788,-0.00166235,0.00062275,-0.00006234,0.00058076,-0
 .00006342,0.00025931,-0.00114829,-0.00002393,0.00027449,-0.00373981,0.
 00329253,-0.00777420,-0.02947932,-0.01827892,-0.00071567,0.00245765,-0
 .00375857,-0.12626928,-0.24126372,-0.65812499,0.15815622,0.26162878,0.
 76845714,-0.00056630,-0.00010845,0.00058667,-0.00056824,0.00012029,0.0
 0057859,0.00082272,0.00110478,0.00014753,0.01336199,-0.00293112,-0.002
 12158,0.01333770,0.00310549,-0.00220497,0.00082945,-0.00110733,0.00016
 736,-0.05839803,0.00998464,-0.02360976,0.01254358,0.00447436,-0.024938
 95,0.07303181,-0.00053551,-0.00446681,-0.00250909,0.00054633,-0.004459
 81,0.00252194,0.00148140,0.00117730,0.00688998,-0.00649952,-0.05467288
 ,-0.03058525,0.00667502,-0.05457029,0.03068059,-0.00148188,0.00114965,
 -0.00688897,0.01345231,-0.21723597,0.06170738,-0.00094557,0.03979229,-
 0.00428369,-0.00096079,0.92951527,0.00058369,-0.00052560,0.00201926,0.
 00058169,0.00053823,0.00201419,0.00014948,0.00514451,0.00151398,-0.002
 14021,-0.01398547,0.00379642,-0.00218660,0.01408105,0.00371811,0.00016
 547,-0.00514305,0.00153488,-0.02359737,0.04560015,-0.16277678,-0.02496
 681,0.02091607,-0.09805237,0.11372671,-0.00017006,0.57741010,-0.001292
 48,-0.00054199,-0.00074972,0.00811688,-0.00184828,-0.00168358,-0.00050
 327,-0.00164997,0.00403671,-0.07369865,0.00029099,-0.00698776,-0.00108
 644,0.00625388,-0.00405795,0.00624488,0.00031170,-0.00320874,-0.014795
 05,0.00606993,-0.01390163,0.00728208,-0.00041115,0.00257979,-0.0583352
 0,-0.01308055,-0.02344325,0.23223226,-0.00081800,-0.00025657,-0.003798
 92,-0.00110013,-0.00096248,-0.00516308,0.00064375,-0.02394502,0.002878
 20,0.00654829,-0.19380698,0.02982940,0.00517390,-0.01278896,0.02399217
 ,-0.00094038,0.00825916,-0.00436632,-0.00629976,0.06338143,-0.02889516
 ,0.00532582,-0.01095687,0.02466613,-0.00962009,-0.21748237,-0.04556440
 ,-0.04473839,0.59895486,-0.00075122,-0.00251619,-0.00463798,-0.0016798
 1,-0.00864303,0.00062291,0.00404810,-0.00778679,0.01741143,-0.00695563
 ,0.00072994,-0.10454163,-0.00406326,0.02901580,-0.01895024,-0.00321515
 ,0.00145775,-0.00800755,-0.01396407,0.02861610,-0.07659075,0.00261152,
 -0.00200401,0.01885682,-0.02343204,-0.06167321,-0.16259292,0.16967092,
 -0.20597729,0.98365843,0.00020988,-0.00012547,-0.00006376,-0.00095637,
 0.00035526,0.00035535,-0.00059596,-0.00053597,-0.00071312,0.01631265,0
 .00636155,-0.00788345,0.00209198,0.00081768,0.00027282,-0.00116888,0.0
 0024791,0.00025295,0.00729487,-0.00527165,0.00261421,-0.00198543,0.000
 75170,-0.00243970,0.01255663,0.00083150,-0.02490611,-0.09722403,0.0517
 9068,-0.12693250,0.06608420,0.00033237,0.00052066,0.00154683,-0.000007
 10,0.00103869,-0.00002271,0.00014367,0.00347846,0.00068781,0.00984279,
 -0.00916909,0.04563179,-0.00050897,-0.00662927,-0.00240987,0.00065455,
 -0.00145311,0.00304225,0.00046394,-0.01100880,0.00206255,-0.00076800,0
 .00253088,-0.00354923,-0.00458749,0.03975338,-0.02122070,0.04932284,-0
 .20420203,0.22867228,-0.05612498,0.18486077,-0.00006143,-0.00058194,-0
 .00006508,0.00035355,0.00166257,0.00061991,-0.00070963,-0.00247214,-0.
 00375548,-0.00786590,0.02944351,-0.01841040,0.00026606,0.00375785,0.00
 329022,0.00025495,0.00115143,-0.00003119,0.00264495,-0.02460789,0.0188
 9596,-0.00244891,0.00351624,-0.01282588,-0.02493347,0.00397928,-0.0980
 2654,-0.12694416,0.24014964,-0.65895891,0.15888591,-0.26020618,0.76938
 580,-0.04359511,0.02609387,-0.01863944,0.00359950,0.00601385,-0.002956
 33,0.00666820,-0.00017741,-0.00266166,-0.00060944,-0.00022863,-0.00009
 390,0.00667035,-0.00075360,-0.00167424,0.00471333,-0.00328758,0.001642
 68,0.00045757,-0.00006507,0.00007719,0.00002685,0.00000437,-0.00002843
 ,0.00001282,-0.00007105,0.00001890,-0.00103057,-0.00003787,0.00016187,
 0.00013768,0.00001964,0.00000153,0.03114836,0.02608879,-0.27734524,0.1
 2009825,-0.00051232,0.00463776,-0.00238005,-0.00015218,0.00136702,-0.0
 0073731,-0.00019881,0.00043274,-0.00091927,-0.00076982,-0.00379030,-0.
 00363496,0.00316966,-0.01772825,0.01462590,0.00028661,0.00056697,0.001
 33348,-0.00009027,-0.00026236,-0.00042119,0.00004119,-0.00065105,0.000
 18817,-0.00007424,-0.00027747,-0.00034124,0.00004483,-0.00001591,0.000
 20768,-0.02785352,0.29138820,-0.01863964,0.12012198,-0.12561688,-0.002
 98935,0.02796431,-0.00951545,-0.00266152,-0.00085435,-0.00513922,-0.00
 009375,-0.00105796,-0.00103083,-0.00167421,-0.00355930,-0.00077352,0.0
 0167547,-0.01539853,0.01206883,0.00007896,-0.00030214,0.00080653,-0.00
 002892,0.00001887,-0.00010141,0.00001947,-0.00033367,0.00009753,0.0001
 6169,-0.00017203,-0.00031451,0.00000163,0.00009062,0.00014545,0.022125
 30,-0.12816522,0.12858498,0.00361361,-0.00602161,-0.00295189,-0.043462
 88,-0.02552604,-0.01828697,0.00471291,0.00334790,0.00167437,0.00666639
 ,0.00077754,-0.00168477,-0.00061053,0.00022578,-0.00009666,0.00666732,
 0.00018642,-0.00266386,-0.00103085,0.00003623,0.00016092,0.00013783,-0
 .00001927,0.00000205,0.00001274,0.00007278,0.00001927,0.00045815,0.000
 06499,0.00008053,0.00002663,-0.00000370,-0.00002952,-0.00400097,0.0000
 5055,0.00106181,0.03100724,0.00050459,0.00457890,0.00234785,-0.0255209
 2,-0.27789656,-0.11987972,-0.00310931,-0.01772637,-0.01456961,0.000793
 77,-0.00377377,0.00363588,0.00019599,0.00043727,0.00091646,0.00016111,
 0.00137064,0.00071912,0.00007260,-0.00027629,0.00034159,-0.00004444,-0
 .00001660,-0.00020739,-0.00003946,-0.00065072,-0.00018682,-0.00028678,
 0.00056460,-0.00133285,0.00009095,-0.00026143,0.00042140,-0.00006055,0
 .00062999,-0.00025676,0.02722375,0.29197654,-0.00291852,-0.02799649,-0
 .00947069,-0.01828702,-0.11990347,-0.12519771,0.00164147,0.01545485,0.
 01206735,-0.00168479,0.00356022,-0.00078609,-0.00009680,0.00105516,-0.
 00103427,-0.00266396,0.00083614,-0.00514196,0.00016112,0.00017238,-0.0
 0031540,0.00000195,-0.00009033,0.00014597,0.00001869,0.00033502,0.0000
 9727,0.00007869,0.00030275,0.00080833,-0.00002903,-0.00001867,-0.00010
 211,0.00106124,0.00025961,0.00070648,0.02174905,0.12793621,0.12813771,
 0.00711131,0.00052007,-0.00140333,0.00373262,-0.00050870,-0.00270618,-
 0.05376317,0.00059450,-0.06343328,0.00281339,0.00008175,-0.00303920,0.
 00765142,-0.00051747,-0.00140634,-0.00068606,0.00002092,0.00025559,0.0
 0053411,0.00015993,-0.00028404,-0.00038334,-0.00008462,0.00006097,0.00
 018934,-0.00004754,0.00001317,-0.00419306,0.00021361,0.00066984,0.0002
 9648,-0.00010812,0.00014415,-0.00012539,-0.00004276,-0.00007690,-0.003
 90839,0.00000731,0.00098267,0.04184240,0.00046968,-0.00468259,0.002122
 45,0.00573492,0.00587423,0.02667417,0.00039451,-0.06075350,0.00173001,
 -0.00592518,0.00670356,-0.02753441,-0.00032260,-0.00479515,-0.00156509
 ,-0.00000595,-0.00117699,-0.00002988,-0.00041123,0.00160835,-0.0019068
 1,-0.00001544,-0.00092662,-0.00007451,0.00025385,0.00006679,0.00117998
 ,-0.00041910,0.00100721,-0.00192182,0.00037582,0.00036058,0.00174800,0
 .00028879,0.00013117,0.00134395,-0.00013019,0.00091923,-0.00057984,-0.
 00028985,0.05555447,-0.00140357,0.00235631,0.00089939,-0.00267426,-0.0
 0235771,-0.00813271,-0.06343467,0.00266012,-0.33506577,-0.00306947,0.0
 0039621,-0.01080333,-0.00140536,-0.00247003,0.00140594,0.00025540,0.00
 009499,0.00044700,-0.00028692,0.00074837,-0.00073482,0.00006133,-0.000
 39597,-0.00011336,0.00001472,-0.00022205,0.00025373,0.00066653,0.00102
 066,-0.00123238,0.00014661,-0.00050223,0.00094455,-0.00007520,-0.00019
 761,-0.00045955,0.00098195,0.00005965,0.00044646,0.06999694,-0.0012017
 7,0.35225443,0.00374603,0.00049842,-0.00263868,0.00711383,-0.00049230,
 -0.00139682,-0.00068603,-0.00001899,0.00025556,0.00764913,0.00054676,-
 0.00141153,0.00279858,-0.00009750,-0.00310895,-0.05376017,-0.00068687,
 -0.06342670,-0.00419357,-0.00022591,0.00066519,0.00029717,0.00010818,0
 .00014841,0.00018987,0.00004798,0.00001613,0.00053348,-0.00016309,-0.0
 0028868,-0.00038359,0.00008608,0.00006064,-0.00390868,-0.00001798,0.00
 098118,-0.00012475,0.00004197,-0.00007351,-0.00125690,-0.00000766,0.00
 025673,0.04184037,-0.00574489,0.00581828,-0.02670542,-0.00044188,-0.00
 469287,-0.00211627,0.00000768,-0.00117713,0.00003337,0.00035210,-0.004
 78587,0.00157228,0.00590961,0.00676584,0.02749588,-0.00048740,-0.06076
 504,-0.00237175,0.00040708,0.00100927,0.00191958,-0.00037580,0.0003577
 2,-0.00174658,-0.00025356,0.00006459,-0.00117960,0.00040789,0.00161100
 ,0.00190199,0.00001696,-0.00092553,0.00007608,0.00011954,0.00092043,0.
 00058153,-0.00028959,0.00012853,-0.00134517,0.00000452,0.00014508,0.00
 002847,0.00037697,0.05556157,-0.00267022,0.00232652,-0.00809016,-0.001
 39672,-0.00235012,0.00090715,0.00025563,-0.00009155,0.00044710,-0.0014
 1231,0.00247727,0.00139893,-0.00307883,-0.00043470,-0.01085079,-0.0634
 2563,-0.00330196,-0.33505739,0.00066845,-0.00102284,-0.00123393,0.0001
 4602,0.00050364,0.00094672,0.00001457,0.00022239,0.00025540,-0.0002856
 7,-0.00075322,-0.00073684,0.00006029,0.00039755,-0.00011419,0.00098187
 ,-0.00005795,0.00044556,-0.00007521,0.00019639,-0.00045755,0.00025679,
 -0.00002827,-0.00011823,0.06999177,0.00189945,0.35224951,-0.00025118,0
 .00007419,-0.00002030,-0.00025058,-0.00007563,-0.00001812,0.00102409,-
 0.00018086,0.00007815,0.00304100,-0.00079977,-0.00190855,0.00303806,0.
 00080305,-0.00191313,0.00102375,0.00018616,0.00007879,-0.00272255,0.00
 607353,0.00403173,-0.00269238,-0.00125181,0.00038944,-0.00902088,0.000
 51508,-0.01403415,-0.00270898,-0.00604333,0.00403957,-0.00269671,0.001
 24247,0.00038128,-0.00016451,0.00003030,0.00005876,-0.00016445,-0.0000
 3058,0.00005875,0.00014523,0.00000964,-0.00003078,0.00014524,-0.000009
 22,-0.00003081,0.01225483,0.00010482,0.00016853,0.00048940,-0.00010588
 ,0.00016660,-0.00049033,0.00006925,-0.00051429,0.00031448,-0.00015228,
 0.00058183,-0.00072242,0.00015487,0.00059203,0.00070708,-0.00006525,-0
 .00051305,-0.00031097,-0.00037056,-0.00903885,-0.00174973,-0.00038199,
 0.00110439,-0.00175722,0.00052370,-0.45732934,0.00032753,0.00039323,-0
 .00909952,0.00180257,0.00037324,0.00112175,0.00175448,-0.00000478,-0.0
 0000370,-0.00002131,0.00000446,-0.00000398,0.00002164,-0.00000355,-0.0
 0003581,-0.00001741,0.00000394,-0.00003587,0.00001741,-0.00054321,0.47
 283927,-0.00001969,0.00034799,-0.00033683,-0.00001880,-0.00034885,-0.0
 0033550,0.00007973,-0.00085183,0.00137258,-0.00190556,-0.00373423,-0.0
 0543188,-0.00191623,0.00371874,-0.00543914,0.00007729,0.00085507,0.001
 37167,0.00400280,0.02819974,0.01515870,0.00039267,-0.00580052,-0.00097
 908,-0.01403354,0.00032940,-0.07126226,0.00406814,-0.02814853,0.015205
 79,0.00037788,0.00579789,-0.00099210,0.00005860,0.00014172,0.00009599,
 0.00005892,-0.00014140,0.00009622,-0.00003084,0.00004384,0.00000865,-0
 .00003074,-0.00004385,0.00000870,0.00883936,-0.00036519,0.05145850\\0.
 00000206,0.00001622,0.00000772,-0.00000194,0.00001610,-0.00000781,-0.0
 0000032,-0.00002862,-0.00001116,0.00000454,0.00002286,0.00002022,-0.00
 000804,0.00002263,-0.00001942,0.00000150,-0.00002858,0.00001081,0.0000
 0609,-0.00002178,-0.00001621,-0.00000084,0.00000710,0.00001214,0.00000
 157,0.00002258,-0.00000042,-0.00000245,-0.00002180,0.00001567,-0.00000
 056,0.00000712,-0.00001204,-0.00000014,-0.00000102,-0.00000174,0.00000
 015,-0.00000100,0.00000180,0.00000005,-0.00000139,0.00000142,-0.000000
 32,-0.00000140,-0.00000128,-0.00000137,-0.00000902,0.00000033\\\@


 A politician is a person who can make waves and then
 make you think he's the only one who can save the ship.
 -- Ivern Ball
 Job cpu time:       0 days  0 hours 10 minutes 39.0 seconds.
 File lengths (MBytes):  RWF=    210 Int=      0 D2E=      0 Chk=      5 Scr=      2
 Normal termination of Gaussian 09 at Tue Mar 18 19:32:58 2025.
