 Entering Gaussian System, Link 0=g09
 Initial command:
 /apps/z_install_tree/linux-rocky8-ivybridge/gcc-12.2.0/gaussian-09-D.01-wczn3gur5lpur3omlkzwa2l5ecyxp5ef/g09/l1.exe "/srv/scratch/z5358697/gauss/Gau-2405733.inp" -scrdir="/srv/scratch/z5358697/gauss/"
 Entering Link 1 = /apps/z_install_tree/linux-rocky8-ivybridge/gcc-12.2.0/gaussian-09-D.01-wczn3gur5lpur3omlkzwa2l5ecyxp5ef/g09/l1.exe PID=   2405739.
  
 Copyright (c) 1988,1990,1992,1993,1995,1998,2003,2009,2013,
            Gaussian, Inc.  All Rights Reserved.
  
 This is part of the Gaussian(R) 09 program.  It is based on
 the Gaussian(R) 03 system (copyright 2003, Gaussian, Inc.),
 the Gaussian(R) 98 system (copyright 1998, Gaussian, Inc.),
 the Gaussian(R) 94 system (copyright 1995, Gaussian, Inc.),
 the Gaussian 92(TM) system (copyright 1992, Gaussian, Inc.),
 the Gaussian 90(TM) system (copyright 1990, Gaussian, Inc.),
 the Gaussian 88(TM) system (copyright 1988, Gaussian, Inc.),
 the Gaussian 86(TM) system (copyright 1986, Carnegie Mellon
 University), and the Gaussian 82(TM) system (copyright 1983,
 Carnegie Mellon University). Gaussian is a federally registered
 trademark of Gaussian, Inc.
  
 This software contains proprietary and confidential information,
 including trade secrets, belonging to Gaussian, Inc.
  
 This software is provided under written license and may be
 used, copied, transmitted, or stored only in accord with that
 written license.
  
 The following legend is applicable only to US Government
 contracts under FAR:
  
                    RESTRICTED RIGHTS LEGEND
  
 Use, reproduction and disclosure by the US Government is
 subject to restrictions as set forth in subparagraphs (a)
 and (c) of the Commercial Computer Software - Restricted
 Rights clause in FAR 52.227-19.
  
 Gaussian, Inc.
 340 Quinnipiac St., Bldg. 40, Wallingford CT 06492
  
  
 ---------------------------------------------------------------
 Warning -- This program may not be used in any manner that
 competes with the business of Gaussian, Inc. or will provide
 assistance to any competitor of Gaussian, Inc.  The licensee
 of this program is prohibited from giving any competitor of
 Gaussian, Inc. access to this program.  By using this program,
 the user acknowledges that Gaussian, Inc. is engaged in the
 business of creating and licensing software in the field of
 computational chemistry and represents and warrants to the
 licensee that it is not a competitor of Gaussian, Inc. and that
 it will not use this program in any manner prohibited above.
 ---------------------------------------------------------------
  

 Cite this work as:
 Gaussian 09, Revision D.01,
 M. J. Frisch, G. W. Trucks, H. B. Schlegel, G. E. Scuseria, 
 M. A. Robb, J. R. Cheeseman, G. Scalmani, V. Barone, B. Mennucci, 
 G. A. Petersson, H. Nakatsuji, M. Caricato, X. Li, H. P. Hratchian, 
 A. F. Izmaylov, J. Bloino, G. Zheng, J. L. Sonnenberg, M. Hada, 
 M. Ehara, K. Toyota, R. Fukuda, J. Hasegawa, M. Ishida, T. Nakajima, 
 Y. Honda, O. Kitao, H. Nakai, T. Vreven, J. A. Montgomery, Jr., 
 J. E. Peralta, F. Ogliaro, M. Bearpark, J. J. Heyd, E. Brothers, 
 K. N. Kudin, V. N. Staroverov, T. Keith, R. Kobayashi, J. Normand, 
 K. Raghavachari, A. Rendell, J. C. Burant, S. S. Iyengar, J. Tomasi, 
 M. Cossi, N. Rega, J. M. Millam, M. Klene, J. E. Knox, J. B. Cross, 
 V. Bakken, C. Adamo, J. Jaramillo, R. Gomperts, R. E. Stratmann, 
 O. Yazyev, A. J. Austin, R. Cammi, C. Pomelli, J. W. Ochterski, 
 R. L. Martin, K. Morokuma, V. G. Zakrzewski, G. A. Voth, 
 P. Salvador, J. J. Dannenberg, S. Dapprich, A. D. Daniels, 
 O. Farkas, J. B. Foresman, J. V. Ortiz, J. Cioslowski, 
 and D. J. Fox, Gaussian, Inc., Wallingford CT, 2013.
 
 ******************************************
 Gaussian 09:  ES64L-G09RevD.01 24-Apr-2013
                16-Mar-2025 
 ******************************************
 ---------------------------------
 #m062X/6-31+G(d) OPT Freq=noraman
 ---------------------------------
 1/14=-1,18=20,19=15,26=3,38=1/1,3;
 2/9=110,12=2,17=6,18=5,40=1/2;
 3/5=1,6=6,7=11,11=2,16=1,25=1,30=1,71=1,74=-55/1,2,3;
 4//1;
 5/5=2,38=5/2;
 6/7=2,8=2,9=2,10=2,28=1/1;
 7//1,2,3,16;
 1/14=-1,18=20,19=15,26=3/3(2);
 2/9=110/2;
 99//99;
 2/9=110/2;
 3/5=1,6=6,7=11,11=2,16=1,25=1,30=1,71=1,74=-55/1,2,3;
 4/5=5,16=3,69=1/1;
 5/5=2,38=5/2;
 7//1,2,3,16;
 1/14=-1,18=20,19=15,26=3/3(-5);
 2/9=110/2;
 6/7=2,8=2,9=2,10=2,19=2,28=1/1;
 99/9=1/99;
 ----------------
 1,4-benzoquinone
 ----------------
 Symbolic Z-matrix:
 Charge =  0 Multiplicity = 1
 C                    -0.7272    1.174     0.3642 
 C                     0.5407    1.0753    0.7688 
 C                     1.3629   -0.1061    0.4349 
 O                     2.5276   -0.1969    0.8069 
 C                     0.7273   -1.1739   -0.3643 
 C                    -0.5407   -1.0753   -0.7688 
 C                    -1.363     0.1061   -0.4349 
 O                    -2.5277    0.1969   -0.8067 
 H                    -1.3263    2.0429    0.6122 
 H                     1.0024    1.8616    1.3554 
 H                     1.3259   -2.0438   -0.6108 
 H                    -1.0023   -1.8614   -1.3557 
 

 GradGradGradGradGradGradGradGradGradGradGradGradGradGradGradGradGradGrad
 Berny optimization.
 Initialization pass.
                           ----------------------------
                           !    Initial Parameters    !
                           ! (Angstroms and Degrees)  !
 --------------------------                            --------------------------
 ! Name  Definition              Value          Derivative Info.                !
 --------------------------------------------------------------------------------
 ! R1    R(1,2)                  1.3345         estimate D2E/DX2                !
 ! R2    R(1,7)                  1.4776         estimate D2E/DX2                !
 ! R3    R(1,9)                  1.0842         estimate D2E/DX2                !
 ! R4    R(2,3)                  1.4776         estimate D2E/DX2                !
 ! R5    R(2,10)                 1.0842         estimate D2E/DX2                !
 ! R6    R(3,4)                  1.226          estimate D2E/DX2                !
 ! R7    R(3,5)                  1.4775         estimate D2E/DX2                !
 ! R8    R(5,6)                  1.3346         estimate D2E/DX2                !
 ! R9    R(5,11)                 1.0843         estimate D2E/DX2                !
 ! R10   R(6,7)                  1.4776         estimate D2E/DX2                !
 ! R11   R(6,12)                 1.0842         estimate D2E/DX2                !
 ! R12   R(7,8)                  1.226          estimate D2E/DX2                !
 ! A1    A(2,1,7)              121.2868         estimate D2E/DX2                !
 ! A2    A(2,1,9)              120.992          estimate D2E/DX2                !
 ! A3    A(7,1,9)              117.7212         estimate D2E/DX2                !
 ! A4    A(1,2,3)              121.2845         estimate D2E/DX2                !
 ! A5    A(1,2,10)             120.9949         estimate D2E/DX2                !
 ! A6    A(3,2,10)             117.7206         estimate D2E/DX2                !
 ! A7    A(2,3,4)              121.2831         estimate D2E/DX2                !
 ! A8    A(2,3,5)              117.4331         estimate D2E/DX2                !
 ! A9    A(4,3,5)              121.2838         estimate D2E/DX2                !
 ! A10   A(3,5,6)              121.284          estimate D2E/DX2                !
 ! A11   A(3,5,11)             117.7281         estimate D2E/DX2                !
 ! A12   A(6,5,11)             120.9879         estimate D2E/DX2                !
 ! A13   A(5,6,7)              121.2859         estimate D2E/DX2                !
 ! A14   A(5,6,12)             120.9979         estimate D2E/DX2                !
 ! A15   A(7,6,12)             117.7161         estimate D2E/DX2                !
 ! A16   A(1,7,6)              117.4256         estimate D2E/DX2                !
 ! A17   A(1,7,8)              121.284          estimate D2E/DX2                !
 ! A18   A(6,7,8)              121.2903         estimate D2E/DX2                !
 ! D1    D(7,1,2,3)              0.0024         estimate D2E/DX2                !
 ! D2    D(7,1,2,10)          -179.9719         estimate D2E/DX2                !
 ! D3    D(9,1,2,3)            179.9794         estimate D2E/DX2                !
 ! D4    D(9,1,2,10)             0.0051         estimate D2E/DX2                !
 ! D5    D(2,1,7,6)             -0.0036         estimate D2E/DX2                !
 ! D6    D(2,1,7,8)           -179.9906         estimate D2E/DX2                !
 ! D7    D(9,1,7,6)           -179.9814         estimate D2E/DX2                !
 ! D8    D(9,1,7,8)              0.0316         estimate D2E/DX2                !
 ! D9    D(1,2,3,4)           -179.9815         estimate D2E/DX2                !
 ! D10   D(1,2,3,5)              0.006          estimate D2E/DX2                !
 ! D11   D(10,2,3,4)            -0.0064         estimate D2E/DX2                !
 ! D12   D(10,2,3,5)           179.9811         estimate D2E/DX2                !
 ! D13   D(2,3,5,6)             -0.014          estimate D2E/DX2                !
 ! D14   D(2,3,5,11)          -179.9088         estimate D2E/DX2                !
 ! D15   D(4,3,5,6)            179.9734         estimate D2E/DX2                !
 ! D16   D(4,3,5,11)             0.0787         estimate D2E/DX2                !
 ! D17   D(3,5,6,7)              0.0132         estimate D2E/DX2                !
 ! D18   D(3,5,6,12)           179.9576         estimate D2E/DX2                !
 ! D19   D(11,5,6,7)           179.9045         estimate D2E/DX2                !
 ! D20   D(11,5,6,12)           -0.151          estimate D2E/DX2                !
 ! D21   D(5,6,7,1)             -0.0044         estimate D2E/DX2                !
 ! D22   D(5,6,7,8)            179.9826         estimate D2E/DX2                !
 ! D23   D(12,6,7,1)          -179.9506         estimate D2E/DX2                !
 ! D24   D(12,6,7,8)             0.0365         estimate D2E/DX2                !
 --------------------------------------------------------------------------------
 Trust Radius=3.00D-01 FncErr=1.00D-07 GrdErr=1.00D-06
 Number of steps in this run=     64 maximum allowed number of steps=    100.
 GradGradGradGradGradGradGradGradGradGradGradGradGradGradGradGradGradGrad

                          Input orientation:                          
 ---------------------------------------------------------------------
 Center     Atomic      Atomic             Coordinates (Angstroms)
 Number     Number       Type             X           Y           Z
 ---------------------------------------------------------------------
      1          6           0       -0.727200    1.174000    0.364200
      2          6           0        0.540700    1.075300    0.768800
      3          6           0        1.362900   -0.106100    0.434900
      4          8           0        2.527600   -0.196900    0.806900
      5          6           0        0.727300   -1.173900   -0.364300
      6          6           0       -0.540700   -1.075300   -0.768800
      7          6           0       -1.363000    0.106100   -0.434900
      8          8           0       -2.527700    0.196900   -0.806700
      9          1           0       -1.326300    2.042900    0.612200
     10          1           0        1.002400    1.861600    1.355400
     11          1           0        1.325900   -2.043800   -0.610800
     12          1           0       -1.002300   -1.861400   -1.355700
 ---------------------------------------------------------------------
                    Distance matrix (angstroms):
                    1          2          3          4          5
     1  C    0.000000
     2  C    1.334546   0.000000
     3  C    2.451973   1.477568   0.000000
     4  O    3.559364   2.359601   1.226032   0.000000
     5  C    2.856382   2.525398   1.477466   2.359517   0.000000
     6  C    2.525435   2.856347   2.451925   3.559337   1.334603
     7  C    1.477570   2.452002   2.869166   4.095198   2.452089
     8  O    2.359562   3.559335   4.095137   5.321169   3.559471
     9  H    1.084164   2.108664   3.446945   4.461744   3.939369
    10  H    2.108741   1.084221   2.202073   2.620021   3.499615
    11  H    3.939553   3.499803   2.202167   2.620114   1.084348
    12  H    3.499627   3.939360   3.446955   4.461793   2.108802
                    6          7          8          9         10
     6  C    0.000000
     7  C    1.477624   0.000000
     8  O    2.359682   1.225971   0.000000
     9  H    3.499643   2.202035   2.619991   0.000000
    10  H    3.939386   3.447038   4.461783   2.451134   0.000000
    11  H    2.108827   3.447201   4.461989   5.023048   4.384375
    12  H    1.084195   2.202052   2.620085   4.384195   5.022909
                   11         12
    11  H    0.000000
    12  H    2.451257   0.000000
 Stoichiometry    C6H4O2
 Framework group  C1[X(C6H4O2)]
 Deg. of freedom    30
 Full point group                 C1      NOp   1
 Largest Abelian subgroup         C1      NOp   1
 Largest concise Abelian subgroup C1      NOp   1
                         Standard orientation:                         
 ---------------------------------------------------------------------
 Center     Atomic      Atomic             Coordinates (Angstroms)
 Number     Number       Type             X           Y           Z
 ---------------------------------------------------------------------
      1          6           0        0.667323   -1.262682   -0.000025
      2          6           0       -0.667224   -1.262719   -0.000124
      3          6           0       -1.434542   -0.000012   -0.000155
      4          8           0       -2.660575   -0.000076    0.000094
      5          6           0       -0.667394    1.262679   -0.000210
      6          6           0        0.667209    1.262753    0.000047
      7          6           0        1.434623    0.000038    0.000109
      8          8           0        2.660595    0.000013    0.000028
      9          1           0        1.225605   -2.192055    0.000331
     10          1           0       -1.225530   -2.192143    0.000234
     11          1           0       -1.225730    2.192232    0.001294
     12          1           0        1.225526    2.192140   -0.000682
 ---------------------------------------------------------------------
 Rotational constants (GHZ):      5.2695730      1.6664443      1.2660652
 Standard basis: 6-31+G(d) (6D, 7F)
 There are   160 symmetry adapted cartesian basis functions of A   symmetry.
 There are   160 symmetry adapted basis functions of A   symmetry.
   160 basis functions,   272 primitive gaussians,   160 cartesian basis functions
    28 alpha electrons       28 beta electrons
       nuclear repulsion energy       323.2577074561 Hartrees.
 NAtoms=   12 NActive=   12 NUniq=   12 SFac= 1.00D+00 NAtFMM=   60 NAOKFM=F Big=F
 Integral buffers will be    131072 words long.
 Raffenetti 2 integral format.
 Two-electron integral symmetry is turned on.
 One-electron integrals computed using PRISM.
 NBasis=   160 RedAO= T EigKep=  5.31D-06  NBF=   160
 NBsUse=   160 1.00D-06 EigRej= -1.00D+00 NBFU=   160
 ExpMin= 4.38D-02 ExpMax= 5.48D+03 ExpMxC= 8.25D+02 IAcc=2 IRadAn=         4 AccDes= 0.00D+00
 Harris functional with IExCor= 1009 and IRadAn=       4 diagonalized for initial guess.
 HarFok:  IExCor= 1009 AccDes= 0.00D+00 IRadAn=         4 IDoV= 1 UseB2=F ITyADJ=14
 ICtDFT=  3500011 ScaDFX=  1.000000  1.000000  1.000000  1.000000
 FoFCou: FMM=F IPFlag=           0 FMFlag=      100000 FMFlg1=           0
         NFxFlg=           0 DoJE=T BraDBF=F KetDBF=T FulRan=T
         wScrn=  0.000000 ICntrl=     500 IOpCl=  0 I1Cent=   200000004 NGrid=           0
         NMat0=    1 NMatS0=      1 NMatT0=    0 NMatD0=    1 NMtDS0=    0 NMtDT0=    0
 Petite list used in FoFCou.
 Requested convergence on RMS density matrix=1.00D-08 within 128 cycles.
 Requested convergence on MAX density matrix=1.00D-06.
 Requested convergence on             energy=1.00D-06.
 No special actions if energy rises.
 SCF Done:  E(RM062X) =  -381.304684622     A.U. after   12 cycles
            NFock= 12  Conv=0.50D-08     -V/T= 2.0083

 **********************************************************************

            Population analysis using the SCF density.

 **********************************************************************

 Orbital symmetries:
       Occupied  (A) (A) (A) (A) (A) (A) (A) (A) (A) (A) (A) (A)
                 (A) (A) (A) (A) (A) (A) (A) (A) (A) (A) (A) (A)
                 (A) (A) (A) (A)
       Virtual   (A) (A) (A) (A) (A) (A) (A) (A) (A) (A) (A) (A)
                 (A) (A) (A) (A) (A) (A) (A) (A) (A) (A) (A) (A)
                 (A) (A) (A) (A) (A) (A) (A) (A) (A) (A) (A) (A)
                 (A) (A) (A) (A) (A) (A) (A) (A) (A) (A) (A) (A)
                 (A) (A) (A) (A) (A) (A) (A) (A) (A) (A) (A) (A)
                 (A) (A) (A) (A) (A) (A) (A) (A) (A) (A) (A) (A)
                 (A) (A) (A) (A) (A) (A) (A) (A) (A) (A) (A) (A)
                 (A) (A) (A) (A) (A) (A) (A) (A) (A) (A) (A) (A)
                 (A) (A) (A) (A) (A) (A) (A) (A) (A) (A) (A) (A)
                 (A) (A) (A) (A) (A) (A) (A) (A) (A) (A) (A) (A)
                 (A) (A) (A) (A) (A) (A) (A) (A) (A) (A) (A) (A)
 The electronic state is 1-A.
 Alpha  occ. eigenvalues --  -19.67414 -19.67413 -10.67328 -10.67326 -10.60070
 Alpha  occ. eigenvalues --  -10.60067 -10.59958 -10.59956  -1.19590  -1.19367
 Alpha  occ. eigenvalues --   -0.97900  -0.90424  -0.81238  -0.73656  -0.70432
 Alpha  occ. eigenvalues --   -0.60149  -0.59843  -0.57345  -0.54341  -0.52910
 Alpha  occ. eigenvalues --   -0.52533  -0.49777  -0.49111  -0.48411  -0.37228
 Alpha  occ. eigenvalues --   -0.37046  -0.36685  -0.35314
 Alpha virt. eigenvalues --   -0.10493  -0.00214   0.01325   0.02427   0.03625
 Alpha virt. eigenvalues --    0.03860   0.04392   0.05527   0.05865   0.08175
 Alpha virt. eigenvalues --    0.08323   0.08354   0.08589   0.10098   0.12028
 Alpha virt. eigenvalues --    0.13354   0.13778   0.14330   0.14381   0.14745
 Alpha virt. eigenvalues --    0.14770   0.18155   0.18731   0.18797   0.19985
 Alpha virt. eigenvalues --    0.21625   0.22186   0.23210   0.23723   0.24342
 Alpha virt. eigenvalues --    0.24701   0.27159   0.28139   0.30209   0.30316
 Alpha virt. eigenvalues --    0.31057   0.31708   0.32917   0.34263   0.35372
 Alpha virt. eigenvalues --    0.37118   0.39848   0.41195   0.43539   0.45716
 Alpha virt. eigenvalues --    0.47964   0.60122   0.63926   0.64633   0.65927
 Alpha virt. eigenvalues --    0.69407   0.71933   0.72863   0.73366   0.75621
 Alpha virt. eigenvalues --    0.75963   0.83445   0.83890   0.86365   0.88305
 Alpha virt. eigenvalues --    0.92333   0.93433   0.98720   1.00318   1.02982
 Alpha virt. eigenvalues --    1.05307   1.05340   1.07149   1.08468   1.11327
 Alpha virt. eigenvalues --    1.22727   1.24491   1.25814   1.26359   1.28267
 Alpha virt. eigenvalues --    1.30592   1.32364   1.34189   1.37135   1.40466
 Alpha virt. eigenvalues --    1.42018   1.44499   1.45558   1.47883   1.47943
 Alpha virt. eigenvalues --    1.49253   1.50155   1.59064   1.70759   1.72597
 Alpha virt. eigenvalues --    1.79105   1.84886   1.85589   1.89972   1.90838
 Alpha virt. eigenvalues --    1.90876   1.94853   2.00232   2.04880   2.05903
 Alpha virt. eigenvalues --    2.09598   2.11096   2.12031   2.12166   2.15096
 Alpha virt. eigenvalues --    2.17507   2.25243   2.29854   2.34859   2.38138
 Alpha virt. eigenvalues --    2.53661   2.59607   2.59908   2.63244   2.64020
 Alpha virt. eigenvalues --    2.67910   2.75378   2.83696   2.86246   2.98893
 Alpha virt. eigenvalues --    3.16965   3.19780   3.20117   3.34534   4.15893
 Alpha virt. eigenvalues --    4.19161   4.25347   4.25550   4.35739   4.45107
 Alpha virt. eigenvalues --    4.54073   4.87008
          Condensed to atoms (all electrons):
               1          2          3          4          5          6
     1  C    6.169650   0.024736   0.098919  -0.023714   0.291634  -0.885746
     2  C    0.024736   6.169781   0.176705  -0.131995  -0.886012   0.291578
     3  C    0.098919   0.176705   4.964538   0.505245   0.176572   0.099031
     4  O   -0.023714  -0.131995   0.505245   8.260874  -0.132053  -0.023725
     5  C    0.291634  -0.886012   0.176572  -0.132053   6.169683   0.024981
     6  C   -0.885746   0.291578   0.099031  -0.023725   0.024981   6.169300
     7  C    0.176656   0.099064  -0.046154  -0.003516   0.099018   0.176660
     8  O   -0.132012  -0.023754  -0.003508   0.000238  -0.023728  -0.131898
     9  H    0.303293   0.008420  -0.004661  -0.000510  -0.009093   0.007635
    10  H    0.008418   0.303268   0.013980  -0.004151   0.007631  -0.009087
    11  H   -0.009086   0.007623   0.014013  -0.004146   0.303214   0.008432
    12  H    0.007640  -0.009088  -0.004671  -0.000510   0.008422   0.303258
               7          8          9         10         11         12
     1  C    0.176656  -0.132012   0.303293   0.008418  -0.009086   0.007640
     2  C    0.099064  -0.023754   0.008420   0.303268   0.007623  -0.009088
     3  C   -0.046154  -0.003508  -0.004661   0.013980   0.014013  -0.004671
     4  O   -0.003516   0.000238  -0.000510  -0.004151  -0.004146  -0.000510
     5  C    0.099018  -0.023728  -0.009093   0.007631   0.303214   0.008422
     6  C    0.176660  -0.131898   0.007635  -0.009087   0.008432   0.303258
     7  C    4.964385   0.505115   0.013953  -0.004669  -0.004664   0.013982
     8  O    0.505115   8.260888  -0.004152  -0.000510  -0.000510  -0.004148
     9  H    0.013953  -0.004152   0.442168  -0.003314   0.000007  -0.000057
    10  H   -0.004669  -0.000510  -0.003314   0.442157  -0.000057   0.000007
    11  H   -0.004664  -0.000510   0.000007  -0.000057   0.442141  -0.003313
    12  H    0.013982  -0.004148  -0.000057   0.000007  -0.003313   0.442162
 Mulliken charges:
               1
     1  C   -0.030388
     2  C   -0.030328
     3  C    0.009992
     4  O   -0.442037
     5  C   -0.030268
     6  C   -0.030418
     7  C    0.010171
     8  O   -0.442022
     9  H    0.246311
    10  H    0.246326
    11  H    0.246346
    12  H    0.246315
 Sum of Mulliken charges =   0.00000
 Mulliken charges with hydrogens summed into heavy atoms:
               1
     1  C    0.215923
     2  C    0.215998
     3  C    0.009992
     4  O   -0.442037
     5  C    0.216078
     6  C    0.215897
     7  C    0.010171
     8  O   -0.442022
 Electronic spatial extent (au):  <R**2>=            866.7780
 Charge=              0.0000 electrons
 Dipole moment (field-independent basis, Debye):
    X=              0.0005    Y=              0.0003    Z=              0.0007  Tot=              0.0009
 Quadrupole moment (field-independent basis, Debye-Ang):
   XX=            -63.5968   YY=            -37.2005   ZZ=            -46.1021
   XY=             -0.0005   XZ=             -0.0013   YZ=              0.0001
 Traceless Quadrupole moment (field-independent basis, Debye-Ang):
   XX=            -14.6303   YY=             11.7659   ZZ=              2.8644
   XY=             -0.0005   XZ=             -0.0013   YZ=              0.0001
 Octapole moment (field-independent basis, Debye-Ang**2):
  XXX=              0.0045  YYY=              0.0005  ZZZ=              0.0019  XYY=             -0.0008
  XXY=              0.0010  XXZ=             -0.0005  XZZ=              0.0008  YZZ=             -0.0006
  YYZ=              0.0071  XYZ=             -0.0062
 Hexadecapole moment (field-independent basis, Debye-Ang**3):
 XXXX=           -922.6632 YYYY=           -271.9609 ZZZZ=            -48.6626 XXXY=             -0.0040
 XXXZ=             -0.0030 YYYX=             -0.0008 YYYZ=              0.0008 ZZZX=             -0.0021
 ZZZY=              0.0001 XXYY=           -162.6521 XXZZ=           -126.8442 YYZZ=            -67.9083
 XXYZ=              0.0003 YYXZ=             -0.0158 ZZXY=              0.0007
 N-N= 3.232577074561D+02 E-N=-1.535138455028D+03  KE= 3.781647788635D+02
 Calling FoFJK, ICntrl=      2127 FMM=F ISym2X=0 I1Cent= 0 IOpClX= 0 NMat=1 NMatS=1 NMatT=0.
 ***** Axes restored to original set *****
 -------------------------------------------------------------------
 Center     Atomic                   Forces (Hartrees/Bohr)
 Number     Number              X              Y              Z
 -------------------------------------------------------------------
      1        6          -0.000073235    0.004241425    0.002280904
      2        6          -0.000633848    0.004309744    0.002081431
      3        6           0.019509293   -0.001495923    0.006268201
      4        8          -0.012557169    0.000984750   -0.004014807
      5        6          -0.000012017   -0.004444002   -0.002212782
      6        6           0.000685743   -0.004251816   -0.002125988
      7        6          -0.019361385    0.001537684   -0.006251759
      8        8           0.012492237   -0.000995358    0.003997829
      9        1          -0.003492983   -0.000240660   -0.001398318
     10        1           0.003567558   -0.000816236    0.000829807
     11        1           0.003456186    0.000392367    0.001348610
     12        1          -0.003580381    0.000778025   -0.000803127
 -------------------------------------------------------------------
 Cartesian Forces:  Max     0.019509293 RMS     0.006093613

 GradGradGradGradGradGradGradGradGradGradGradGradGradGradGradGradGradGrad
 Berny optimization.
 FormGI is forming the generalized inverse of G from B-inverse, IUseBI=4.
 Internal  Forces:  Max     0.013220093 RMS     0.003543540
 Search for a local minimum.
 Step number   1 out of a maximum of   64
 All quantities printed in internal units (Hartrees-Bohrs-Radians)
 Mixed Optimization -- RFO/linear search
 Second derivative matrix not updated -- first step.
 ITU=  0
     Eigenvalues ---    0.01062   0.01063   0.01063   0.01721   0.01726
     Eigenvalues ---    0.02035   0.02039   0.02303   0.02350   0.16000
     Eigenvalues ---    0.16000   0.16000   0.16000   0.22000   0.22874
     Eigenvalues ---    0.24000   0.25000   0.25000   0.33030   0.33944
     Eigenvalues ---    0.34846   0.34855   0.35474   0.35489   0.35492
     Eigenvalues ---    0.35496   0.54595   0.58438   0.92760   0.92786
 RFO step:  Lambda=-1.54664769D-03 EMin= 1.06229728D-02
 Linear search not attempted -- first point.
 Iteration  1 RMS(Cart)=  0.01396719 RMS(Int)=  0.00014353
 Iteration  2 RMS(Cart)=  0.00014224 RMS(Int)=  0.00000709
 Iteration  3 RMS(Cart)=  0.00000001 RMS(Int)=  0.00000709
 Variable       Old X    -DE/DX   Delta X   Delta X   Delta X     New X
                                 (Linear)    (Quad)   (Total)
    R1        2.52193   0.00705   0.00000   0.01204   0.01204   2.53397
    R2        2.79220   0.00549   0.00000   0.01570   0.01570   2.80790
    R3        2.04877   0.00142   0.00000   0.00398   0.00398   2.05275
    R4        2.79220   0.00549   0.00000   0.01568   0.01568   2.80788
    R5        2.04888   0.00138   0.00000   0.00386   0.00386   2.05274
    R6        2.31686  -0.01322   0.00000  -0.01423  -0.01423   2.30264
    R7        2.79201   0.00554   0.00000   0.01583   0.01583   2.80783
    R8        2.52203   0.00699   0.00000   0.01193   0.01193   2.53397
    R9        2.04912   0.00129   0.00000   0.00361   0.00361   2.05273
   R10        2.79230   0.00546   0.00000   0.01560   0.01560   2.80791
   R11        2.04883   0.00140   0.00000   0.00391   0.00391   2.05275
   R12        2.31675  -0.01315   0.00000  -0.01415  -0.01415   2.30260
    A1        2.11685  -0.00023   0.00000  -0.00094  -0.00094   2.11591
    A2        2.11171   0.00369   0.00000   0.02262   0.02262   2.13433
    A3        2.05462  -0.00346   0.00000  -0.02168  -0.02168   2.03294
    A4        2.11681  -0.00022   0.00000  -0.00091  -0.00091   2.11591
    A5        2.11176   0.00369   0.00000   0.02259   0.02259   2.13435
    A6        2.05461  -0.00346   0.00000  -0.02169  -0.02169   2.03293
    A7        2.11679  -0.00022   0.00000  -0.00091  -0.00091   2.11588
    A8        2.04959   0.00043   0.00000   0.00178   0.00178   2.05138
    A9        2.11680  -0.00021   0.00000  -0.00088  -0.00088   2.11593
   A10        2.11680  -0.00021   0.00000  -0.00089  -0.00089   2.11592
   A11        2.05474  -0.00348   0.00000  -0.02176  -0.02176   2.03298
   A12        2.11164   0.00369   0.00000   0.02265   0.02265   2.13428
   A13        2.11684  -0.00022   0.00000  -0.00093  -0.00093   2.11591
   A14        2.11181   0.00368   0.00000   0.02254   0.02254   2.13435
   A15        2.05453  -0.00346   0.00000  -0.02161  -0.02161   2.03292
   A16        2.04946   0.00046   0.00000   0.00189   0.00189   2.05135
   A17        2.11681  -0.00021   0.00000  -0.00088  -0.00088   2.11593
   A18        2.11692  -0.00025   0.00000  -0.00101  -0.00101   2.11590
    D1        0.00004  -0.00001   0.00000  -0.00039  -0.00040  -0.00035
    D2       -3.14110  -0.00002   0.00000  -0.00079  -0.00080   3.14129
    D3        3.14123   0.00000   0.00000   0.00021   0.00022   3.14145
    D4        0.00009  -0.00001   0.00000  -0.00019  -0.00019  -0.00010
    D5       -0.00006   0.00001   0.00000   0.00052   0.00052   0.00046
    D6       -3.14143  -0.00001   0.00000  -0.00064  -0.00064   3.14112
    D7       -3.14127   0.00000   0.00000  -0.00007  -0.00006  -3.14133
    D8        0.00055  -0.00002   0.00000  -0.00123  -0.00123  -0.00067
    D9       -3.14127  -0.00002   0.00000  -0.00067  -0.00066   3.14126
   D10        0.00010   0.00000   0.00000   0.00000   0.00000   0.00011
   D11       -0.00011   0.00000   0.00000  -0.00027  -0.00027  -0.00038
   D12        3.14126   0.00001   0.00000   0.00040   0.00039  -3.14153
   D13       -0.00024   0.00001   0.00000   0.00027   0.00027   0.00002
   D14       -3.14000  -0.00004   0.00000  -0.00157  -0.00155  -3.14155
   D15        3.14113   0.00002   0.00000   0.00094   0.00093  -3.14113
   D16        0.00137  -0.00003   0.00000  -0.00091  -0.00089   0.00048
   D17        0.00023   0.00000   0.00000  -0.00013  -0.00013   0.00010
   D18        3.14085   0.00002   0.00000   0.00065   0.00065   3.14151
   D19        3.13993   0.00004   0.00000   0.00173   0.00175  -3.14151
   D20       -0.00264   0.00006   0.00000   0.00251   0.00253  -0.00011
   D21       -0.00008  -0.00001   0.00000  -0.00025  -0.00025  -0.00033
   D22        3.14129   0.00001   0.00000   0.00091   0.00091  -3.14099
   D23       -3.14073  -0.00003   0.00000  -0.00103  -0.00102   3.14144
   D24        0.00064  -0.00001   0.00000   0.00013   0.00015   0.00078
         Item               Value     Threshold  Converged?
 Maximum Force            0.013220     0.000450     NO 
 RMS     Force            0.003544     0.000300     NO 
 Maximum Displacement     0.045863     0.001800     NO 
 RMS     Displacement     0.013936     0.001200     NO 
 Predicted change in Energy=-7.777235D-04
 GradGradGradGradGradGradGradGradGradGradGradGradGradGradGradGradGradGrad

                          Input orientation:                          
 ---------------------------------------------------------------------
 Center     Atomic      Atomic             Coordinates (Angstroms)
 Number     Number       Type             X           Y           Z
 ---------------------------------------------------------------------
      1          6           0       -0.730801    1.181154    0.366809
      2          6           0        0.543095    1.081890    0.773500
      3          6           0        1.368801   -0.106774    0.437226
      4          8           0        2.526504   -0.196794    0.806509
      5          6           0        0.730706   -1.181294   -0.366494
      6          6           0       -0.543142   -1.081982   -0.773323
      7          6           0       -1.368830    0.106754   -0.437188
      8          8           0       -2.526558    0.196712   -0.806340
      9          1           0       -1.349879    2.041964    0.602871
     10          1           0        1.026577    1.856816    1.361465
     11          1           0        1.349697   -2.042191   -0.602426
     12          1           0       -1.026570   -1.856854   -1.361409
 ---------------------------------------------------------------------
                    Distance matrix (angstroms):
                    1          2          3          4          5
     1  C    0.000000
     2  C    1.340918   0.000000
     3  C    2.464152   1.485864   0.000000
     4  O    3.564002   2.360092   1.218503   0.000000
     5  C    2.873133   2.541021   1.485842   2.360099   0.000000
     6  C    2.541043   2.873136   2.464140   3.564008   1.340918
     7  C    1.485876   2.464166   2.881808   4.100311   2.464166
     8  O    2.360115   3.564015   4.100290   5.318793   3.564005
     9  H    1.086268   2.129368   3.469256   4.481055   3.957006
    10  H    2.129375   1.086264   2.197048   2.602896   3.507634
    11  H    3.956999   3.507658   2.197062   2.602972   1.086259
    12  H    3.507664   3.957006   3.469246   4.481071   2.129379
                    6          7          8          9         10
     6  C    0.000000
     7  C    1.485880   0.000000
     8  O    2.360103   1.218482   0.000000
     9  H    3.507674   2.197071   2.602960   0.000000
    10  H    3.957003   3.469272   4.481082   2.501458   0.000000
    11  H    2.129330   3.469245   4.481029   5.041902   4.377617
    12  H    1.086266   2.197062   2.602921   4.377637   5.041904
                   11         12
    11  H    0.000000
    12  H    2.501409   0.000000
 Stoichiometry    C6H4O2
 Framework group  C1[X(C6H4O2)]
 Deg. of freedom    30
 Full point group                 C1      NOp   1
 Largest Abelian subgroup         C1      NOp   1
 Largest concise Abelian subgroup C1      NOp   1
                         Standard orientation:                         
 ---------------------------------------------------------------------
 Center     Atomic      Atomic             Coordinates (Angstroms)
 Number     Number       Type             X           Y           Z
 ---------------------------------------------------------------------
      1          6           0        0.670448   -1.270526    0.000021
      2          6           0       -0.670470   -1.270510    0.000051
      3          6           0       -1.440894    0.000017    0.000178
      4          8           0       -2.659397    0.000002   -0.000143
      5          6           0       -0.670458    1.270510    0.000127
      6          6           0        0.670460    1.270517   -0.000055
      7          6           0        1.440914   -0.000011   -0.000337
      8          8           0        2.659396   -0.000002    0.000131
      9          1           0        1.250700   -2.188832    0.000061
     10          1           0       -1.250758   -2.188789    0.000028
     11          1           0       -1.250673    2.188829    0.000262
     12          1           0        1.250736    2.188805   -0.000174
 ---------------------------------------------------------------------
 Rotational constants (GHZ):      5.2210903      1.6626698      1.2610767
 Standard basis: 6-31+G(d) (6D, 7F)
 There are   160 symmetry adapted cartesian basis functions of A   symmetry.
 There are   160 symmetry adapted basis functions of A   symmetry.
   160 basis functions,   272 primitive gaussians,   160 cartesian basis functions
    28 alpha electrons       28 beta electrons
       nuclear repulsion energy       322.5813937689 Hartrees.
 NAtoms=   12 NActive=   12 NUniq=   12 SFac= 1.00D+00 NAtFMM=   60 NAOKFM=F Big=F
 Integral buffers will be    131072 words long.
 Raffenetti 2 integral format.
 Two-electron integral symmetry is turned on.
 One-electron integrals computed using PRISM.
 NBasis=   160 RedAO= T EigKep=  5.58D-06  NBF=   160
 NBsUse=   160 1.00D-06 EigRej= -1.00D+00 NBFU=   160
 Initial guess from the checkpoint file:  "/srv/scratch/z5358697/gauss/Gau-2405739.chk"
 B after Tr=     0.000000    0.000000    0.000000
         Rot=    1.000000    0.000000    0.000000    0.000015 Ang=   0.00 deg.
 ExpMin= 4.38D-02 ExpMax= 5.48D+03 ExpMxC= 8.25D+02 IAcc=2 IRadAn=         4 AccDes= 0.00D+00
 Harris functional with IExCor= 1009 and IRadAn=       4 diagonalized for initial guess.
 HarFok:  IExCor= 1009 AccDes= 0.00D+00 IRadAn=         4 IDoV= 1 UseB2=F ITyADJ=14
 ICtDFT=  3500011 ScaDFX=  1.000000  1.000000  1.000000  1.000000
 FoFCou: FMM=F IPFlag=           0 FMFlag=      100000 FMFlg1=           0
         NFxFlg=           0 DoJE=T BraDBF=F KetDBF=T FulRan=T
         wScrn=  0.000000 ICntrl=     500 IOpCl=  0 I1Cent=   200000004 NGrid=           0
         NMat0=    1 NMatS0=      1 NMatT0=    0 NMatD0=    1 NMtDS0=    0 NMtDT0=    0
 Petite list used in FoFCou.
 Requested convergence on RMS density matrix=1.00D-08 within 128 cycles.
 Requested convergence on MAX density matrix=1.00D-06.
 Requested convergence on             energy=1.00D-06.
 No special actions if energy rises.
 SCF Done:  E(RM062X) =  -381.305611291     A.U. after   11 cycles
            NFock= 11  Conv=0.24D-08     -V/T= 2.0085
 Calling FoFJK, ICntrl=      2127 FMM=F ISym2X=0 I1Cent= 0 IOpClX= 0 NMat=1 NMatS=1 NMatT=0.
 ***** Axes restored to original set *****
 -------------------------------------------------------------------
 Center     Atomic                   Forces (Hartrees/Bohr)
 Number     Number              X              Y              Z
 -------------------------------------------------------------------
      1        6           0.003923023    0.001202140    0.002005946
      2        6          -0.004170001    0.001801530   -0.000524591
      3        6           0.004658922   -0.000323848    0.001436142
      4        8          -0.003051670    0.000224812   -0.000955731
      5        6          -0.003929026   -0.001200218   -0.002037622
      6        6           0.004169531   -0.001781748    0.000500420
      7        6          -0.004638382    0.000299176   -0.001365856
      8        8           0.003032831   -0.000213942    0.000929138
      9        1          -0.000792246   -0.000440641   -0.000525545
     10        1           0.000874284   -0.000574235    0.000020828
     11        1           0.000799847    0.000437722    0.000525851
     12        1          -0.000877112    0.000569253   -0.000008980
 -------------------------------------------------------------------
 Cartesian Forces:  Max     0.004658922 RMS     0.002079855

 GradGradGradGradGradGradGradGradGradGradGradGradGradGradGradGradGradGrad
 Berny optimization.
 Using GEDIIS/GDIIS optimizer.
 FormGI is forming the generalized inverse of G from B-inverse, IUseBI=4.
 Internal  Forces:  Max     0.003205655 RMS     0.000967865
 Search for a local minimum.
 Step number   2 out of a maximum of   64
 All quantities printed in internal units (Hartrees-Bohrs-Radians)
 Mixed Optimization -- En-DIIS/RFO-DIIS
 Update second derivatives using D2CorX and points    1    2
 DE= -9.27D-04 DEPred=-7.78D-04 R= 1.19D+00
 TightC=F SS=  1.41D+00  RLast= 7.54D-02 DXNew= 5.0454D-01 2.2635D-01
 Trust test= 1.19D+00 RLast= 7.54D-02 DXMaxT set to 3.00D-01
 ITU=  1  0
 Use linear search instead of GDIIS.
     Eigenvalues ---    0.01062   0.01063   0.01063   0.01724   0.01742
     Eigenvalues ---    0.02053   0.02063   0.02306   0.02371   0.12849
     Eigenvalues ---    0.16000   0.16000   0.16000   0.22000   0.22874
     Eigenvalues ---    0.23943   0.25000   0.25000   0.32537   0.33042
     Eigenvalues ---    0.33957   0.34851   0.35477   0.35490   0.35494
     Eigenvalues ---    0.35582   0.54632   0.66532   0.87384   0.92773
 RFO step:  Lambda=-9.97631621D-05 EMin= 1.06240048D-02
 Quartic linear search produced a step of  0.25248.
 Iteration  1 RMS(Cart)=  0.00499207 RMS(Int)=  0.00002976
 Iteration  2 RMS(Cart)=  0.00002926 RMS(Int)=  0.00000305
 Iteration  3 RMS(Cart)=  0.00000000 RMS(Int)=  0.00000305
 Variable       Old X    -DE/DX   Delta X   Delta X   Delta X     New X
                                 (Linear)    (Quad)   (Total)
    R1        2.53397  -0.00254   0.00304  -0.00770  -0.00466   2.52931
    R2        2.80790   0.00138   0.00396   0.00200   0.00596   2.81386
    R3        2.05275  -0.00001   0.00100  -0.00079   0.00021   2.05296
    R4        2.80788   0.00139   0.00396   0.00203   0.00599   2.81386
    R5        2.05274  -0.00001   0.00097  -0.00076   0.00022   2.05296
    R6        2.30264  -0.00321  -0.00359  -0.00165  -0.00524   2.29740
    R7        2.80783   0.00139   0.00400   0.00203   0.00603   2.81386
    R8        2.53397  -0.00253   0.00301  -0.00768  -0.00466   2.52930
    R9        2.05273  -0.00001   0.00091  -0.00070   0.00021   2.05294
   R10        2.80791   0.00138   0.00394   0.00202   0.00596   2.81387
   R11        2.05275  -0.00001   0.00099  -0.00078   0.00021   2.05296
   R12        2.30260  -0.00318  -0.00357  -0.00162  -0.00520   2.29740
    A1        2.11591  -0.00015  -0.00024  -0.00063  -0.00086   2.11505
    A2        2.13433   0.00115   0.00571   0.00456   0.01028   2.14461
    A3        2.03294  -0.00100  -0.00547  -0.00394  -0.00941   2.02353
    A4        2.11591  -0.00015  -0.00023  -0.00062  -0.00085   2.11506
    A5        2.13435   0.00115   0.00570   0.00455   0.01025   2.14461
    A6        2.03293  -0.00100  -0.00548  -0.00393  -0.00941   2.02352
    A7        2.11588  -0.00015  -0.00023  -0.00060  -0.00083   2.11505
    A8        2.05138   0.00030   0.00045   0.00125   0.00170   2.05308
    A9        2.11593  -0.00016  -0.00022  -0.00065  -0.00087   2.11506
   A10        2.11592  -0.00016  -0.00022  -0.00065  -0.00087   2.11505
   A11        2.03298  -0.00100  -0.00549  -0.00396  -0.00945   2.02353
   A12        2.13428   0.00116   0.00572   0.00460   0.01032   2.14460
   A13        2.11591  -0.00015  -0.00024  -0.00061  -0.00085   2.11506
   A14        2.13435   0.00115   0.00569   0.00455   0.01025   2.14460
   A15        2.03292  -0.00100  -0.00546  -0.00394  -0.00940   2.02353
   A16        2.05135   0.00031   0.00048   0.00125   0.00173   2.05308
   A17        2.11593  -0.00016  -0.00022  -0.00065  -0.00087   2.11506
   A18        2.11590  -0.00015  -0.00026  -0.00060  -0.00086   2.11505
    D1       -0.00035   0.00002  -0.00010   0.00116   0.00106   0.00070
    D2        3.14129   0.00001  -0.00020   0.00100   0.00079  -3.14111
    D3        3.14145   0.00001   0.00005   0.00047   0.00052  -3.14122
    D4       -0.00010   0.00001  -0.00005   0.00031   0.00026   0.00016
    D5        0.00046  -0.00002   0.00013  -0.00179  -0.00166  -0.00120
    D6        3.14112   0.00002  -0.00016   0.00218   0.00203  -3.14004
    D7       -3.14133  -0.00001  -0.00002  -0.00114  -0.00116   3.14070
    D8       -0.00067   0.00002  -0.00031   0.00284   0.00253   0.00185
    D9        3.14126   0.00001  -0.00017   0.00113   0.00097  -3.14096
   D10        0.00011  -0.00001   0.00000  -0.00030  -0.00030  -0.00019
   D11       -0.00038   0.00001  -0.00007   0.00129   0.00122   0.00084
   D12       -3.14153  -0.00001   0.00010  -0.00015  -0.00006  -3.14158
   D13        0.00002   0.00001   0.00007   0.00014   0.00021   0.00024
   D14       -3.14155   0.00000  -0.00039   0.00025  -0.00014   3.14150
   D15       -3.14113  -0.00001   0.00023  -0.00129  -0.00106   3.14100
   D16        0.00048  -0.00001  -0.00022  -0.00119  -0.00141  -0.00092
   D17        0.00010  -0.00001  -0.00003  -0.00085  -0.00088  -0.00079
   D18        3.14151   0.00000   0.00016  -0.00041  -0.00024   3.14127
   D19       -3.14151  -0.00001   0.00044  -0.00096  -0.00051   3.14116
   D20       -0.00011   0.00000   0.00064  -0.00051   0.00013   0.00003
   D21       -0.00033   0.00002  -0.00006   0.00163   0.00157   0.00124
   D22       -3.14099  -0.00002   0.00023  -0.00234  -0.00212   3.14009
   D23        3.14144   0.00001  -0.00026   0.00121   0.00097  -3.14078
   D24        0.00078  -0.00003   0.00004  -0.00276  -0.00272  -0.00194
         Item               Value     Threshold  Converged?
 Maximum Force            0.003206     0.000450     NO 
 RMS     Force            0.000968     0.000300     NO 
 Maximum Displacement     0.015210     0.001800     NO 
 RMS     Displacement     0.004986     0.001200     NO 
 Predicted change in Energy=-8.828562D-05
 GradGradGradGradGradGradGradGradGradGradGradGradGradGradGradGradGradGrad

                          Input orientation:                          
 ---------------------------------------------------------------------
 Center     Atomic      Atomic             Coordinates (Angstroms)
 Number     Number       Type             X           Y           Z
 ---------------------------------------------------------------------
      1          6           0       -0.729902    1.184027    0.368755
      2          6           0        0.541691    1.085005    0.774586
      3          6           0        1.368270   -0.106561    0.436720
      4          8           0        2.523070   -0.196793    0.805903
      5          6           0        0.729809   -1.184166   -0.368480
      6          6           0       -0.541766   -1.085122   -0.774353
      7          6           0       -1.368557    0.106135   -0.435910
      8          8           0       -2.523069    0.196792   -0.805892
      9          1           0       -1.357459    2.040385    0.599077
     10          1           0        1.034626    1.854036    1.362652
     11          1           0        1.357489   -2.040320   -0.599175
     12          1           0       -1.034602   -1.854017   -1.362683
 ---------------------------------------------------------------------
                    Distance matrix (angstroms):
                    1          2          3          4          5
     1  C    0.000000
     2  C    1.338452   0.000000
     3  C    2.464258   1.489032   0.000000
     4  O    3.560842   2.360053   1.215731   0.000000
     5  C    2.877952   2.547769   1.489031   2.360057   0.000000
     6  C    2.547769   2.877940   2.464248   3.560837   1.338449
     7  C    1.489032   2.464251   2.880442   4.096172   2.464257
     8  O    2.360058   3.560840   4.096173   5.311903   3.560841
     9  H    1.086381   2.133149   3.473519   4.483999   3.961134
    10  H    2.133144   1.086378   2.193766   2.594482   3.510043
    11  H    3.961125   3.510043   2.193768   2.594498   1.086372
    12  H    3.510047   3.961120   3.473507   4.483993   2.133140
                    6          7          8          9         10
     6  C    0.000000
     7  C    1.489033   0.000000
     8  O    2.360055   1.215732   0.000000
     9  H    3.510051   2.193773   2.594498   0.000000
    10  H    3.961118   3.473510   4.483998   2.517905   0.000000
    11  H    2.133135   3.473508   4.483987   5.045682   4.372530
    12  H    1.086379   2.193771   2.594489   4.372540   5.045673
                   11         12
    11  H    0.000000
    12  H    2.517887   0.000000
 Stoichiometry    C6H4O2
 Framework group  C1[X(C6H4O2)]
 Deg. of freedom    30
 Full point group                 C1      NOp   1
 Largest Abelian subgroup         C1      NOp   1
 Largest concise Abelian subgroup C1      NOp   1
                         Standard orientation:                         
 ---------------------------------------------------------------------
 Center     Atomic      Atomic             Coordinates (Angstroms)
 Number     Number       Type             X           Y           Z
 ---------------------------------------------------------------------
      1          6           0        0.669227   -1.273887    0.000079
      2          6           0       -0.669224   -1.273882   -0.000112
      3          6           0       -1.440221    0.000002   -0.000337
      4          8           0       -2.655951   -0.000003    0.000152
      5          6           0       -0.669227    1.273886   -0.000087
      6          6           0        0.669222    1.273882    0.000054
      7          6           0        1.440221   -0.000002    0.000968
      8          8           0        2.655952    0.000004   -0.000472
      9          1           0        1.258952   -2.186274   -0.000098
     10          1           0       -1.258953   -2.186262   -0.000311
     11          1           0       -1.258941    2.186268   -0.000352
     12          1           0        1.258946    2.186266   -0.000060
 ---------------------------------------------------------------------
 Rotational constants (GHZ):      5.2013951      1.6661179      1.2619034
 Standard basis: 6-31+G(d) (6D, 7F)
 There are   160 symmetry adapted cartesian basis functions of A   symmetry.
 There are   160 symmetry adapted basis functions of A   symmetry.
   160 basis functions,   272 primitive gaussians,   160 cartesian basis functions
    28 alpha electrons       28 beta electrons
       nuclear repulsion energy       322.6091134250 Hartrees.
 NAtoms=   12 NActive=   12 NUniq=   12 SFac= 1.00D+00 NAtFMM=   60 NAOKFM=F Big=F
 Integral buffers will be    131072 words long.
 Raffenetti 2 integral format.
 Two-electron integral symmetry is turned on.
 One-electron integrals computed using PRISM.
 NBasis=   160 RedAO= T EigKep=  5.62D-06  NBF=   160
 NBsUse=   160 1.00D-06 EigRej= -1.00D+00 NBFU=   160
 Initial guess from the checkpoint file:  "/srv/scratch/z5358697/gauss/Gau-2405739.chk"
 B after Tr=     0.000000    0.000000    0.000000
         Rot=    1.000000    0.000000    0.000000   -0.000002 Ang=   0.00 deg.
 Requested convergence on RMS density matrix=1.00D-08 within 128 cycles.
 Requested convergence on MAX density matrix=1.00D-06.
 Requested convergence on             energy=1.00D-06.
 No special actions if energy rises.
 SCF Done:  E(RM062X) =  -381.305703658     A.U. after   10 cycles
            NFock= 10  Conv=0.62D-08     -V/T= 2.0084
 Calling FoFJK, ICntrl=      2127 FMM=F ISym2X=0 I1Cent= 0 IOpClX= 0 NMat=1 NMatS=1 NMatT=0.
 ***** Axes restored to original set *****
 -------------------------------------------------------------------
 Center     Atomic                   Forces (Hartrees/Bohr)
 Number     Number              X              Y              Z
 -------------------------------------------------------------------
      1        6           0.000503306   -0.000022319    0.000306897
      2        6          -0.000540688    0.000129467   -0.000167415
      3        6          -0.000480709   -0.000027396   -0.000023541
      4        8           0.000604242   -0.000027329    0.000152915
      5        6          -0.000526338   -0.000004482   -0.000247039
      6        6           0.000509985   -0.000170574    0.000243230
      7        6           0.000545787    0.000125468   -0.000160899
      8        8          -0.000625848   -0.000007608   -0.000086914
      9        1          -0.000083996   -0.000084685   -0.000063616
     10        1           0.000102524   -0.000083133   -0.000031081
     11        1           0.000089888    0.000081842    0.000058402
     12        1          -0.000098152    0.000090750    0.000019062
 -------------------------------------------------------------------
 Cartesian Forces:  Max     0.000625848 RMS     0.000279139

 GradGradGradGradGradGradGradGradGradGradGradGradGradGradGradGradGradGrad
 Berny optimization.
 Using GEDIIS/GDIIS optimizer.
 FormGI is forming the generalized inverse of G from B-inverse, IUseBI=4.
 Internal  Forces:  Max     0.000622422 RMS     0.000153977
 Search for a local minimum.
 Step number   3 out of a maximum of   64
 All quantities printed in internal units (Hartrees-Bohrs-Radians)
 Mixed Optimization -- En-DIIS/RFO-DIIS
 Swapping is turned off.
 Update second derivatives using D2CorX and points    1    2    3
 DE= -9.24D-05 DEPred=-8.83D-05 R= 1.05D+00
 TightC=F SS=  1.41D+00  RLast= 3.27D-02 DXNew= 5.0454D-01 9.8074D-02
 Trust test= 1.05D+00 RLast= 3.27D-02 DXMaxT set to 3.00D-01
 ITU=  1  1  0
     Eigenvalues ---    0.01063   0.01063   0.01070   0.01727   0.01752
     Eigenvalues ---    0.02060   0.02073   0.02307   0.02381   0.11556
     Eigenvalues ---    0.16000   0.16000   0.16000   0.22000   0.22873
     Eigenvalues ---    0.24022   0.25000   0.25000   0.32744   0.33038
     Eigenvalues ---    0.33964   0.34851   0.35477   0.35490   0.35494
     Eigenvalues ---    0.35589   0.54647   0.65723   0.92772   0.93466
 En-DIIS/RFO-DIIS IScMMF=        0 using points:     3    2
 RFO step:  Lambda=-1.89583702D-06.
 DidBck=F Rises=F RFO-DIIS coefs:    1.04175   -0.04175
 Iteration  1 RMS(Cart)=  0.00121689 RMS(Int)=  0.00000450
 Iteration  2 RMS(Cart)=  0.00000335 RMS(Int)=  0.00000323
 Iteration  3 RMS(Cart)=  0.00000000 RMS(Int)=  0.00000323
 Variable       Old X    -DE/DX   Delta X   Delta X   Delta X     New X
                                 (Linear)    (Quad)   (Total)
    R1        2.52931  -0.00040  -0.00019  -0.00053  -0.00073   2.52858
    R2        2.81386   0.00003   0.00025   0.00008   0.00033   2.81420
    R3        2.05296  -0.00003   0.00001  -0.00007  -0.00006   2.05290
    R4        2.81386   0.00003   0.00025   0.00009   0.00033   2.81420
    R5        2.05296  -0.00003   0.00001  -0.00006  -0.00005   2.05290
    R6        2.29740   0.00062  -0.00022   0.00069   0.00047   2.29787
    R7        2.81386   0.00003   0.00025   0.00009   0.00034   2.81420
    R8        2.52930  -0.00040  -0.00019  -0.00053  -0.00072   2.52858
    R9        2.05294  -0.00002   0.00001  -0.00005  -0.00004   2.05290
   R10        2.81387   0.00003   0.00025   0.00008   0.00033   2.81420
   R11        2.05296  -0.00003   0.00001  -0.00006  -0.00005   2.05290
   R12        2.29740   0.00062  -0.00022   0.00069   0.00047   2.29787
    A1        2.11505   0.00002  -0.00004   0.00009   0.00006   2.11510
    A2        2.14461   0.00012   0.00043   0.00080   0.00123   2.14584
    A3        2.02353  -0.00014  -0.00039  -0.00089  -0.00129   2.02224
    A4        2.11506   0.00002  -0.00004   0.00009   0.00005   2.11511
    A5        2.14461   0.00013   0.00043   0.00081   0.00123   2.14584
    A6        2.02352  -0.00014  -0.00039  -0.00089  -0.00128   2.02224
    A7        2.11505   0.00002  -0.00003   0.00009   0.00005   2.11510
    A8        2.05308  -0.00004   0.00007  -0.00017  -0.00011   2.05297
    A9        2.11506   0.00002  -0.00004   0.00009   0.00005   2.11511
   A10        2.11505   0.00002  -0.00004   0.00009   0.00005   2.11510
   A11        2.02353  -0.00014  -0.00039  -0.00090  -0.00129   2.02224
   A12        2.14460   0.00013   0.00043   0.00081   0.00124   2.14584
   A13        2.11506   0.00002  -0.00004   0.00008   0.00005   2.11511
   A14        2.14460   0.00013   0.00043   0.00081   0.00124   2.14584
   A15        2.02353  -0.00014  -0.00039  -0.00089  -0.00129   2.02224
   A16        2.05308  -0.00004   0.00007  -0.00017  -0.00011   2.05297
   A17        2.11506   0.00002  -0.00004   0.00010   0.00004   2.11510
   A18        2.11505   0.00002  -0.00004   0.00010   0.00005   2.11510
    D1        0.00070  -0.00004   0.00004  -0.00221  -0.00217  -0.00147
    D2       -3.14111  -0.00003   0.00003  -0.00163  -0.00159   3.14049
    D3       -3.14122  -0.00002   0.00002  -0.00113  -0.00110   3.14086
    D4        0.00016  -0.00002   0.00001  -0.00054  -0.00053  -0.00037
    D5       -0.00120   0.00006  -0.00007   0.00421   0.00414   0.00294
    D6       -3.14004  -0.00005   0.00008  -0.00533  -0.00524   3.13790
    D7        3.14070   0.00004  -0.00005   0.00319   0.00315  -3.13934
    D8        0.00185  -0.00007   0.00011  -0.00634  -0.00624  -0.00438
    D9       -3.14096  -0.00002   0.00004  -0.00179  -0.00175   3.14048
   D10       -0.00019   0.00001  -0.00001   0.00010   0.00009  -0.00010
   D11        0.00084  -0.00002   0.00005  -0.00234  -0.00229  -0.00145
   D12       -3.14158   0.00001   0.00000  -0.00045  -0.00045   3.14115
   D13        0.00024  -0.00001   0.00001  -0.00015  -0.00014   0.00010
   D14        3.14150  -0.00001  -0.00001   0.00053   0.00052  -3.14117
   D15        3.14100   0.00002  -0.00004   0.00175   0.00171  -3.14048
   D16       -0.00092   0.00003  -0.00006   0.00242   0.00236   0.00144
   D17       -0.00079   0.00004  -0.00004   0.00230   0.00226   0.00147
   D18        3.14127   0.00002  -0.00001   0.00108   0.00107  -3.14085
   D19        3.14116   0.00003  -0.00002   0.00158   0.00155  -3.14047
   D20        0.00003   0.00001   0.00001   0.00036   0.00036   0.00039
   D21        0.00124  -0.00006   0.00007  -0.00425  -0.00419  -0.00294
   D22        3.14009   0.00005  -0.00009   0.00529   0.00520  -3.13790
   D23       -3.14078  -0.00004   0.00004  -0.00312  -0.00308   3.13933
   D24       -0.00194   0.00007  -0.00011   0.00642   0.00631   0.00437
         Item               Value     Threshold  Converged?
 Maximum Force            0.000622     0.000450     NO 
 RMS     Force            0.000154     0.000300     YES
 Maximum Displacement     0.005258     0.001800     NO 
 RMS     Displacement     0.001217     0.001200     NO 
 Predicted change in Energy=-2.601136D-06
 GradGradGradGradGradGradGradGradGradGradGradGradGradGradGradGradGradGrad

                          Input orientation:                          
 ---------------------------------------------------------------------
 Center     Atomic      Atomic             Coordinates (Angstroms)
 Number     Number       Type             X           Y           Z
 ---------------------------------------------------------------------
      1          6           0       -0.729626    1.184260    0.368580
      2          6           0        0.541460    1.085060    0.774688
      3          6           0        1.368104   -0.106758    0.437086
      4          8           0        2.523564   -0.196383    0.805167
      5          6           0        0.729602   -1.184296   -0.368501
      6          6           0       -0.541486   -1.085096   -0.774605
      7          6           0       -1.367518    0.107622   -0.438692
      8          8           0       -2.523788    0.196043   -0.804516
      9          1           0       -1.358414    2.039682    0.598873
     10          1           0        1.035291    1.853028    1.363342
     11          1           0        1.358061   -2.040203   -0.597890
     12          1           0       -1.035651   -1.853560   -1.362331
 ---------------------------------------------------------------------
                    Distance matrix (angstroms):
                    1          2          3          4          5
     1  C    0.000000
     2  C    1.338068   0.000000
     3  C    2.464120   1.489209   0.000000
     4  O    3.560903   2.360457   1.215979   0.000000
     5  C    2.877967   2.547991   1.489209   2.360460   0.000000
     6  C    2.547989   2.877961   2.464117   3.560902   1.338068
     7  C    1.489209   2.464117   2.880377   4.096355   2.464121
     8  O    2.360454   3.560897   4.096350   5.312329   3.560898
     9  H    1.086350   2.133480   3.473799   4.484673   3.961018
    10  H    2.133480   1.086350   2.193051   2.593569   3.509710
    11  H    3.961017   3.509711   2.193054   2.593576   1.086350
    12  H    3.509708   3.961012   3.473796   4.484674   2.133479
                    6          7          8          9         10
     6  C    0.000000
     7  C    1.489209   0.000000
     8  O    2.360453   1.215980   0.000000
     9  H    3.509709   2.193053   2.593570   0.000000
    10  H    3.961012   3.473796   4.484669   2.519737   0.000000
    11  H    2.133480   3.473798   4.484668   5.045487   4.371253
    12  H    1.086350   2.193052   2.593565   4.371251   5.045482
                   11         12
    11  H    0.000000
    12  H    2.519735   0.000000
 Stoichiometry    C6H4O2
 Framework group  C1[X(C6H4O2)]
 Deg. of freedom    30
 Full point group                 C1      NOp   1
 Largest Abelian subgroup         C1      NOp   1
 Largest concise Abelian subgroup C1      NOp   1
                         Standard orientation:                         
 ---------------------------------------------------------------------
 Center     Atomic      Atomic             Coordinates (Angstroms)
 Number     Number       Type             X           Y           Z
 ---------------------------------------------------------------------
      1          6           0        0.669035   -1.273996   -0.000142
      2          6           0       -0.669032   -1.273994    0.000301
      3          6           0       -1.440188    0.000001    0.000488
      4          8           0       -2.656166   -0.000001   -0.000269
      5          6           0       -0.669033    1.273997    0.000299
      6          6           0        0.669034    1.273993   -0.000140
      7          6           0        1.440188   -0.000001   -0.002336
      8          8           0        2.656163    0.000001    0.001104
      9          1           0        1.259869   -2.185627    0.000376
     10          1           0       -1.259868   -2.185625    0.000875
     11          1           0       -1.259866    2.185629    0.000859
     12          1           0        1.259870    2.185624    0.000390
 ---------------------------------------------------------------------
 Rotational constants (GHZ):      5.2012737      1.6659476      1.2617991
 Standard basis: 6-31+G(d) (6D, 7F)
 There are   160 symmetry adapted cartesian basis functions of A   symmetry.
 There are   160 symmetry adapted basis functions of A   symmetry.
   160 basis functions,   272 primitive gaussians,   160 cartesian basis functions
    28 alpha electrons       28 beta electrons
       nuclear repulsion energy       322.5971746855 Hartrees.
 NAtoms=   12 NActive=   12 NUniq=   12 SFac= 1.00D+00 NAtFMM=   60 NAOKFM=F Big=F
 Integral buffers will be    131072 words long.
 Raffenetti 2 integral format.
 Two-electron integral symmetry is turned on.
 One-electron integrals computed using PRISM.
 NBasis=   160 RedAO= T EigKep=  5.62D-06  NBF=   160
 NBsUse=   160 1.00D-06 EigRej= -1.00D+00 NBFU=   160
 Initial guess from the checkpoint file:  "/srv/scratch/z5358697/gauss/Gau-2405739.chk"
 B after Tr=     0.000000    0.000000    0.000000
         Rot=    1.000000    0.000000    0.000000    0.000000 Ang=   0.00 deg.
 Requested convergence on RMS density matrix=1.00D-08 within 128 cycles.
 Requested convergence on MAX density matrix=1.00D-06.
 Requested convergence on             energy=1.00D-06.
 No special actions if energy rises.
 SCF Done:  E(RM062X) =  -381.305703257     A.U. after    9 cycles
            NFock=  9  Conv=0.65D-08     -V/T= 2.0084
 Calling FoFJK, ICntrl=      2127 FMM=F ISym2X=0 I1Cent= 0 IOpClX= 0 NMat=1 NMatS=1 NMatT=0.
 ***** Axes restored to original set *****
 -------------------------------------------------------------------
 Center     Atomic                   Forces (Hartrees/Bohr)
 Number     Number              X              Y              Z
 -------------------------------------------------------------------
      1        6           0.000063811    0.000095116   -0.000258747
      2        6           0.000014374   -0.000052542    0.000025995
      3        6          -0.000189858    0.000112312   -0.000254381
      4        8           0.000121490   -0.000038188    0.000095332
      5        6           0.000009057    0.000013544    0.000058080
      6        6           0.000058145    0.000158249   -0.000225920
      7        6          -0.000005269   -0.000401883    0.000796561
      8        8          -0.000053482    0.000140800   -0.000287844
      9        1           0.000005960    0.000007444   -0.000014171
     10        1          -0.000015181   -0.000021282    0.000039506
     11        1          -0.000015119   -0.000021721    0.000040227
     12        1           0.000006071    0.000008149   -0.000014638
 -------------------------------------------------------------------
 Cartesian Forces:  Max     0.000796561 RMS     0.000183504

 GradGradGradGradGradGradGradGradGradGradGradGradGradGradGradGradGradGrad
 Berny optimization.
 Using GEDIIS/GDIIS optimizer.
 FormGI is forming the generalized inverse of G from B-inverse, IUseBI=4.
 Internal  Forces:  Max     0.000159161 RMS     0.000067418
 Search for a local minimum.
 Step number   4 out of a maximum of   64
 All quantities printed in internal units (Hartrees-Bohrs-Radians)
 Mixed Optimization -- En-DIIS/RFO-DIIS
 Swapping is turned off.
 Update second derivatives using D2CorX and points    1    2    3    4
 DE=  4.01D-07 DEPred=-2.60D-06 R=-1.54D-01
 Trust test=-1.54D-01 RLast= 1.54D-02 DXMaxT set to 1.50D-01
 ITU= -1  1  1  0
     Eigenvalues ---    0.01056   0.01063   0.01451   0.01753   0.02061
     Eigenvalues ---    0.02063   0.02247   0.02308   0.03798   0.08591
     Eigenvalues ---    0.16000   0.16000   0.16000   0.22000   0.22872
     Eigenvalues ---    0.24153   0.24999   0.25000   0.32862   0.33038
     Eigenvalues ---    0.33964   0.34851   0.35477   0.35490   0.35494
     Eigenvalues ---    0.35577   0.54647   0.62996   0.88249   0.92773
 En-DIIS/RFO-DIIS IScMMF=        0 using points:     4    3    2
 RFO step:  Lambda=-9.96521406D-07.
 DidBck=T Rises=F RFO-DIIS coefs:    0.43702    0.60588   -0.04290
 Iteration  1 RMS(Cart)=  0.00084477 RMS(Int)=  0.00000180
 Iteration  2 RMS(Cart)=  0.00000195 RMS(Int)=  0.00000020
 Iteration  3 RMS(Cart)=  0.00000000 RMS(Int)=  0.00000020
 Variable       Old X    -DE/DX   Delta X   Delta X   Delta X     New X
                                 (Linear)    (Quad)   (Total)
    R1        2.52858  -0.00003   0.00021  -0.00035  -0.00014   2.52844
    R2        2.81420  -0.00006   0.00007  -0.00010  -0.00003   2.81417
    R3        2.05290   0.00000   0.00004  -0.00005  -0.00001   2.05289
    R4        2.81420  -0.00006   0.00007  -0.00010  -0.00003   2.81417
    R5        2.05290   0.00000   0.00004  -0.00005  -0.00001   2.05289
    R6        2.29787   0.00015  -0.00049   0.00067   0.00018   2.29805
    R7        2.81420  -0.00006   0.00007  -0.00010  -0.00003   2.81417
    R8        2.52858  -0.00003   0.00021  -0.00035  -0.00014   2.52844
    R9        2.05290   0.00000   0.00003  -0.00004  -0.00001   2.05290
   R10        2.81420  -0.00006   0.00007  -0.00010  -0.00003   2.81417
   R11        2.05290   0.00000   0.00004  -0.00005  -0.00001   2.05289
   R12        2.29787   0.00015  -0.00049   0.00067   0.00018   2.29805
    A1        2.11510  -0.00002  -0.00007   0.00005  -0.00002   2.11508
    A2        2.14584   0.00001  -0.00025   0.00047   0.00022   2.14606
    A3        2.02224   0.00001   0.00032  -0.00052  -0.00020   2.02204
    A4        2.11511  -0.00002  -0.00006   0.00004  -0.00002   2.11509
    A5        2.14584   0.00001  -0.00025   0.00048   0.00022   2.14606
    A6        2.02224   0.00001   0.00032  -0.00052  -0.00020   2.02204
    A7        2.11510  -0.00002  -0.00007   0.00005  -0.00002   2.11509
    A8        2.05297   0.00004   0.00013  -0.00009   0.00004   2.05301
    A9        2.11511  -0.00002  -0.00007   0.00004  -0.00002   2.11509
   A10        2.11510  -0.00002  -0.00007   0.00005  -0.00002   2.11509
   A11        2.02224   0.00001   0.00032  -0.00053  -0.00020   2.02204
   A12        2.14584   0.00001  -0.00025   0.00048   0.00022   2.14606
   A13        2.11511  -0.00002  -0.00006   0.00004  -0.00002   2.11509
   A14        2.14584   0.00001  -0.00026   0.00048   0.00022   2.14606
   A15        2.02224   0.00001   0.00032  -0.00052  -0.00020   2.02204
   A16        2.05297   0.00004   0.00013  -0.00009   0.00004   2.05301
   A17        2.11510  -0.00002  -0.00006   0.00005  -0.00001   2.11509
   A18        2.11510  -0.00002  -0.00006   0.00005  -0.00001   2.11509
    D1       -0.00147   0.00008   0.00127   0.00017   0.00144  -0.00003
    D2        3.14049   0.00007   0.00093   0.00021   0.00114  -3.14156
    D3        3.14086   0.00004   0.00064   0.00000   0.00065   3.14151
    D4       -0.00037   0.00004   0.00031   0.00005   0.00035  -0.00001
    D5        0.00294  -0.00014  -0.00240  -0.00097  -0.00337  -0.00043
    D6        3.13790   0.00013   0.00304   0.00097   0.00401  -3.14128
    D7       -3.13934  -0.00011  -0.00182  -0.00082  -0.00264   3.14121
    D8       -0.00438   0.00016   0.00362   0.00112   0.00475   0.00036
    D9        3.14048   0.00003   0.00103  -0.00041   0.00061   3.14109
   D10       -0.00010  -0.00001  -0.00006   0.00067   0.00061   0.00050
   D11       -0.00145   0.00003   0.00134  -0.00045   0.00089  -0.00056
   D12        3.14115   0.00000   0.00025   0.00063   0.00088  -3.14115
   D13        0.00010   0.00001   0.00009  -0.00070  -0.00061  -0.00051
   D14       -3.14117   0.00000  -0.00030  -0.00056  -0.00086   3.14116
   D15       -3.14048  -0.00003  -0.00101   0.00038  -0.00062  -3.14110
   D16        0.00144  -0.00003  -0.00139   0.00052  -0.00087   0.00057
   D17        0.00147  -0.00008  -0.00131  -0.00011  -0.00142   0.00005
   D18       -3.14085  -0.00004  -0.00061  -0.00005  -0.00066  -3.14151
   D19       -3.14047  -0.00007  -0.00090  -0.00026  -0.00116   3.14156
   D20        0.00039  -0.00004  -0.00020  -0.00020  -0.00040   0.00000
   D21       -0.00294   0.00014   0.00242   0.00094   0.00337   0.00042
   D22       -3.13790  -0.00013  -0.00302  -0.00100  -0.00402   3.14127
   D23        3.13933   0.00011   0.00177   0.00088   0.00266  -3.14120
   D24        0.00437  -0.00016  -0.00367  -0.00106  -0.00473  -0.00035
         Item               Value     Threshold  Converged?
 Maximum Force            0.000159     0.000450     YES
 RMS     Force            0.000067     0.000300     YES
 Maximum Displacement     0.004260     0.001800     NO 
 RMS     Displacement     0.000845     0.001200     YES
 Predicted change in Energy=-2.419403D-06
 GradGradGradGradGradGradGradGradGradGradGradGradGradGradGradGradGradGrad

                          Input orientation:                          
 ---------------------------------------------------------------------
 Center     Atomic      Atomic             Coordinates (Angstroms)
 Number     Number       Type             X           Y           Z
 ---------------------------------------------------------------------
      1          6           0       -0.729665    1.184147    0.368803
      2          6           0        0.541443    1.085092    0.774628
      3          6           0        1.367987   -0.106823    0.437198
      4          8           0        2.523431   -0.196617    0.805608
      5          6           0        0.729585   -1.184266   -0.368568
      6          6           0       -0.541526   -1.085216   -0.774382
      7          6           0       -1.368255    0.106425   -0.436438
      8          8           0       -2.523442    0.196599   -0.805562
      9          1           0       -1.358408    2.039794    0.598354
     10          1           0        1.035682    1.853234    1.362700
     11          1           0        1.358431   -2.039763   -0.598401
     12          1           0       -1.035663   -1.853205   -1.362740
 ---------------------------------------------------------------------
                    Distance matrix (angstroms):
                    1          2          3          4          5
     1  C    0.000000
     2  C    1.337991   0.000000
     3  C    2.464027   1.489193   0.000000
     4  O    3.560890   2.360511   1.216075   0.000000
     5  C    2.877934   2.547995   1.489194   2.360513   0.000000
     6  C    2.547995   2.877932   2.464025   3.560890   1.337992
     7  C    1.489193   2.464024   2.880232   4.096307   2.464026
     8  O    2.360512   3.560889   4.096308   5.312383   3.560890
     9  H    1.086344   2.133532   3.473783   4.484770   3.960961
    10  H    2.133533   1.086345   2.192899   2.593383   3.509614
    11  H    3.960963   3.509615   2.192901   2.593387   1.086345
    12  H    3.509613   3.960959   3.473782   4.484771   2.133533
                    6          7          8          9         10
     6  C    0.000000
     7  C    1.489193   0.000000
     8  O    2.360511   1.216076   0.000000
     9  H    3.509614   2.192899   2.593386   0.000000
    10  H    3.960959   3.473781   4.484770   2.520059   0.000000
    11  H    2.133534   3.473784   4.484771   5.045416   4.370985
    12  H    1.086344   2.192899   2.593382   4.370984   5.045413
                   11         12
    11  H    0.000000
    12  H    2.520061   0.000000
 Stoichiometry    C6H4O2
 Framework group  C1[X(C6H4O2)]
 Deg. of freedom    30
 Full point group                 C1      NOp   1
 Largest Abelian subgroup         C1      NOp   1
 Largest concise Abelian subgroup C1      NOp   1
                         Standard orientation:                         
 ---------------------------------------------------------------------
 Center     Atomic      Atomic             Coordinates (Angstroms)
 Number     Number       Type             X           Y           Z
 ---------------------------------------------------------------------
      1          6           0        0.668996   -1.273998   -0.000034
      2          6           0       -0.668995   -1.273997   -0.000008
      3          6           0       -1.440116    0.000001    0.000336
      4          8           0       -2.656191   -0.000001   -0.000162
      5          6           0       -0.668996    1.273998   -0.000015
      6          6           0        0.668996    1.273997   -0.000028
      7          6           0        1.440116   -0.000001    0.000240
      8          8           0        2.656191    0.000000   -0.000112
      9          1           0        1.260029   -2.185493   -0.000207
     10          1           0       -1.260030   -2.185491   -0.000172
     11          1           0       -1.260030    2.185494   -0.000176
     12          1           0        1.260031    2.185491   -0.000203
 ---------------------------------------------------------------------
 Rotational constants (GHZ):      5.2013878      1.6659548      1.2618093
 Standard basis: 6-31+G(d) (6D, 7F)
 There are   160 symmetry adapted cartesian basis functions of A   symmetry.
 There are   160 symmetry adapted basis functions of A   symmetry.
   160 basis functions,   272 primitive gaussians,   160 cartesian basis functions
    28 alpha electrons       28 beta electrons
       nuclear repulsion energy       322.5976216608 Hartrees.
 NAtoms=   12 NActive=   12 NUniq=   12 SFac= 1.00D+00 NAtFMM=   60 NAOKFM=F Big=F
 Integral buffers will be    131072 words long.
 Raffenetti 2 integral format.
 Two-electron integral symmetry is turned on.
 One-electron integrals computed using PRISM.
 NBasis=   160 RedAO= T EigKep=  5.61D-06  NBF=   160
 NBsUse=   160 1.00D-06 EigRej= -1.00D+00 NBFU=   160
 Initial guess from the checkpoint file:  "/srv/scratch/z5358697/gauss/Gau-2405739.chk"
 B after Tr=     0.000000    0.000000    0.000000
         Rot=    1.000000    0.000000    0.000000    0.000000 Ang=   0.00 deg.
 Requested convergence on RMS density matrix=1.00D-08 within 128 cycles.
 Requested convergence on MAX density matrix=1.00D-06.
 Requested convergence on             energy=1.00D-06.
 No special actions if energy rises.
 SCF Done:  E(RM062X) =  -381.305705341     A.U. after    9 cycles
            NFock=  9  Conv=0.56D-08     -V/T= 2.0084
 Calling FoFJK, ICntrl=      2127 FMM=F ISym2X=0 I1Cent= 0 IOpClX= 0 NMat=1 NMatS=1 NMatT=0.
 ***** Axes restored to original set *****
 -------------------------------------------------------------------
 Center     Atomic                   Forces (Hartrees/Bohr)
 Number     Number              X              Y              Z
 -------------------------------------------------------------------
      1        6          -0.000129811   -0.000041670   -0.000030638
      2        6           0.000113929   -0.000064602    0.000056460
      3        6          -0.000085159    0.000062142   -0.000137605
      4        8          -0.000019232   -0.000018224    0.000032693
      5        6           0.000107345    0.000007309    0.000094145
      6        6          -0.000135163    0.000031785    0.000005006
      7        6           0.000144686    0.000027978   -0.000031771
      8        8          -0.000001673   -0.000013865    0.000027507
      9        1           0.000015969    0.000015789    0.000007377
     10        1          -0.000015745    0.000017005   -0.000001033
     11        1          -0.000013582   -0.000010665   -0.000015497
     12        1           0.000018435   -0.000012982   -0.000006643
 -------------------------------------------------------------------
 Cartesian Forces:  Max     0.000144686 RMS     0.000061756

 GradGradGradGradGradGradGradGradGradGradGradGradGradGradGradGradGradGrad
 Berny optimization.
 Using GEDIIS/GDIIS optimizer.
 FormGI is forming the generalized inverse of G from B-inverse, IUseBI=4.
 Internal  Forces:  Max     0.000056335 RMS     0.000025763
 Search for a local minimum.
 Step number   5 out of a maximum of   64
 All quantities printed in internal units (Hartrees-Bohrs-Radians)
 Mixed Optimization -- En-DIIS/RFO-DIIS
 Swapping is turned off.
 Update second derivatives using D2CorX and points    1    2    3    4    5
 DE= -2.08D-06 DEPred=-2.42D-06 R= 8.61D-01
 TightC=F SS=  1.41D+00  RLast= 1.13D-02 DXNew= 2.5227D-01 3.3770D-02
 Trust test= 8.61D-01 RLast= 1.13D-02 DXMaxT set to 1.50D-01
 ITU=  1 -1  1  1  0
     Eigenvalues ---    0.01063   0.01109   0.01550   0.01753   0.02058
     Eigenvalues ---    0.02061   0.02278   0.02308   0.04294   0.10615
     Eigenvalues ---    0.16000   0.16000   0.16000   0.22000   0.22872
     Eigenvalues ---    0.24529   0.25000   0.25000   0.32277   0.33038
     Eigenvalues ---    0.33965   0.34851   0.35477   0.35490   0.35494
     Eigenvalues ---    0.35602   0.54647   0.63443   0.82350   0.92773
 En-DIIS/RFO-DIIS IScMMF=        0 using points:     5    4    3    2
 RFO step:  Lambda=-9.42164588D-08.
 DidBck=F Rises=F RFO-DIIS coefs:    0.73992    0.11706    0.14121    0.00180
 Iteration  1 RMS(Cart)=  0.00034925 RMS(Int)=  0.00000043
 Iteration  2 RMS(Cart)=  0.00000029 RMS(Int)=  0.00000035
 Variable       Old X    -DE/DX   Delta X   Delta X   Delta X     New X
                                 (Linear)    (Quad)   (Total)
    R1        2.52844   0.00005   0.00015  -0.00011   0.00004   2.52847
    R2        2.81417  -0.00006  -0.00005  -0.00011  -0.00016   2.81400
    R3        2.05289   0.00000   0.00001  -0.00001   0.00000   2.05290
    R4        2.81417  -0.00006  -0.00005  -0.00011  -0.00016   2.81401
    R5        2.05289   0.00000   0.00001  -0.00001   0.00000   2.05290
    R6        2.29805  -0.00001  -0.00010   0.00017   0.00006   2.29811
    R7        2.81417  -0.00006  -0.00005  -0.00011  -0.00016   2.81400
    R8        2.52844   0.00005   0.00015  -0.00011   0.00004   2.52848
    R9        2.05290   0.00000   0.00001  -0.00001   0.00000   2.05290
   R10        2.81417  -0.00006  -0.00005  -0.00011  -0.00016   2.81400
   R11        2.05289   0.00000   0.00001  -0.00001   0.00000   2.05290
   R12        2.29805  -0.00001  -0.00010   0.00017   0.00006   2.29811
    A1        2.11508  -0.00002   0.00000  -0.00007  -0.00007   2.11502
    A2        2.14606  -0.00001  -0.00025   0.00016  -0.00009   2.14597
    A3        2.02204   0.00003   0.00025  -0.00010   0.00016   2.02220
    A4        2.11509  -0.00002   0.00000  -0.00007  -0.00007   2.11502
    A5        2.14606  -0.00001  -0.00025   0.00016  -0.00009   2.14597
    A6        2.02204   0.00003   0.00025  -0.00009   0.00016   2.02219
    A7        2.11509  -0.00002   0.00000  -0.00007  -0.00007   2.11502
    A8        2.05301   0.00005   0.00000   0.00014   0.00014   2.05315
    A9        2.11509  -0.00002   0.00000  -0.00007  -0.00007   2.11502
   A10        2.11509  -0.00002   0.00000  -0.00007  -0.00007   2.11502
   A11        2.02204   0.00003   0.00025  -0.00010   0.00016   2.02220
   A12        2.14606  -0.00001  -0.00025   0.00016  -0.00009   2.14597
[...]
    R3        2.05289   0.00000   0.00000   0.00000   0.00000   2.05289
    R4        2.81417  -0.00006   0.00000  -0.00022  -0.00022   2.81395
    R5        2.05289   0.00000   0.00000   0.00000   0.00000   2.05289
    R6        2.29805  -0.00001   0.00000   0.00005   0.00005   2.29809
    R7        2.81417  -0.00006   0.00000  -0.00022  -0.00022   2.81395
    R8        2.52844   0.00005   0.00000   0.00012   0.00012   2.52855
    R9        2.05290   0.00000   0.00000   0.00000   0.00000   2.05289
   R10        2.81417  -0.00006   0.00000  -0.00022  -0.00022   2.81395
   R11        2.05289   0.00000   0.00000   0.00000   0.00000   2.05289
   R12        2.29805  -0.00001   0.00000   0.00004   0.00004   2.29809
    A1        2.11508  -0.00002   0.00000  -0.00010  -0.00010   2.11498
    A2        2.14606  -0.00001   0.00000  -0.00014  -0.00014   2.14592
    A3        2.02204   0.00003   0.00000   0.00025   0.00025   2.02228
    A4        2.11509  -0.00002   0.00000  -0.00011  -0.00011   2.11498
    A5        2.14606  -0.00001   0.00000  -0.00014  -0.00014   2.14592
    A6        2.02204   0.00003   0.00000   0.00025   0.00025   2.02228
    A7        2.11509  -0.00002   0.00000  -0.00010  -0.00010   2.11498
    A8        2.05301   0.00005   0.00000   0.00021   0.00021   2.05322
    A9        2.11509  -0.00002   0.00000  -0.00011  -0.00011   2.11498
   A10        2.11509  -0.00002   0.00000  -0.00010  -0.00010   2.11498
   A11        2.02204   0.00003   0.00000   0.00025   0.00025   2.02228
   A12        2.14606  -0.00001   0.00000  -0.00014  -0.00014   2.14592
   A13        2.11509  -0.00002   0.00000  -0.00011  -0.00011   2.11498
   A14        2.14606  -0.00001   0.00000  -0.00014  -0.00014   2.14592
   A15        2.02204   0.00003   0.00000   0.00025   0.00025   2.02228
   A16        2.05301   0.00005   0.00000   0.00021   0.00021   2.05322
   A17        2.11509  -0.00002   0.00000  -0.00011  -0.00011   2.11498
   A18        2.11509  -0.00002   0.00000  -0.00010  -0.00010   2.11498
    D1       -0.00003   0.00000   0.00000   0.00003   0.00003   0.00000
    D2       -3.14156   0.00000   0.00000  -0.00003  -0.00003  -3.14159
    D3        3.14151   0.00001   0.00000   0.00008   0.00008   3.14159
    D4       -0.00001   0.00000   0.00000   0.00001   0.00001   0.00000
    D5       -0.00043   0.00002   0.00000   0.00044   0.00044   0.00000
    D6       -3.14128  -0.00001   0.00000  -0.00031  -0.00031  -3.14159
    D7        3.14121   0.00001   0.00000   0.00039   0.00039  -3.14159
    D8        0.00036  -0.00002   0.00000  -0.00035  -0.00035   0.00001
    D9        3.14109   0.00002   0.00000   0.00050   0.00050   3.14159
   D10        0.00050  -0.00002   0.00000  -0.00051  -0.00051  -0.00001
   D11       -0.00056   0.00002   0.00000   0.00056   0.00056  -0.00001
   D12       -3.14115  -0.00002   0.00000  -0.00045  -0.00045   3.14159
   D13       -0.00051   0.00002   0.00000   0.00052   0.00052   0.00001
   D14        3.14116   0.00002   0.00000   0.00044   0.00044  -3.14159
   D15       -3.14110  -0.00002   0.00000  -0.00048  -0.00048  -3.14159
   D16        0.00057  -0.00002   0.00000  -0.00056  -0.00056   0.00001
   D17        0.00005   0.00000   0.00000  -0.00005  -0.00005   0.00000
   D18       -3.14151  -0.00001   0.00000  -0.00008  -0.00008  -3.14159
   D19        3.14156   0.00000   0.00000   0.00003   0.00003   3.14159
   D20        0.00000   0.00000   0.00000   0.00000   0.00000   0.00000
   D21        0.00042  -0.00002   0.00000  -0.00043  -0.00043  -0.00001
   D22        3.14127   0.00001   0.00000   0.00032   0.00032   3.14159
   D23       -3.14120  -0.00001   0.00000  -0.00040  -0.00040   3.14159
   D24       -0.00035   0.00002   0.00000   0.00035   0.00035  -0.00001
         Item               Value     Threshold  Converged?
 Maximum Force            0.000056     0.000450     YES
 RMS     Force            0.000026     0.000300     YES
 Maximum Displacement     0.000693     0.001800     YES
 RMS     Displacement     0.000180     0.001200     YES
 Predicted change in Energy=-1.338372D-07
 Optimization completed.
    -- Stationary point found.
                           ----------------------------
                           !   Optimized Parameters   !
                           ! (Angstroms and Degrees)  !
 --------------------------                            --------------------------
 ! Name  Definition              Value          Derivative Info.                !
 --------------------------------------------------------------------------------
 ! R1    R(1,2)                  1.338          -DE/DX =    0.0                 !
 ! R2    R(1,7)                  1.4892         -DE/DX =   -0.0001              !
 ! R3    R(1,9)                  1.0863         -DE/DX =    0.0                 !
 ! R4    R(2,3)                  1.4892         -DE/DX =   -0.0001              !
 ! R5    R(2,10)                 1.0863         -DE/DX =    0.0                 !
 ! R6    R(3,4)                  1.2161         -DE/DX =    0.0                 !
 ! R7    R(3,5)                  1.4892         -DE/DX =   -0.0001              !
 ! R8    R(5,6)                  1.338          -DE/DX =    0.0                 !
 ! R9    R(5,11)                 1.0863         -DE/DX =    0.0                 !
 ! R10   R(6,7)                  1.4892         -DE/DX =   -0.0001              !
 ! R11   R(6,12)                 1.0863         -DE/DX =    0.0                 !
 ! R12   R(7,8)                  1.2161         -DE/DX =    0.0                 !
 ! A1    A(2,1,7)              121.1854         -DE/DX =    0.0                 !
 ! A2    A(2,1,9)              122.9603         -DE/DX =    0.0                 !
 ! A3    A(7,1,9)              115.8542         -DE/DX =    0.0                 !
 ! A4    A(1,2,3)              121.1856         -DE/DX =    0.0                 !
 ! A5    A(1,2,10)             122.9603         -DE/DX =    0.0                 !
 ! A6    A(3,2,10)             115.8541         -DE/DX =    0.0                 !
 ! A7    A(2,3,4)              121.1855         -DE/DX =    0.0                 !
 ! A8    A(2,3,5)              117.6289         -DE/DX =    0.0                 !
 ! A9    A(4,3,5)              121.1856         -DE/DX =    0.0                 !
 ! A10   A(3,5,6)              121.1855         -DE/DX =    0.0                 !
 ! A11   A(3,5,11)             115.8542         -DE/DX =    0.0                 !
 ! A12   A(6,5,11)             122.9604         -DE/DX =    0.0                 !
 ! A13   A(5,6,7)              121.1856         -DE/DX =    0.0                 !
 ! A14   A(5,6,12)             122.9603         -DE/DX =    0.0                 !
 ! A15   A(7,6,12)             115.8541         -DE/DX =    0.0                 !
 ! A16   A(1,7,6)              117.629          -DE/DX =    0.0                 !
 ! A17   A(1,7,8)              121.1855         -DE/DX =    0.0                 !
 ! A18   A(6,7,8)              121.1854         -DE/DX =    0.0                 !
 ! D1    D(7,1,2,3)             -0.0019         -DE/DX =    0.0                 !
 ! D2    D(7,1,2,10)          -179.998          -DE/DX =    0.0                 !
 ! D3    D(9,1,2,3)            179.9954         -DE/DX =    0.0                 !
 ! D4    D(9,1,2,10)            -0.0008         -DE/DX =    0.0                 !
 ! D5    D(2,1,7,6)             -0.0248         -DE/DX =    0.0                 !
 ! D6    D(2,1,7,8)           -179.9819         -DE/DX =    0.0                 !
 ! D7    D(9,1,7,6)           -180.0222         -DE/DX =    0.0                 !
 ! D8    D(9,1,7,8)              0.0207         -DE/DX =    0.0                 !
 ! D9    D(1,2,3,4)            179.9713         -DE/DX =    0.0                 !
 ! D10   D(1,2,3,5)              0.0289         -DE/DX =    0.0                 !
 ! D11   D(10,2,3,4)            -0.0322         -DE/DX =    0.0                 !
 ! D12   D(10,2,3,5)           180.0253         -DE/DX =    0.0                 !
 ! D13   D(2,3,5,6)             -0.0295         -DE/DX =    0.0                 !
 ! D14   D(2,3,5,11)          -180.0249         -DE/DX =    0.0                 !
 ! D15   D(4,3,5,6)           -179.972          -DE/DX =    0.0                 !
 ! D16   D(4,3,5,11)             0.0326         -DE/DX =    0.0                 !
 ! D17   D(3,5,6,7)              0.0031         -DE/DX =    0.0                 !
 ! D18   D(3,5,6,12)          -179.9953         -DE/DX =    0.0                 !
 ! D19   D(11,5,6,7)           179.9981         -DE/DX =    0.0                 !
 ! D20   D(11,5,6,12)           -0.0002         -DE/DX =    0.0                 !
 ! D21   D(5,6,7,1)              0.0241         -DE/DX =    0.0                 !
 ! D22   D(5,6,7,8)            179.9813         -DE/DX =    0.0                 !
 ! D23   D(12,6,7,1)           180.0226         -DE/DX =    0.0                 !
 ! D24   D(12,6,7,8)            -0.0203         -DE/DX =    0.0                 !
 --------------------------------------------------------------------------------
 GradGradGradGradGradGradGradGradGradGradGradGradGradGradGradGradGradGrad

 1\1\GINC-KATANA3\Freq\RM062X\6-31+G(d)\C6H4O2\Z5358697\16-Mar-2025\0\\
 #N Geom=AllCheck Guess=TCheck SCRF=Check GenChk RM062X/6-31+G(d) Freq\
 \1,4-benzoquinone\\0,1\C,-0.7296650259,1.1841469103,0.3688028367\C,0.5
 414426126,1.0850919857,0.7746275479\C,1.3679872818,-0.1068232198,0.437
 1976919\O,2.5234307991,-0.1966166566,0.8056080178\C,0.729585442,-1.184
 2658353,-0.3685679253\C,-0.5415264196,-1.0852161378,-0.7743820982\C,-1
 .3682550352,0.1064247899,-0.4364378161\O,-2.5234417272,0.1965994504,-0
 .8055618228\H,-1.3584079719,2.0397938219,0.5983540436\H,1.0356824636,1
 .8532338199,1.3627004465\H,1.3584309998,-2.0397634837,-0.5984006582\H,
 -1.0356634191,-1.8532054449,-1.3627402637\\Version=ES64L-G09RevD.01\St
 ate=1-A\HF=-381.3057053\RMSD=1.967e-09\RMSF=6.176e-05\ZeroPoint=0.0863
 471\Thermal=0.0926171\Dipole=-0.0001015,-0.0001541,0.0002886\DipoleDer
 iv=-0.0685825,-0.1524105,-0.0637424,-0.2376568,-0.1145391,-0.0845061,-
 0.1093648,-0.0536395,-0.1850971,-0.1331152,0.1544783,0.076526,0.239805
 1,-0.1752688,0.0553938,0.1221137,0.0247001,-0.0598313,1.2434566,-0.107
 2228,0.279539,-0.1072792,0.7348099,0.187662,0.2796535,0.1876736,0.5117
 124,-1.1546463,0.0726228,-0.2488499,0.0725343,-0.4901858,-0.04438,-0.2
 486751,-0.0443662,-0.4714102,-0.0685151,-0.1523042,-0.0638931,-0.23768
 17,-0.1145611,-0.0843882,-0.1093838,-0.05369,-0.1851408,-0.1331817,0.1
 544196,0.0766813,0.2397618,-0.1752766,0.0554727,0.1221152,0.0245941,-0
 .0597587,1.2436628,-0.1071225,0.279373,-0.1070888,0.7347858,0.1877439,
 0.2793052,0.1877358,0.5115277,-1.1546709,0.0725274,-0.2486635,0.072594
 5,-0.4901829,-0.044377,-0.2487968,-0.0443872,-0.471388,0.0527794,0.044
 8944,-0.0077766,0.0315002,0.0191829,-0.0534481,-0.0148892,-0.0486174,0
 .1093876,0.0600189,-0.0124038,-0.0357212,0.0009916,0.0259794,-0.060835
 ,-0.0286042,-0.0656564,0.0953501,0.0527833,0.0449009,-0.0077456,0.0315
 318,0.0192285,-0.0534723,-0.0149133,-0.0486534,0.1093371,0.0600106,-0.
 0123797,-0.035727,0.0009873,0.0260276,-0.0608657,-0.0285606,-0.0656936
 ,0.0953112\Polar=106.3781445,-6.993878,59.1412427,20.8474785,8.6212757
 ,50.3808111\PG=C01 [X(C6H4O2)]\NImag=0\\0.81278269,-0.15165943,0.53349
 919,0.17167333,0.16966924,0.26527805,-0.50442335,0.04444732,-0.1423523
 4,0.79155558,0.03789831,-0.11155906,-0.02223425,-0.02268815,0.51353118
 ,-0.14585292,-0.01986904,-0.10743242,0.23280618,0.20554866,0.30647135,
 -0.02554755,0.02199005,0.00335967,-0.09975689,0.04117791,0.01155279,0.
 90594537,0.00632670,0.00411156,0.00572638,0.03793318,-0.19494214,-0.05
 240099,-0.08045323,0.47878140,-0.00499031,0.01138619,0.00191523,0.0098
 3369,-0.05125733,-0.09477673,0.21817419,0.12951554,0.32950062,0.004395
 28,0.00796934,0.00511447,-0.05901250,0.02630936,-0.01432746,-0.6862871
 7,0.05178298,-0.19846870,0.78669685,0.00353776,-0.00491863,-0.00240809
 ,0.04702649,0.00756271,0.01047925,0.05177921,-0.09922983,-0.00284693,-
 0.06397650,0.08254975,0.00275231,-0.00081792,0.00254989,-0.00328494,0.
 00302087,0.02011833,-0.19846131,-0.00284629,-0.13196930,0.24127182,0.0
 0895048,0.11430318,-0.00135771,-0.00163553,-0.00318382,0.01675758,0.01
 068041,0.00800439,-0.09059158,-0.01446170,-0.01481559,-0.04900896,-0.0
 3440385,-0.04313194,0.81280983,-0.00163374,-0.00059771,-0.00360589,-0.
 00686543,-0.01878429,-0.01804700,-0.01769818,-0.18625560,-0.06793110,-
 0.01369642,0.01695251,-0.00640493,-0.15169106,0.53333667,-0.00318530,-
 0.00360313,0.00197644,-0.00136019,-0.01170577,0.00364146,-0.01655037,-
 0.06678842,-0.11262833,-0.03207030,-0.01386180,0.00072533,0.17160890,0
 .16978290,0.26540863,0.01675952,-0.00686672,-0.00136302,-0.00223544,0.
 00369332,-0.00065904,-0.02118796,-0.00447741,-0.00918251,0.00621052,-0
 .00304969,-0.00010912,-0.50442747,0.04446158,-0.14234132,0.79154775,0.
 01068427,-0.01878460,-0.01171293,0.00369340,-0.00142412,-0.00212280,-0
 .02013311,0.00820365,-0.00163102,-0.00747957,-0.00321393,-0.00547238,0
 .03790829,-0.11151161,-0.02226783,-0.02274601,0.51337716,0.00800256,-0
 .01803835,0.00363984,-0.00065707,-0.00211968,0.00368055,-0.01754821,0.
 00402705,-0.00653655,-0.00247452,-0.00388236,-0.00097008,-0.14583324,-
 0.01990196,-0.10747465,0.23278600,0.20565120,0.30663338,-0.09061540,-0
 .01773352,-0.01652303,-0.02119202,-0.02013888,-0.01753591,-0.00176764,
 -0.00370039,0.00179907,0.00038844,0.00095568,0.00009200,-0.02555111,0.
 02198420,0.00336981,-0.09978739,0.04116629,0.01160808,0.90575704,-0.01
 450237,-0.18631593,-0.06673323,-0.00447331,0.00821012,0.00401736,-0.00
 369954,0.02286596,0.01739397,0.00095509,-0.00896546,-0.00526755,0.0063
 2399,0.00410629,0.00573477,0.03794442,-0.19487864,-0.05247378,-0.08058
 265,0.47880631,-0.01480822,-0.06792061,-0.11254566,-0.00918298,-0.0016
 3222,-0.00653907,0.00179750,0.01739396,-0.00229809,0.00009319,-0.00526
 745,-0.00122635,-0.00499386,0.01138294,0.00192395,0.00987486,-0.051287
 51,-0.09481071,0.21840131,0.12945170,0.32966369,-0.04898978,-0.0136794
 7,-0.03210222,0.00620715,-0.00748052,-0.00246789,0.00038961,0.00095613
 ,0.00009132,-0.00058629,-0.00022990,-0.00032703,0.00439208,0.00796372,
 0.00511960,-0.05899202,0.02632934,-0.01436208,-0.68604541,0.05194668,-
 0.19875387,0.78642513,-0.03438778,0.01695921,-0.01387463,-0.00305295,-
 0.00321272,-0.00387750,0.00095629,-0.00896560,-0.00526708,-0.00023085,
 0.00330240,0.00169204,0.00353819,-0.00491917,-0.00241498,0.04702933,0.
 00755143,0.01050429,0.05194930,-0.09925794,-0.00276410,-0.06416445,0.0
 8258138,-0.04314411,-0.00639084,0.00069936,-0.00010710,-0.00548065,-0.
 00096787,0.00009099,-0.00526711,-0.00122739,-0.00032514,0.00169218,0.0
 0076121,0.00275480,-0.00081203,0.00255368,-0.00330378,0.00302179,0.020
 10904,-0.19875907,-0.00276453,-0.13217995,0.24160007,0.00885787,0.1145
 4034,-0.15251894,0.13667337,0.03257149,-0.01119168,0.02532491,0.006208
 14,-0.00030906,-0.00177541,-0.00605137,-0.00252668,0.00147888,0.000847
 36,-0.00040166,-0.00015428,0.00055766,-0.00140181,-0.00181138,-0.00200
 940,0.00990761,-0.01204119,-0.00409069,0.00089784,0.00136731,0.0016248
 0,0.15676848,0.13583370,-0.23958906,-0.05706432,-0.00083832,0.00611528
 ,-0.00185768,0.00056054,0.00280894,-0.00567962,-0.00031310,-0.00016624
 ,0.00123014,-0.00033450,0.00021771,0.00115625,-0.00323816,-0.00150420,
 -0.00276458,0.01699652,-0.01491823,-0.00366229,-0.00138387,0.00293203,
 0.00190859,-0.14728523,0.24570282,0.03212574,-0.05676482,-0.05941534,-
 0.00774586,0.00758506,0.01027931,-0.00480184,-0.00652402,0.00862288,-0
 .00011388,0.00187803,-0.00172277,0.00046101,0.00122174,-0.00135722,-0.
 00276864,-0.00225124,-0.00071083,0.01139254,-0.01413797,0.00001543,0.0
 0015893,0.00290128,0.00002185,-0.03146892,0.06392131,0.04898539,-0.007
 66853,-0.02225947,-0.01789655,-0.11493696,-0.09244615,-0.07609263,0.01
 040033,0.01398533,0.00996882,0.00108689,-0.00252352,-0.00038320,-0.002
 41262,0.00290877,0.00014393,-0.00037157,-0.00051942,0.00037399,-0.0011
 8946,0.00591796,-0.00226468,-0.00225650,-0.00196029,-0.00089255,0.0001
 0659,-0.00090794,0.00223872,0.11652626,0.00390393,0.00943246,0.0016234
 6,-0.09160810,-0.20423988,-0.12027487,-0.01505141,-0.01445255,-0.01497
 767,0.00022782,0.00310856,0.00258422,0.00433492,-0.00245616,-0.0005395
 5,-0.00033891,0.00024652,0.00116990,0.00358106,0.00197893,-0.00503185,
 -0.00016725,0.00008905,0.00141900,-0.00134286,-0.00085979,0.00302354,0
 .09717892,0.20784804,-0.00394140,-0.00781701,0.00343896,-0.07564708,-0
 .12057927,-0.13234544,-0.00551360,-0.00449809,-0.00094312,0.00108253,0
 .00159182,-0.00034369,0.00090265,-0.00105547,0.00125192,0.00047044,0.0
 0110489,-0.00141612,-0.00351398,-0.00418976,0.01033327,0.00006744,0.00
 077219,-0.00224824,0.00200577,0.00318095,-0.00501810,0.08441600,0.1319
 3681,0.12708146,-0.00040197,-0.00015436,0.00055777,-0.00140022,-0.0018
 1125,-0.00200944,0.00990419,-0.01203448,-0.00409527,0.00089912,0.00136
 652,0.00162475,-0.15254495,0.13667288,0.03261659,-0.01119699,0.0253187
 7,0.00622115,-0.00030739,-0.00177442,-0.00605081,-0.00252766,0.0014798
 9,0.00084536,0.00005234,0.00011717,0.00011851,0.00061645,-0.00055122,-
 0.00031293,0.15680029,-0.00033498,0.00021756,0.00115646,-0.00323541,-0
 .00150340,-0.00276581,0.01699133,-0.01490870,-0.00366850,-0.00138287,0
 .00292957,0.00191089,0.13583659,-0.23952139,-0.05711748,-0.00083899,0.
 00611694,-0.00185846,0.00056433,0.00281236,-0.00568245,-0.00031568,-0.
 00016645,0.00123036,0.00011699,0.00000852,0.00010197,0.00079259,-0.000
 74770,-0.00047004,-0.14728525,0.24562605,0.00046159,0.00122154,-0.0013
 5677,-0.00277212,-0.00225024,-0.00071323,0.01140872,-0.01414632,0.0000
 0929,0.00015501,0.00290294,0.00002303,0.03216784,-0.05681301,-0.059454
 77,-0.00774532,0.00758072,0.01028294,-0.00480520,-0.00652487,0.0086177
 8,-0.00010959,0.00187757,-0.00172159,0.00011879,0.00010189,-0.00000608
 ,0.00040430,-0.00095586,0.00030594,-0.03152118,0.06397966,0.04902817,-
 0.00241427,0.00290842,0.00014425,-0.00037125,-0.00051926,0.00037380,-0
 .00119165,0.00591829,-0.00226335,-0.00225550,-0.00196108,-0.00089070,-
 0.00766343,-0.02225204,-0.01790902,-0.11491715,-0.09241088,-0.07610728
 ,0.01040273,0.01398534,0.00997825,0.00108585,-0.00252400,-0.00038427,0
 .00061697,0.00079321,0.00040371,0.00009911,-0.00016691,-0.00001585,0.0
 0010680,-0.00090866,0.00223717,0.11650179,0.00433361,-0.00245500,-0.00
 054219,-0.00033874,0.00024632,0.00117041,0.00358016,0.00198291,-0.0050
 3644,-0.00016528,0.00008858,0.00142044,0.00390426,0.00943275,0.0016250
 3,-0.09157276,-0.20417861,-0.12031327,-0.01504195,-0.01444377,-0.01498
 011,0.00022527,0.00310638,0.00258537,-0.00055111,-0.00074776,-0.000954
 88,-0.00016679,0.00005250,0.00002298,-0.00134425,-0.00086337,0.0030259
 7,0.09713757,0.20777907,0.00090672,-0.00105526,0.00125242,0.00046981,0
 .00110482,-0.00141624,-0.00350855,-0.00419167,0.01033148,0.00006299,0.
 00077192,-0.00224877,-0.00394113,-0.00781620,0.00343357,-0.07565854,-0
 .12061287,-0.13242681,-0.00552563,-0.00450610,-0.00095429,0.00108532,0
 .00159304,-0.00034046,-0.00031363,-0.00047064,0.00030548,-0.00001615,0
 .00002287,-0.00009683,0.00200551,0.00318342,-0.00501472,0.08443328,0.1
 3197668,0.12717517\\0.00012979,0.00004167,0.00003063,-0.00011393,0.000
 06460,-0.00005646,0.00008516,-0.00006214,0.00013761,0.00001924,0.00001
 823,-0.00003270,-0.00010735,-0.00000731,-0.00009414,0.00013515,-0.0000
 3178,-0.00000501,-0.00014471,-0.00002798,0.00003176,0.00000170,0.00001
 386,-0.00002749,-0.00001596,-0.00001579,-0.00000738,0.00001575,-0.0000
 1700,0.00000104,0.00001359,0.00001066,0.00001550,-0.00001843,0.0000129
 8,0.00000665\\\@


 THERE IS NOTHING NOBLE IN BEING SUPERIOR TO SOME OTHER MAN.
 TRUE NOBILITY IS BEING SUPERIOR TO YOUR FORMER SELF.

                                                   -- HINDU PROVERB
 Job cpu time:       0 days  0 hours  3 minutes 58.6 seconds.
 File lengths (MBytes):  RWF=    133 Int=      0 D2E=      0 Chk=      4 Scr=      2
 Normal termination of Gaussian 09 at Sun Mar 16 20:32:26 2025.
