 Entering Gaussian System, Link 0=g09
 Initial command:
 /apps/z_install_tree/linux-rocky8-ivybridge/gcc-12.2.0/gaussian-09-D.01-wczn3gur5lpur3omlkzwa2l5ecyxp5ef/g09/l1.exe "/srv/scratch/z5358697/gauss/Gau-1774446.inp" -scrdir="/srv/scratch/z5358697/gauss/"
 Entering Link 1 = /apps/z_install_tree/linux-rocky8-ivybridge/gcc-12.2.0/gaussian-09-D.01-wczn3gur5lpur3omlkzwa2l5ecyxp5ef/g09/l1.exe PID=   1774447.
  
 Copyright (c) 1988,1990,1992,1993,1995,1998,2003,2009,2013,
            Gaussian, Inc.  All Rights Reserved.
  
 This is part of the Gaussian(R) 09 program.  It is based on
 the Gaussian(R) 03 system (copyright 2003, Gaussian, Inc.),
 the Gaussian(R) 98 system (copyright 1998, Gaussian, Inc.),
 the Gaussian(R) 94 system (copyright 1995, Gaussian, Inc.),
 the Gaussian 92(TM) system (copyright 1992, Gaussian, Inc.),
 the Gaussian 90(TM) system (copyright 1990, Gaussian, Inc.),
 the Gaussian 88(TM) system (copyright 1988, Gaussian, Inc.),
 the Gaussian 86(TM) system (copyright 1986, Carnegie Mellon
 University), and the Gaussian 82(TM) system (copyright 1983,
 Carnegie Mellon University). Gaussian is a federally registered
 trademark of Gaussian, Inc.
  
 This software contains proprietary and confidential information,
 including trade secrets, belonging to Gaussian, Inc.
  
 This software is provided under written license and may be
 used, copied, transmitted, or stored only in accord with that
 written license.
  
 The following legend is applicable only to US Government
 contracts under FAR:
  
                    RESTRICTED RIGHTS LEGEND
  
 Use, reproduction and disclosure by the US Government is
 subject to restrictions as set forth in subparagraphs (a)
 and (c) of the Commercial Computer Software - Restricted
 Rights clause in FAR 52.227-19.
  
 Gaussian, Inc.
 340 Quinnipiac St., Bldg. 40, Wallingford CT 06492
  
  
 ---------------------------------------------------------------
 Warning -- This program may not be used in any manner that
 competes with the business of Gaussian, Inc. or will provide
 assistance to any competitor of Gaussian, Inc.  The licensee
 of this program is prohibited from giving any competitor of
 Gaussian, Inc. access to this program.  By using this program,
 the user acknowledges that Gaussian, Inc. is engaged in the
 business of creating and licensing software in the field of
 computational chemistry and represents and warrants to the
 licensee that it is not a competitor of Gaussian, Inc. and that
 it will not use this program in any manner prohibited above.
 ---------------------------------------------------------------
  

 Cite this work as:
 Gaussian 09, Revision D.01,
 M. J. Frisch, G. W. Trucks, H. B. Schlegel, G. E. Scuseria, 
 M. A. Robb, J. R. Cheeseman, G. Scalmani, V. Barone, B. Mennucci, 
 G. A. Petersson, H. Nakatsuji, M. Caricato, X. Li, H. P. Hratchian, 
 A. F. Izmaylov, J. Bloino, G. Zheng, J. L. Sonnenberg, M. Hada, 
 M. Ehara, K. Toyota, R. Fukuda, J. Hasegawa, M. Ishida, T. Nakajima, 
 Y. Honda, O. Kitao, H. Nakai, T. Vreven, J. A. Montgomery, Jr., 
 J. E. Peralta, F. Ogliaro, M. Bearpark, J. J. Heyd, E. Brothers, 
 K. N. Kudin, V. N. Staroverov, T. Keith, R. Kobayashi, J. Normand, 
 K. Raghavachari, A. Rendell, J. C. Burant, S. S. Iyengar, J. Tomasi, 
 M. Cossi, N. Rega, J. M. Millam, M. Klene, J. E. Knox, J. B. Cross, 
 V. Bakken, C. Adamo, J. Jaramillo, R. Gomperts, R. E. Stratmann, 
 O. Yazyev, A. J. Austin, R. Cammi, C. Pomelli, J. W. Ochterski, 
 R. L. Martin, K. Morokuma, V. G. Zakrzewski, G. A. Voth, 
 P. Salvador, J. J. Dannenberg, S. Dapprich, A. D. Daniels, 
 O. Farkas, J. B. Foresman, J. V. Ortiz, J. Cioslowski, 
 and D. J. Fox, Gaussian, Inc., Wallingford CT, 2013.
 
 ******************************************
 Gaussian 09:  ES64L-G09RevD.01 24-Apr-2013
                13-Mar-2025 
 ******************************************
 ---------------------------------
 #m062X/6-31+G(d) OPT Freq=noraman
 ---------------------------------
 1/14=-1,18=20,19=15,26=3,38=1/1,3;
 2/9=110,12=2,17=6,18=5,40=1/2;
 3/5=1,6=6,7=11,11=2,16=1,25=1,30=1,71=1,74=-55/1,2,3;
 4//1;
 5/5=2,38=5/2;
 6/7=2,8=2,9=2,10=2,28=1/1;
 7//1,2,3,16;
 1/14=-1,18=20,19=15,26=3/3(2);
 2/9=110/2;
 99//99;
 2/9=110/2;
 3/5=1,6=6,7=11,11=2,16=1,25=1,30=1,71=1,74=-55/1,2,3;
 4/5=5,16=3,69=1/1;
 5/5=2,38=5/2;
 7//1,2,3,16;
 1/14=-1,18=20,19=15,26=3/3(-5);
 2/9=110/2;
 6/7=2,8=2,9=2,10=2,19=2,28=1/1;
 99/9=1/99;
 ---------------
 dichloromethane
 ---------------
 Symbolic Z-matrix:
 Charge =  0 Multiplicity = 1
 C                     0.1401   -0.033     0.0343 
 Cl                   -0.544    -0.1483   -1.591 
 Cl                   -1.0675    0.5282    1.1961 
 H                     0.9746    0.6725    0.0198 
 H                     0.4968   -1.0194    0.3407 
 

 GradGradGradGradGradGradGradGradGradGradGradGradGradGradGradGradGradGrad
 Berny optimization.
 Initialization pass.
                           ----------------------------
                           !    Initial Parameters    !
                           ! (Angstroms and Degrees)  !
 --------------------------                            --------------------------
 ! Name  Definition              Value          Derivative Info.                !
 --------------------------------------------------------------------------------
 ! R1    R(1,2)                  1.7672         estimate D2E/DX2                !
 ! R2    R(1,3)                  1.7672         estimate D2E/DX2                !
 ! R3    R(1,4)                  1.0929         estimate D2E/DX2                !
 ! R4    R(1,5)                  1.0927         estimate D2E/DX2                !
 ! A1    A(2,1,3)              111.1513         estimate D2E/DX2                !
 ! A2    A(2,1,4)              108.9969         estimate D2E/DX2                !
 ! A3    A(2,1,5)              108.9869         estimate D2E/DX2                !
 ! A4    A(3,1,4)              108.9966         estimate D2E/DX2                !
 ! A5    A(3,1,5)              108.9885         estimate D2E/DX2                !
 ! A6    A(4,1,5)              109.706          estimate D2E/DX2                !
 ! D1    D(2,1,4,3)            121.4742         estimate D2E/DX2                !
 ! D2    D(2,1,5,3)           -121.4631         estimate D2E/DX2                !
 ! D3    D(2,1,5,4)            119.2682         estimate D2E/DX2                !
 ! D4    D(3,1,5,4)           -119.2687         estimate D2E/DX2                !
 --------------------------------------------------------------------------------
 Trust Radius=3.00D-01 FncErr=1.00D-07 GrdErr=1.00D-06
 Number of steps in this run=     24 maximum allowed number of steps=    100.
 GradGradGradGradGradGradGradGradGradGradGradGradGradGradGradGradGradGrad

                          Input orientation:                          
 ---------------------------------------------------------------------
 Center     Atomic      Atomic             Coordinates (Angstroms)
 Number     Number       Type             X           Y           Z
 ---------------------------------------------------------------------
      1          6           0        0.140100   -0.033000    0.034300
      2         17           0       -0.544000   -0.148300   -1.591000
      3         17           0       -1.067500    0.528200    1.196100
      4          1           0        0.974600    0.672500    0.019800
      5          1           0        0.496800   -1.019400    0.340700
 ---------------------------------------------------------------------
                    Distance matrix (angstroms):
                    1          2          3          4          5
     1  C    0.000000
     2  Cl   1.767169   0.000000
     3  Cl   1.767208   2.915413   0.000000
     4  H    1.092854   2.361045   2.361075   0.000000
     5  H    1.092749   2.360836   2.360892   1.787119   0.000000
 Stoichiometry    CH2Cl2
 Framework group  C1[X(CH2Cl2)]
 Deg. of freedom     9
 Full point group                 C1      NOp   1
 Largest Abelian subgroup         C1      NOp   1
 Largest concise Abelian subgroup C1      NOp   1
                         Standard orientation:                         
 ---------------------------------------------------------------------
 Center     Atomic      Atomic             Coordinates (Angstroms)
 Number     Number       Type             X           Y           Z
 ---------------------------------------------------------------------
      1          6           0        0.000021    0.778776    0.000012
      2         17           0        1.457701   -0.220252   -0.000007
      3         17           0       -1.457712   -0.220242   -0.000007
      4          1           0        0.000024    1.408068   -0.893477
      5          1           0        0.000045    1.407684    0.893643
 ---------------------------------------------------------------------
 Rotational constants (GHZ):     31.2897158      3.3642465      3.0975700
 Standard basis: 6-31+G(d) (6D, 7F)
 There are    69 symmetry adapted cartesian basis functions of A   symmetry.
 There are    69 symmetry adapted basis functions of A   symmetry.
    69 basis functions,   152 primitive gaussians,    69 cartesian basis functions
    21 alpha electrons       21 beta electrons
       nuclear repulsion energy       134.8916472658 Hartrees.
 NAtoms=    5 NActive=    5 NUniq=    5 SFac= 1.00D+00 NAtFMM=   60 NAOKFM=F Big=F
 Integral buffers will be    131072 words long.
 Raffenetti 2 integral format.
 Two-electron integral symmetry is turned on.
 One-electron integrals computed using PRISM.
 NBasis=    69 RedAO= T EigKep=  7.29D-04  NBF=    69
 NBsUse=    69 1.00D-06 EigRej= -1.00D+00 NBFU=    69
 ExpMin= 4.38D-02 ExpMax= 2.52D+04 ExpMxC= 3.78D+03 IAcc=2 IRadAn=         4 AccDes= 0.00D+00
 Harris functional with IExCor= 1009 and IRadAn=       4 diagonalized for initial guess.
 HarFok:  IExCor= 1009 AccDes= 0.00D+00 IRadAn=         4 IDoV= 1 UseB2=F ITyADJ=14
 ICtDFT=  3500011 ScaDFX=  1.000000  1.000000  1.000000  1.000000
 FoFCou: FMM=F IPFlag=           0 FMFlag=      100000 FMFlg1=           0
         NFxFlg=           0 DoJE=T BraDBF=F KetDBF=T FulRan=T
         wScrn=  0.000000 ICntrl=     500 IOpCl=  0 I1Cent=   200000004 NGrid=           0
         NMat0=    1 NMatS0=      1 NMatT0=    0 NMatD0=    1 NMtDS0=    0 NMtDT0=    0
 Petite list used in FoFCou.
 Keep R1 ints in memory in canonical form, NReq=3841495.
 Requested convergence on RMS density matrix=1.00D-08 within 128 cycles.
 Requested convergence on MAX density matrix=1.00D-06.
 Requested convergence on             energy=1.00D-06.
 No special actions if energy rises.
 SCF Done:  E(RM062X) =  -959.609152865     A.U. after   10 cycles
            NFock= 10  Conv=0.93D-08     -V/T= 2.0029

 **********************************************************************

            Population analysis using the SCF density.

 **********************************************************************

 Orbital symmetries:
       Occupied  (A) (A) (A) (A) (A) (A) (A) (A) (A) (A) (A) (A)
                 (A) (A) (A) (A) (A) (A) (A) (A) (A)
       Virtual   (A) (A) (A) (A) (A) (A) (A) (A) (A) (A) (A) (A)
                 (A) (A) (A) (A) (A) (A) (A) (A) (A) (A) (A) (A)
                 (A) (A) (A) (A) (A) (A) (A) (A) (A) (A) (A) (A)
                 (A) (A) (A) (A) (A) (A) (A) (A) (A) (A) (A) (A)
 The electronic state is 1-A.
 Alpha  occ. eigenvalues -- -102.68074-102.68074 -10.67737  -9.82833  -9.82832
 Alpha  occ. eigenvalues --   -7.55260  -7.55259  -7.54548  -7.54548  -7.54521
 Alpha  occ. eigenvalues --   -7.54521  -1.01642  -0.92923  -0.75928  -0.57513
 Alpha  occ. eigenvalues --   -0.53871  -0.51339  -0.40006  -0.39712  -0.37615
 Alpha  occ. eigenvalues --   -0.37361
 Alpha virt. eigenvalues --    0.01041   0.02958   0.03266   0.05692   0.06828
 Alpha virt. eigenvalues --    0.08601   0.09270   0.10277   0.10783   0.10934
 Alpha virt. eigenvalues --    0.12097   0.14769   0.15852   0.19049   0.20929
 Alpha virt. eigenvalues --    0.26863   0.57022   0.58309   0.60073   0.61601
 Alpha virt. eigenvalues --    0.62625   0.64109   0.66384   0.66707   0.67020
 Alpha virt. eigenvalues --    0.67933   0.76711   0.84828   0.90645   0.92681
 Alpha virt. eigenvalues --    0.92817   0.93507   0.96119   0.98533   1.00483
 Alpha virt. eigenvalues --    1.03303   1.13181   1.15090   1.18550   1.41411
 Alpha virt. eigenvalues --    1.74181   1.77774   2.15819   2.19729   2.24739
 Alpha virt. eigenvalues --    4.09523   4.41747   4.43086
          Condensed to atoms (all electrons):
               1          2          3          4          5
     1  C    5.561923   0.171992   0.171994   0.368285   0.368312
     2  Cl   0.171992  16.950932  -0.054455  -0.051084  -0.051112
     3  Cl   0.171994  -0.054455  16.950940  -0.051082  -0.051106
     4  H    0.368285  -0.051084  -0.051082   0.480702  -0.034343
     5  H    0.368312  -0.051112  -0.051106  -0.034343   0.480701
 Mulliken charges:
               1
     1  C   -0.642505
     2  Cl   0.033726
     3  Cl   0.033709
     4  H    0.287522
     5  H    0.287548
 Sum of Mulliken charges =   0.00000
 Mulliken charges with hydrogens summed into heavy atoms:
               1
     1  C   -0.067435
     2  Cl   0.033726
     3  Cl   0.033709
 Electronic spatial extent (au):  <R**2>=            368.0926
 Charge=              0.0000 electrons
 Dipole moment (field-independent basis, Debye):
    X=              0.0001    Y=              1.9167    Z=              0.0001  Tot=              1.9167
 Quadrupole moment (field-independent basis, Debye-Ang):
   XX=            -34.5086   YY=            -29.7853   ZZ=            -31.6750
   XY=              0.0001   XZ=              0.0000   YZ=             -0.0002
 Traceless Quadrupole moment (field-independent basis, Debye-Ang):
   XX=             -2.5190   YY=              2.2043   ZZ=              0.3147
   XY=              0.0001   XZ=              0.0000   YZ=             -0.0002
 Octapole moment (field-independent basis, Debye-Ang**2):
  XXX=              0.0002  YYY=              2.0189  ZZZ=              0.0008  XYY=              0.0002
  XXY=             -4.3545  XXZ=              0.0003  XZZ=              0.0001  YZZ=              2.0077
  YYZ=             -0.0006  XYZ=              0.0000
 Hexadecapole moment (field-independent basis, Debye-Ang**3):
 XXXX=           -351.9030 YYYY=            -74.1698 ZZZZ=            -42.2757 XXXY=              0.0001
 XXXZ=              0.0000 YYYX=              0.0001 YYYZ=             -0.0017 ZZZX=              0.0001
 ZZZY=              0.0005 XXYY=            -70.2719 XXZZ=            -70.2179 YYZZ=            -17.5844
 XXYZ=              0.0000 YYXZ=              0.0001 ZZXY=              0.0001
 N-N= 1.348916472658D+02 E-N=-2.548152043886D+03  KE= 9.568786992604D+02
 Calling FoFJK, ICntrl=      2127 FMM=F ISym2X=0 I1Cent= 0 IOpClX= 0 NMat=1 NMatS=1 NMatT=0.
 ***** Axes restored to original set *****
 -------------------------------------------------------------------
 Center     Atomic                   Forces (Hartrees/Bohr)
 Number     Number              X              Y              Z
 -------------------------------------------------------------------
      1        6           0.006103238   -0.001405962    0.001494910
      2       17           0.001520074   -0.001214387   -0.004190278
      3       17          -0.000106328    0.000895835    0.004520781
      4        1          -0.004235475   -0.000732315   -0.000616435
      5        1          -0.003281509    0.002456829   -0.001208978
 -------------------------------------------------------------------
 Cartesian Forces:  Max     0.006103238 RMS     0.002842271

 GradGradGradGradGradGradGradGradGradGradGradGradGradGradGradGradGradGrad
 Berny optimization.
 FormGI is forming the generalized inverse of G from B-inverse, IUseBI=4.
 Internal  Forces:  Max     0.004315146 RMS     0.002797353
 Search for a local minimum.
 Step number   1 out of a maximum of   24
 All quantities printed in internal units (Hartrees-Bohrs-Radians)
 Mixed Optimization -- RFO/linear search
 Second derivative matrix not updated -- first step.
 The second derivative matrix:
                          R1        R2        R3        R4        A1
           R1           0.28884
           R2           0.00000   0.28880
           R3           0.00000   0.00000   0.34485
           R4           0.00000   0.00000   0.00000   0.34497
           A1           0.00000   0.00000   0.00000   0.00000   0.25000
           A2           0.00000   0.00000   0.00000   0.00000   0.00000
           A3           0.00000   0.00000   0.00000   0.00000   0.00000
           A4           0.00000   0.00000   0.00000   0.00000   0.00000
           A5           0.00000   0.00000   0.00000   0.00000   0.00000
           A6           0.00000   0.00000   0.00000   0.00000   0.00000
           D1           0.00000   0.00000   0.00000   0.00000   0.00000
           D2           0.00000   0.00000   0.00000   0.00000   0.00000
           D3           0.00000   0.00000   0.00000   0.00000   0.00000
           D4           0.00000   0.00000   0.00000   0.00000   0.00000
                          A2        A3        A4        A5        A6
           A2           0.16000
           A3           0.00000   0.16000
           A4           0.00000   0.00000   0.16000
           A5           0.00000   0.00000   0.00000   0.16000
           A6           0.00000   0.00000   0.00000   0.00000   0.16000
           D1           0.00000   0.00000   0.00000   0.00000   0.00000
           D2           0.00000   0.00000   0.00000   0.00000   0.00000
           D3           0.00000   0.00000   0.00000   0.00000   0.00000
           D4           0.00000   0.00000   0.00000   0.00000   0.00000
                          D1        D2        D3        D4
           D1           0.00230
           D2           0.00000   0.00230
           D3           0.00000   0.00000   0.00230
           D4           0.00000   0.00000   0.00000   0.00230
 ITU=  0
     Eigenvalues ---    0.05770   0.06869   0.08933   0.16000   0.16785
     Eigenvalues ---    0.28880   0.28884   0.34485   0.34497
 RFO step:  Lambda=-5.93292405D-04 EMin= 5.76984357D-02
 Linear search not attempted -- first point.
 Iteration  1 RMS(Cart)=  0.02258343 RMS(Int)=  0.00019298
 Iteration  2 RMS(Cart)=  0.00017074 RMS(Int)=  0.00003582
 Iteration  3 RMS(Cart)=  0.00000001 RMS(Int)=  0.00003582
 Variable       Old X    -DE/DX   Delta X   Delta X   Delta X     New X
                                 (Linear)    (Quad)   (Total)
    R1        3.33947   0.00334   0.00000   0.01156   0.01156   3.35102
    R2        3.33954   0.00333   0.00000   0.01150   0.01150   3.35104
    R3        2.06520  -0.00370   0.00000  -0.01071  -0.01071   2.05449
    R4        2.06500  -0.00363   0.00000  -0.01050  -0.01050   2.05450
    A1        1.93996   0.00378   0.00000   0.03367   0.03366   1.97362
    A2        1.90236  -0.00184   0.00000  -0.01267  -0.01261   1.88975
    A3        1.90218  -0.00216   0.00000  -0.01259  -0.01253   1.88965
    A4        1.90235  -0.00184   0.00000  -0.01268  -0.01263   1.88972
    A5        1.90221  -0.00217   0.00000  -0.01264  -0.01258   1.88962
    A6        1.91473   0.00432   0.00000   0.01714   0.01721   1.93194
    D1        2.12012   0.00236   0.00000   0.02560   0.02563   2.14576
    D2       -2.11993  -0.00196   0.00000  -0.02568  -0.02571  -2.14564
    D3        2.08162  -0.00098   0.00000  -0.01282  -0.01283   2.06880
    D4       -2.08163   0.00098   0.00000   0.01287   0.01288  -2.06875
         Item               Value     Threshold  Converged?
 Maximum Force            0.004315     0.000450     NO 
 RMS     Force            0.002797     0.000300     NO 
 Maximum Displacement     0.046694     0.001800     NO 
 RMS     Displacement     0.022600     0.001200     NO 
 Predicted change in Energy=-2.981471D-04
 GradGradGradGradGradGradGradGradGradGradGradGradGradGradGradGradGradGrad

                          Input orientation:                          
 ---------------------------------------------------------------------
 Center     Atomic      Atomic             Coordinates (Angstroms)
 Number     Number       Type             X           Y           Z
 ---------------------------------------------------------------------
      1          6           0        0.136157   -0.032073    0.033330
      2         17           0       -0.523870   -0.157129   -1.607786
      3         17           0       -1.055139    0.529426    1.220809
      4          1           0        0.960479    0.676572    0.016166
      5          1           0        0.482372   -1.016796    0.337381
 ---------------------------------------------------------------------
                    Distance matrix (angstroms):
                    1          2          3          4          5
     1  C    0.000000
     2  Cl   1.773284   0.000000
     3  Cl   1.773295   2.958810   0.000000
     4  H    1.087188   2.352780   2.352771   0.000000
     5  H    1.087194   2.352706   2.352698   1.788647   0.000000
 Stoichiometry    CH2Cl2
 Framework group  C1[X(CH2Cl2)]
 Deg. of freedom     9
 Full point group                 C1      NOp   1
 Largest Abelian subgroup         C1      NOp   1
 Largest concise Abelian subgroup C1      NOp   1
                         Standard orientation:                         
 ---------------------------------------------------------------------
 Center     Atomic      Atomic             Coordinates (Angstroms)
 Number     Number       Type             X           Y           Z
 ---------------------------------------------------------------------
      1          6           0        0.000006    0.762042   -0.000005
      2         17           0        1.479405   -0.215669   -0.000003
      3         17           0       -1.479406   -0.215668   -0.000003
      4          1           0       -0.000007    1.380329   -0.894264
      5          1           0       -0.000007    1.380152    0.894383
 ---------------------------------------------------------------------
 Rotational constants (GHZ):     32.4900552      3.2672428      3.0260192
 Standard basis: 6-31+G(d) (6D, 7F)
 There are    69 symmetry adapted cartesian basis functions of A   symmetry.
 There are    69 symmetry adapted basis functions of A   symmetry.
    69 basis functions,   152 primitive gaussians,    69 cartesian basis functions
    21 alpha electrons       21 beta electrons
       nuclear repulsion energy       133.9950768320 Hartrees.
 NAtoms=    5 NActive=    5 NUniq=    5 SFac= 1.00D+00 NAtFMM=   60 NAOKFM=F Big=F
 Integral buffers will be    131072 words long.
 Raffenetti 2 integral format.
 Two-electron integral symmetry is turned on.
 One-electron integrals computed using PRISM.
 NBasis=    69 RedAO= T EigKep=  7.34D-04  NBF=    69
 NBsUse=    69 1.00D-06 EigRej= -1.00D+00 NBFU=    69
 Initial guess from the checkpoint file:  "/srv/scratch/z5358697/gauss/Gau-1774447.chk"
 B after Tr=     0.000000    0.000000    0.000000
         Rot=    1.000000    0.000017    0.000000   -0.000003 Ang=   0.00 deg.
 ExpMin= 4.38D-02 ExpMax= 2.52D+04 ExpMxC= 3.78D+03 IAcc=2 IRadAn=         4 AccDes= 0.00D+00
 Harris functional with IExCor= 1009 and IRadAn=       4 diagonalized for initial guess.
 HarFok:  IExCor= 1009 AccDes= 0.00D+00 IRadAn=         4 IDoV= 1 UseB2=F ITyADJ=14
 ICtDFT=  3500011 ScaDFX=  1.000000  1.000000  1.000000  1.000000
 FoFCou: FMM=F IPFlag=           0 FMFlag=      100000 FMFlg1=           0
         NFxFlg=           0 DoJE=T BraDBF=F KetDBF=T FulRan=T
         wScrn=  0.000000 ICntrl=     500 IOpCl=  0 I1Cent=   200000004 NGrid=           0
         NMat0=    1 NMatS0=      1 NMatT0=    0 NMatD0=    1 NMtDS0=    0 NMtDT0=    0
 Petite list used in FoFCou.
 Keep R1 ints in memory in canonical form, NReq=3841495.
 Requested convergence on RMS density matrix=1.00D-08 within 128 cycles.
 Requested convergence on MAX density matrix=1.00D-06.
 Requested convergence on             energy=1.00D-06.
 No special actions if energy rises.
 SCF Done:  E(RM062X) =  -959.609454756     A.U. after    9 cycles
            NFock=  9  Conv=0.56D-08     -V/T= 2.0029
 Calling FoFJK, ICntrl=      2127 FMM=F ISym2X=0 I1Cent= 0 IOpClX= 0 NMat=1 NMatS=1 NMatT=0.
 ***** Axes restored to original set *****
 -------------------------------------------------------------------
 Center     Atomic                   Forces (Hartrees/Bohr)
 Number     Number              X              Y              Z
 -------------------------------------------------------------------
      1        6           0.001840365   -0.000451631    0.000459862
      2       17          -0.000190398    0.000055140   -0.000021616
      3       17          -0.000180428    0.000042421   -0.000073657
      4        1          -0.000644471    0.000508164   -0.000245733
      5        1          -0.000825068   -0.000154095   -0.000118856
 -------------------------------------------------------------------
 Cartesian Forces:  Max     0.001840365 RMS     0.000596350

 GradGradGradGradGradGradGradGradGradGradGradGradGradGradGradGradGradGrad
 Berny optimization.
 Using GEDIIS/GDIIS optimizer.
 FormGI is forming the generalized inverse of G from B-inverse, IUseBI=4.
 Internal  Forces:  Max     0.001190735 RMS     0.000390582
 Search for a local minimum.
 Step number   2 out of a maximum of   24
 All quantities printed in internal units (Hartrees-Bohrs-Radians)
 Mixed Optimization -- En-DIIS/RFO-DIIS
 Update second derivatives using D2CorX and points    1    2
 DE= -3.02D-04 DEPred=-2.98D-04 R= 1.01D+00
 TightC=F SS=  1.41D+00  RLast= 6.48D-02 DXNew= 5.0454D-01 1.9448D-01
 Trust test= 1.01D+00 RLast= 6.48D-02 DXMaxT set to 3.00D-01
 The second derivative matrix:
                          R1        R2        R3        R4        A1
           R1           0.28830
           R2          -0.00052   0.28829
           R3           0.00092   0.00090   0.34348
           R4           0.00093   0.00092  -0.00138   0.34358
           A1          -0.02610  -0.02597   0.02926   0.02874   0.15517
           A2           0.00279   0.00277  -0.00324  -0.00319   0.01867
           A3           0.00052   0.00051  -0.00077  -0.00077   0.01592
           A4           0.00280   0.00279  -0.00325  -0.00321   0.01871
           A5           0.00052   0.00051  -0.00077  -0.00077   0.01598
           A6           0.00202   0.00202  -0.00192  -0.00186  -0.01865
           D1           0.01533   0.01526  -0.01668  -0.01633   0.01751
           D2          -0.01261  -0.01255   0.01371   0.01343  -0.01432
           D3          -0.00629  -0.00626   0.00684   0.00670  -0.00714
           D4           0.00632   0.00629  -0.00687  -0.00673   0.00717
                          A2        A3        A4        A5        A6
           A2           0.15716
           A3          -0.00177   0.15957
           A4          -0.00285  -0.00178   0.15714
           A5          -0.00177  -0.00043  -0.00178   0.15957
           A6           0.00114  -0.00103   0.00115  -0.00103   0.16403
           D1          -0.00716  -0.00904  -0.00716  -0.00908   0.01475
           D2           0.00588   0.00743   0.00588   0.00747  -0.01214
           D3           0.00293   0.00371   0.00293   0.00372  -0.00605
           D4          -0.00295  -0.00372  -0.00295  -0.00374   0.00608
                          D1        D2        D3        D4
           D1           0.01567
           D2          -0.01104   0.01142
           D3          -0.00551   0.00455   0.00457
           D4           0.00553  -0.00457  -0.00228   0.00459
 ITU=  1  0
 Use linear search instead of GDIIS.
     Eigenvalues ---    0.05760   0.07600   0.09463   0.14439   0.16000
     Eigenvalues ---    0.28852   0.28882   0.34291   0.34491
 RFO step:  Lambda=-1.87048096D-05 EMin= 5.76007831D-02
 Quartic linear search produced a step of  0.02607.
 Iteration  1 RMS(Cart)=  0.00294253 RMS(Int)=  0.00001145
 Iteration  2 RMS(Cart)=  0.00001083 RMS(Int)=  0.00000322
 Iteration  3 RMS(Cart)=  0.00000000 RMS(Int)=  0.00000322
 Variable       Old X    -DE/DX   Delta X   Delta X   Delta X     New X
                                 (Linear)    (Quad)   (Total)
    R1        3.35102   0.00009   0.00030   0.00037   0.00067   3.35169
    R2        3.35104   0.00009   0.00030   0.00036   0.00066   3.35171
    R3        2.05449  -0.00015  -0.00028  -0.00051  -0.00079   2.05370
    R4        2.05450  -0.00016  -0.00027  -0.00052  -0.00079   2.05370
    A1        1.97362  -0.00004   0.00088  -0.00309  -0.00223   1.97139
    A2        1.88975  -0.00031  -0.00033  -0.00162  -0.00195   1.88779
    A3        1.88965  -0.00024  -0.00033  -0.00146  -0.00179   1.88785
    A4        1.88972  -0.00031  -0.00033  -0.00160  -0.00194   1.88779
    A5        1.88962  -0.00024  -0.00033  -0.00145  -0.00178   1.88785
    A6        1.93194   0.00119   0.00045   0.00966   0.01010   1.94204
    D1        2.14576  -0.00042   0.00067  -0.00572  -0.00505   2.14071
    D2       -2.14564   0.00034  -0.00067   0.00553   0.00486  -2.14078
    D3        2.06880   0.00017  -0.00033   0.00275   0.00241   2.07121
    D4       -2.06875  -0.00017   0.00034  -0.00278  -0.00244  -2.07120
         Item               Value     Threshold  Converged?
 Maximum Force            0.001191     0.000450     NO 
 RMS     Force            0.000391     0.000300     NO 
 Maximum Displacement     0.005837     0.001800     NO 
 RMS     Displacement     0.002938     0.001200     NO 
 Predicted change in Energy=-9.547066D-06
 GradGradGradGradGradGradGradGradGradGradGradGradGradGradGradGradGradGrad

                          Input orientation:                          
 ---------------------------------------------------------------------
 Center     Atomic      Atomic             Coordinates (Angstroms)
 Number     Number       Type             X           Y           Z
 ---------------------------------------------------------------------
      1          6           0        0.138642   -0.032715    0.033958
      2         17           0       -0.523241   -0.157082   -1.606847
      3         17           0       -1.054229    0.529105    1.220228
      4          1           0        0.959151    0.679661    0.015163
      5          1           0        0.479676   -1.018969    0.337398
 ---------------------------------------------------------------------
                    Distance matrix (angstroms):
                    1          2          3          4          5
     1  C    0.000000
     2  Cl   1.773639   0.000000
     3  Cl   1.773646   2.957221   0.000000
     4  H    1.086769   2.351285   2.351287   0.000000
     5  H    1.086774   2.351336   2.351337   1.794178   0.000000
 Stoichiometry    CH2Cl2
 Framework group  C1[X(CH2Cl2)]
 Deg. of freedom     9
 Full point group                 C1      NOp   1
 Largest Abelian subgroup         C1      NOp   1
 Largest concise Abelian subgroup C1      NOp   1
                         Standard orientation:                         
 ---------------------------------------------------------------------
 Center     Atomic      Atomic             Coordinates (Angstroms)
 Number     Number       Type             X           Y           Z
 ---------------------------------------------------------------------
      1          6           0        0.000004    0.763759    0.000002
      2         17           0        1.478610   -0.215793    0.000002
      3         17           0       -1.478611   -0.215792    0.000002
      4          1           0        0.000001    1.377136   -0.897125
      5          1           0        0.000001    1.377253    0.897053
 ---------------------------------------------------------------------
 Rotational constants (GHZ):     32.4302903      3.2705078      3.0286619
 Standard basis: 6-31+G(d) (6D, 7F)
 There are    69 symmetry adapted cartesian basis functions of A   symmetry.
 There are    69 symmetry adapted basis functions of A   symmetry.
    69 basis functions,   152 primitive gaussians,    69 cartesian basis functions
    21 alpha electrons       21 beta electrons
       nuclear repulsion energy       134.0213684635 Hartrees.
 NAtoms=    5 NActive=    5 NUniq=    5 SFac= 1.00D+00 NAtFMM=   60 NAOKFM=F Big=F
 Integral buffers will be    131072 words long.
 Raffenetti 2 integral format.
 Two-electron integral symmetry is turned on.
 One-electron integrals computed using PRISM.
 NBasis=    69 RedAO= T EigKep=  7.34D-04  NBF=    69
 NBsUse=    69 1.00D-06 EigRej= -1.00D+00 NBFU=    69
 Initial guess from the checkpoint file:  "/srv/scratch/z5358697/gauss/Gau-1774447.chk"
 B after Tr=     0.000000    0.000000    0.000000
         Rot=    1.000000    0.000025    0.000000    0.000000 Ang=   0.00 deg.
 Keep R1 ints in memory in canonical form, NReq=3841495.
 Requested convergence on RMS density matrix=1.00D-08 within 128 cycles.
 Requested convergence on MAX density matrix=1.00D-06.
 Requested convergence on             energy=1.00D-06.
 No special actions if energy rises.
 SCF Done:  E(RM062X) =  -959.609465352     A.U. after    8 cycles
            NFock=  8  Conv=0.10D-07     -V/T= 2.0029
 Calling FoFJK, ICntrl=      2127 FMM=F ISym2X=0 I1Cent= 0 IOpClX= 0 NMat=1 NMatS=1 NMatT=0.
 ***** Axes restored to original set *****
 -------------------------------------------------------------------
 Center     Atomic                   Forces (Hartrees/Bohr)
 Number     Number              X              Y              Z
 -------------------------------------------------------------------
      1        6           0.000472840   -0.000104139    0.000116171
      2       17          -0.000161917    0.000002371   -0.000210442
      3       17          -0.000222310    0.000081411    0.000116202
      4        1          -0.000031488    0.000043150   -0.000016537
      5        1          -0.000057126   -0.000022792   -0.000005393
 -------------------------------------------------------------------
 Cartesian Forces:  Max     0.000472840 RMS     0.000162259

 GradGradGradGradGradGradGradGradGradGradGradGradGradGradGradGradGradGrad
 Berny optimization.
 Using GEDIIS/GDIIS optimizer.
 FormGI is forming the generalized inverse of G from B-inverse, IUseBI=4.
 Internal  Forces:  Max     0.000254939 RMS     0.000104685
 Search for a local minimum.
 Step number   3 out of a maximum of   24
 All quantities printed in internal units (Hartrees-Bohrs-Radians)
 Mixed Optimization -- En-DIIS/RFO-DIIS
 Swapping is turned off.
 Update second derivatives using D2CorX and points    1    2    3
 DE= -1.06D-05 DEPred=-9.55D-06 R= 1.11D+00
 TightC=F SS=  1.41D+00  RLast= 1.36D-02 DXNew= 5.0454D-01 4.0691D-02
 Trust test= 1.11D+00 RLast= 1.36D-02 DXMaxT set to 3.00D-01
 The second derivative matrix:
                          R1        R2        R3        R4        A1
           R1           0.28717
           R2          -0.00164   0.28719
           R3           0.00441   0.00437   0.34398
           R4           0.00441   0.00438  -0.00093   0.34398
           A1          -0.01971  -0.01967   0.01638   0.01586   0.12314
           A2           0.00698   0.00694  -0.00168  -0.00170   0.00372
           A3           0.00441   0.00438   0.00006   0.00000   0.00169
           A4           0.00697   0.00693  -0.00166  -0.00168   0.00389
           A5           0.00438   0.00435   0.00008   0.00001   0.00187
           A6          -0.01811  -0.01795   0.00132   0.00164   0.05958
           D1           0.01550   0.01545  -0.01106  -0.01075   0.02022
           D2          -0.01267  -0.01263   0.00939   0.00913  -0.01667
           D3          -0.00632  -0.00630   0.00469   0.00457  -0.00833
           D4           0.00635   0.00633  -0.00470  -0.00457   0.00835
                          A2        A3        A4        A5        A6
           A2           0.16027
           A3           0.00032   0.16080
           A4           0.00029   0.00034   0.16031
           A5           0.00033   0.00081   0.00035   0.16083
           A6           0.00007   0.00122  -0.00012   0.00108   0.11298
           D1           0.00013  -0.00262   0.00010  -0.00270  -0.01431
           D2           0.00029   0.00250   0.00032   0.00256   0.01034
           D3           0.00016   0.00126   0.00017   0.00129   0.00512
           D4          -0.00014  -0.00125  -0.00015  -0.00127  -0.00521
                          D1        D2        D3        D4
           D1           0.01902
           D2          -0.01351   0.01324
           D3          -0.00673   0.00545   0.00502
           D4           0.00678  -0.00549  -0.00273   0.00505
 ITU=  1  1  0
     Eigenvalues ---    0.05698   0.06883   0.09052   0.14736   0.16000
     Eigenvalues ---    0.28882   0.29440   0.34451   0.34491
 En-DIIS/RFO-DIIS IScMMF=        0 using points:     3    2
 RFO step:  Lambda=-3.58191809D-07.
 DidBck=F Rises=F RFO-DIIS coefs:    1.12389   -0.12389
 Iteration  1 RMS(Cart)=  0.00050039 RMS(Int)=  0.00000066
 Iteration  2 RMS(Cart)=  0.00000035 RMS(Int)=  0.00000059
 Variable       Old X    -DE/DX   Delta X   Delta X   Delta X     New X
                                 (Linear)    (Quad)   (Total)
    R1        3.35169   0.00025   0.00008   0.00099   0.00107   3.35276
    R2        3.35171   0.00025   0.00008   0.00098   0.00106   3.35277
    R3        2.05370   0.00000  -0.00010   0.00003  -0.00007   2.05363
    R4        2.05370   0.00000  -0.00010   0.00002  -0.00008   2.05363
    A1        1.97139  -0.00007  -0.00028  -0.00068  -0.00096   1.97043
    A2        1.88779   0.00000  -0.00024   0.00020  -0.00004   1.88775
    A3        1.88785   0.00000  -0.00022   0.00011  -0.00012   1.88774
    A4        1.88779   0.00000  -0.00024   0.00020  -0.00004   1.88775
    A5        1.88785   0.00000  -0.00022   0.00011  -0.00011   1.88773
    A6        1.94204   0.00006   0.00125   0.00006   0.00131   1.94335
    D1        2.14071  -0.00008  -0.00063  -0.00059  -0.00121   2.13950
    D2       -2.14078   0.00008   0.00060   0.00070   0.00130  -2.13948
    D3        2.07121   0.00004   0.00030   0.00035   0.00065   2.07186
    D4       -2.07120  -0.00004  -0.00030  -0.00035  -0.00065  -2.07185
         Item               Value     Threshold  Converged?
 Maximum Force            0.000255     0.000450     YES
 RMS     Force            0.000105     0.000300     YES
 Maximum Displacement     0.001180     0.001800     YES
 RMS     Displacement     0.000500     0.001200     YES
 Predicted change in Energy=-4.695931D-07
 Optimization completed.
    -- Stationary point found.
                           ----------------------------
                           !   Optimized Parameters   !
                           ! (Angstroms and Degrees)  !
 --------------------------                            --------------------------
 ! Name  Definition              Value          Derivative Info.                !
 --------------------------------------------------------------------------------
 ! R1    R(1,2)                  1.7736         -DE/DX =    0.0003              !
 ! R2    R(1,3)                  1.7736         -DE/DX =    0.0003              !
 ! R3    R(1,4)                  1.0868         -DE/DX =    0.0                 !
 ! R4    R(1,5)                  1.0868         -DE/DX =    0.0                 !
 ! A1    A(2,1,3)              112.9526         -DE/DX =   -0.0001              !
 ! A2    A(2,1,4)              108.1625         -DE/DX =    0.0                 !
 ! A3    A(2,1,5)              108.166          -DE/DX =    0.0                 !
 ! A4    A(3,1,4)              108.1622         -DE/DX =    0.0                 !
 ! A5    A(3,1,5)              108.1657         -DE/DX =    0.0                 !
 ! A6    A(4,1,5)              111.2708         -DE/DX =    0.0001              !
 ! D1    D(2,1,4,3)            122.6536         -DE/DX =   -0.0001              !
 ! D2    D(2,1,5,3)           -122.6578         -DE/DX =    0.0001              !
 ! D3    D(2,1,5,4)            118.6714         -DE/DX =    0.0                 !
 ! D4    D(3,1,5,4)           -118.6708         -DE/DX =    0.0                 !
 --------------------------------------------------------------------------------
 GradGradGradGradGradGradGradGradGradGradGradGradGradGradGradGradGradGrad

                          Input orientation:                          
 ---------------------------------------------------------------------
 Center     Atomic      Atomic             Coordinates (Angstroms)
 Number     Number       Type             X           Y           Z
 ---------------------------------------------------------------------
      1          6           0        0.138642   -0.032715    0.033958
      2         17           0       -0.523241   -0.157082   -1.606847
      3         17           0       -1.054229    0.529105    1.220228
      4          1           0        0.959151    0.679661    0.015163
      5          1           0        0.479676   -1.018969    0.337398
 ---------------------------------------------------------------------
                    Distance matrix (angstroms):
                    1          2          3          4          5
     1  C    0.000000
     2  Cl   1.773639   0.000000
     3  Cl   1.773646   2.957221   0.000000
     4  H    1.086769   2.351285   2.351287   0.000000
     5  H    1.086774   2.351336   2.351337   1.794178   0.000000
 Stoichiometry    CH2Cl2
 Framework group  C1[X(CH2Cl2)]
 Deg. of freedom     9
 Full point group                 C1      NOp   1
 Largest Abelian subgroup         C1      NOp   1
 Largest concise Abelian subgroup C1      NOp   1
                         Standard orientation:                         
 ---------------------------------------------------------------------
 Center     Atomic      Atomic             Coordinates (Angstroms)
 Number     Number       Type             X           Y           Z
 ---------------------------------------------------------------------
      1          6           0        0.000004    0.763759    0.000002
      2         17           0        1.478610   -0.215793    0.000002
      3         17           0       -1.478611   -0.215792    0.000002
      4          1           0        0.000001    1.377136   -0.897125
      5          1           0        0.000001    1.377253    0.897053
 ---------------------------------------------------------------------
 Rotational constants (GHZ):     32.4302903      3.2705078      3.0286619

 **********************************************************************

            Population analysis using the SCF density.

 **********************************************************************

 Orbital symmetries:
       Occupied  (A) (A) (A) (A) (A) (A) (A) (A) (A) (A) (A) (A)
                 (A) (A) (A) (A) (A) (A) (A) (A) (A)
       Virtual   (A) (A) (A) (A) (A) (A) (A) (A) (A) (A) (A) (A)
                 (A) (A) (A) (A) (A) (A) (A) (A) (A) (A) (A) (A)
                 (A) (A) (A) (A) (A) (A) (A) (A) (A) (A) (A) (A)
                 (A) (A) (A) (A) (A) (A) (A) (A) (A) (A) (A) (A)
 The electronic state is 1-A.
 Alpha  occ. eigenvalues -- -102.68119-102.68119 -10.67736  -9.82865  -9.82864
 Alpha  occ. eigenvalues --   -7.55292  -7.55291  -7.54583  -7.54583  -7.54553
 Alpha  occ. eigenvalues --   -7.54553  -1.01426  -0.92986  -0.76022  -0.57822
 Alpha  occ. eigenvalues --   -0.53532  -0.51362  -0.39816  -0.39795  -0.37853
 Alpha  occ. eigenvalues --   -0.37396
 Alpha virt. eigenvalues --    0.00933   0.02849   0.03292   0.05704   0.06788
 Alpha virt. eigenvalues --    0.08591   0.09227   0.10355   0.10809   0.10910
 Alpha virt. eigenvalues --    0.12051   0.14633   0.15660   0.19060   0.21248
 Alpha virt. eigenvalues --    0.26948   0.56767   0.58696   0.59925   0.61496
 Alpha virt. eigenvalues --    0.62625   0.64100   0.66288   0.66760   0.67178
 Alpha virt. eigenvalues --    0.68060   0.76587   0.84830   0.90693   0.92684
 Alpha virt. eigenvalues --    0.92759   0.93378   0.96095   0.99105   0.99835
 Alpha virt. eigenvalues --    1.03024   1.13250   1.14709   1.18551   1.41881
 Alpha virt. eigenvalues --    1.73940   1.77419   2.14788   2.20342   2.25459
 Alpha virt. eigenvalues --    4.09575   4.41588   4.42912
          Condensed to atoms (all electrons):
               1          2          3          4          5
     1  C    5.556909   0.173288   0.173287   0.371057   0.371044
     2  Cl   0.173288  16.946546  -0.048319  -0.052624  -0.052614
     3  Cl   0.173287  -0.048319  16.946551  -0.052624  -0.052614
     4  H    0.371057  -0.052624  -0.052624   0.477758  -0.032642
     5  H    0.371044  -0.052614  -0.052614  -0.032642   0.477754
 Mulliken charges:
               1
     1  C   -0.645586
     2  Cl   0.033723
     3  Cl   0.033718
     4  H    0.289074
     5  H    0.289071
 Sum of Mulliken charges =   0.00000
 Mulliken charges with hydrogens summed into heavy atoms:
               1
     1  C   -0.067441
     2  Cl   0.033723
     3  Cl   0.033718
 Electronic spatial extent (au):  <R**2>=            374.3455
 Charge=              0.0000 electrons
 Dipole moment (field-independent basis, Debye):
    X=              0.0000    Y=              1.8987    Z=              0.0000  Tot=              1.8987
 Quadrupole moment (field-independent basis, Debye-Ang):
   XX=            -34.5029   YY=            -29.9607   ZZ=            -31.6366
   XY=              0.0000   XZ=              0.0000   YZ=              0.0001
 Traceless Quadrupole moment (field-independent basis, Debye-Ang):
   XX=             -2.4695   YY=              2.0727   ZZ=              0.3968
   XY=              0.0000   XZ=              0.0000   YZ=              0.0001
 Octapole moment (field-independent basis, Debye-Ang**2):
  XXX=              0.0001  YYY=              1.9148  ZZZ=             -0.0002  XYY=              0.0000
  XXY=             -4.2684  XXZ=             -0.0001  XZZ=              0.0000  YZZ=              2.0526
  YYZ=              0.0002  XYZ=              0.0000
 Hexadecapole moment (field-independent basis, Debye-Ang**3):
 XXXX=           -359.8031 YYYY=            -73.0458 ZZZZ=            -42.1922 XXXY=              0.0000
 XXXZ=              0.0000 YYYX=              0.0000 YYYZ=              0.0006 ZZZX=              0.0000
 ZZZY=             -0.0001 XXYY=            -71.7986 XXZZ=            -71.8394 YYZZ=            -17.3560
 XXYZ=              0.0001 YYXZ=              0.0000 ZZXY=              0.0000
 N-N= 1.340213684635D+02 E-N=-2.546398445162D+03  KE= 9.568732831435D+02
 1\1\GINC-KATANA2\FOpt\RM062X\6-31+G(d)\C1H2Cl2\Z5358697\13-Mar-2025\0\
 \#m062X/6-31+G(d) OPT Freq=noraman\\dichloromethane\\0,1\C,0.138642174
 6,-0.0327149018,0.0339576835\Cl,-0.5232410311,-0.1570819879,-1.6068470
 318\Cl,-1.054228866,0.5291050004,1.2202282624\H,0.9591513961,0.6796607
 342,0.0151629207\H,0.4796763265,-1.018968845,0.3373981652\\Version=ES6
 4L-G09RevD.01\State=1-A\HF=-959.6094654\RMSD=9.973e-09\RMSF=1.623e-04\
 Dipole=0.7072104,-0.1667838,0.1733005\Quadrupole=1.3430818,0.2424205,-
 1.5855023,-0.1746629,0.6395059,-0.5372873\PG=C01 [X(C1H2Cl2)]\\@


 SLITHERY-DITHERY
 FRIEDRICH A. KEKULE
 DREAMT ON A BUS OF THINGS
 FREUD WOULD THINK KEEN.
 MOST OF THE TIME THEY WERE
 HERPETOLOGICAL
 BITING THEIR TAILS IN THE
 SHAPE OF BENZENE.
 Job cpu time:       0 days  0 hours  0 minutes 13.9 seconds.
 File lengths (MBytes):  RWF=    132 Int=      0 D2E=      0 Chk=      2 Scr=      2
 Normal termination of Gaussian 09 at Thu Mar 13 14:56:04 2025.
 Link1:  Proceeding to internal job step number  2.
 ---------------------------------------------------------------------
 #N Geom=AllCheck Guess=TCheck SCRF=Check GenChk RM062X/6-31+G(d) Freq
 ---------------------------------------------------------------------
 1/10=4,29=7,30=1,38=1,40=1/1,3;
 2/12=2,40=1/2;
 3/5=1,6=6,7=11,11=2,14=-4,16=1,25=1,30=1,70=2,71=2,74=-55,116=1,140=1/1,2,3;
 4/5=101/1;
 5/5=2,98=1/2;
 8/6=4,10=90,11=11/1;
 11/6=1,8=1,9=11,15=111,16=1/1,2,10;
 10/6=1/2;
 6/7=2,8=2,9=2,10=2,18=1,28=1/1;
 7/8=1,10=1,25=1/1,2,3,16;
 1/10=4,30=1/3;
 99//99;
 Structure from the checkpoint file:  "/srv/scratch/z5358697/gauss/Gau-1774447.chk"
 ---------------
 dichloromethane
 ---------------
 Charge =  0 Multiplicity = 1
 Redundant internal coordinates found in file.
 C,0,0.1386421746,-0.0327149018,0.0339576835
 Cl,0,-0.5232410311,-0.1570819879,-1.6068470318
 Cl,0,-1.054228866,0.5291050004,1.2202282624
 H,0,0.9591513961,0.6796607342,0.0151629207
 H,0,0.4796763265,-1.018968845,0.3373981652
 Recover connectivity data from disk.

 GradGradGradGradGradGradGradGradGradGradGradGradGradGradGradGradGradGrad
 Berny optimization.
 Initialization pass.
                           ----------------------------
                           !    Initial Parameters    !
                           ! (Angstroms and Degrees)  !
 --------------------------                            --------------------------
 ! Name  Definition              Value          Derivative Info.                !
 --------------------------------------------------------------------------------
 ! R1    R(1,2)                  1.7736         calculate D2E/DX2 analytically  !
 ! R2    R(1,3)                  1.7736         calculate D2E/DX2 analytically  !
 ! R3    R(1,4)                  1.0868         calculate D2E/DX2 analytically  !
 ! R4    R(1,5)                  1.0868         calculate D2E/DX2 analytically  !
 ! A1    A(2,1,3)              112.9526         calculate D2E/DX2 analytically  !
 ! A2    A(2,1,4)              108.1625         calculate D2E/DX2 analytically  !
 ! A3    A(2,1,5)              108.166          calculate D2E/DX2 analytically  !
 ! A4    A(3,1,4)              108.1622         calculate D2E/DX2 analytically  !
 ! A5    A(3,1,5)              108.1657         calculate D2E/DX2 analytically  !
 ! A6    A(4,1,5)              111.2708         calculate D2E/DX2 analytically  !
 ! D1    D(2,1,4,3)            122.6536         calculate D2E/DX2 analytically  !
 ! D2    D(2,1,5,3)           -122.6578         calculate D2E/DX2 analytically  !
 ! D3    D(2,1,5,4)            118.6714         calculate D2E/DX2 analytically  !
 ! D4    D(3,1,5,4)           -118.6708         calculate D2E/DX2 analytically  !
 --------------------------------------------------------------------------------
 Trust Radius=3.00D-01 FncErr=1.00D-07 GrdErr=1.00D-07
 Number of steps in this run=      2 maximum allowed number of steps=      2.
 GradGradGradGradGradGradGradGradGradGradGradGradGradGradGradGradGradGrad

                          Input orientation:                          
 ---------------------------------------------------------------------
 Center     Atomic      Atomic             Coordinates (Angstroms)
 Number     Number       Type             X           Y           Z
 ---------------------------------------------------------------------
      1          6           0        0.138642   -0.032715    0.033958
      2         17           0       -0.523241   -0.157082   -1.606847
      3         17           0       -1.054229    0.529105    1.220228
      4          1           0        0.959151    0.679661    0.015163
      5          1           0        0.479676   -1.018969    0.337398
 ---------------------------------------------------------------------
                    Distance matrix (angstroms):
                    1          2          3          4          5
     1  C    0.000000
     2  Cl   1.773639   0.000000
     3  Cl   1.773646   2.957221   0.000000
     4  H    1.086769   2.351285   2.351287   0.000000
     5  H    1.086774   2.351336   2.351337   1.794178   0.000000
 Stoichiometry    CH2Cl2
 Framework group  C1[X(CH2Cl2)]
 Deg. of freedom     9
 Full point group                 C1      NOp   1
 Largest Abelian subgroup         C1      NOp   1
 Largest concise Abelian subgroup C1      NOp   1
                         Standard orientation:                         
 ---------------------------------------------------------------------
 Center     Atomic      Atomic             Coordinates (Angstroms)
 Number     Number       Type             X           Y           Z
 ---------------------------------------------------------------------
      1          6           0        0.000004    0.763759    0.000002
      2         17           0        1.478610   -0.215793    0.000002
      3         17           0       -1.478611   -0.215792    0.000002
      4          1           0        0.000001    1.377136   -0.897125
      5          1           0        0.000001    1.377253    0.897053
 ---------------------------------------------------------------------
 Rotational constants (GHZ):     32.4302903      3.2705078      3.0286619
 Standard basis: 6-31+G(d) (6D, 7F)
 There are    69 symmetry adapted cartesian basis functions of A   symmetry.
 There are    69 symmetry adapted basis functions of A   symmetry.
    69 basis functions,   152 primitive gaussians,    69 cartesian basis functions
    21 alpha electrons       21 beta electrons
       nuclear repulsion energy       134.0213684635 Hartrees.
 NAtoms=    5 NActive=    5 NUniq=    5 SFac= 1.00D+00 NAtFMM=   60 NAOKFM=F Big=F
 Integral buffers will be    131072 words long.
 Raffenetti 2 integral format.
 Two-electron integral symmetry is turned on.
 One-electron integrals computed using PRISM.
 NBasis=    69 RedAO= T EigKep=  7.34D-04  NBF=    69
 NBsUse=    69 1.00D-06 EigRej= -1.00D+00 NBFU=    69
 Initial guess from the checkpoint file:  "/srv/scratch/z5358697/gauss/Gau-1774447.chk"
 B after Tr=     0.000000    0.000000    0.000000
         Rot=    1.000000    0.000000    0.000000    0.000000 Ang=   0.00 deg.
 Keep R1 ints in memory in canonical form, NReq=3841495.
 Requested convergence on RMS density matrix=1.00D-08 within 128 cycles.
 Requested convergence on MAX density matrix=1.00D-06.
 Requested convergence on             energy=1.00D-06.
 No special actions if energy rises.
 SCF Done:  E(RM062X) =  -959.609465352     A.U. after    1 cycles
            NFock=  1  Conv=0.98D-09     -V/T= 2.0029
 DoSCS=F DFT=T ScalE2(SS,OS)=  1.000000  1.000000
 Range of M.O.s used for correlation:     1    69
 NBasis=    69 NAE=    21 NBE=    21 NFC=     0 NFV=     0
 NROrb=     69 NOA=    21 NOB=    21 NVA=    48 NVB=    48

 **** Warning!!: The largest alpha MO coefficient is  0.19233964D+02

 Symmetrizing basis deriv contribution to polar:
 IMax=3 JMax=2 DiffMx= 0.00D+00
 G2DrvN: will do     6 centers at a time, making    1 passes.
 Calling FoFCou, ICntrl=  3107 FMM=F I1Cent=   0 AccDes= 0.00D+00.
 End of G2Drv F.D. properties file   721 does not exist.
 End of G2Drv F.D. properties file   722 does not exist.
 End of G2Drv F.D. properties file   788 does not exist.
          IDoAtm=11111
          Differentiating once with respect to electric field.
                with respect to dipole field.
          Differentiating once with respect to nuclear coordinates.
 Keep R1 ints in memory in canonical form, NReq=3807944.
          There are    18 degrees of freedom in the 1st order CPHF.  IDoFFX=6 NUNeed=     3.
     15 vectors produced by pass  0 Test12= 5.60D-15 5.56D-09 XBig12= 2.22D+01 1.99D+00.
 AX will form    15 AO Fock derivatives at one time.
     15 vectors produced by pass  1 Test12= 5.60D-15 5.56D-09 XBig12= 2.30D+00 4.46D-01.
     15 vectors produced by pass  2 Test12= 5.60D-15 5.56D-09 XBig12= 4.78D-02 6.66D-02.
     15 vectors produced by pass  3 Test12= 5.60D-15 5.56D-09 XBig12= 7.57D-04 8.64D-03.
     15 vectors produced by pass  4 Test12= 5.60D-15 5.56D-09 XBig12= 4.45D-06 5.03D-04.
     15 vectors produced by pass  5 Test12= 5.60D-15 5.56D-09 XBig12= 1.45D-08 5.61D-05.
     12 vectors produced by pass  6 Test12= 5.60D-15 5.56D-09 XBig12= 3.84D-11 1.57D-06.
      3 vectors produced by pass  7 Test12= 5.60D-15 5.56D-09 XBig12= 1.15D-13 8.03D-08.
 InvSVY:  IOpt=1 It=  1 EMax= 1.55D-15
 Solved reduced A of dimension   105 with    15 vectors.
 Isotropic polarizability for W=    0.000000       34.43 Bohr**3.
 End of Minotr F.D. properties file   721 does not exist.
 End of Minotr F.D. properties file   722 does not exist.
 End of Minotr F.D. properties file   788 does not exist.

 **********************************************************************

            Population analysis using the SCF density.

 **********************************************************************

 Orbital symmetries:
       Occupied  (A) (A) (A) (A) (A) (A) (A) (A) (A) (A) (A) (A)
                 (A) (A) (A) (A) (A) (A) (A) (A) (A)
       Virtual   (A) (A) (A) (A) (A) (A) (A) (A) (A) (A) (A) (A)
                 (A) (A) (A) (A) (A) (A) (A) (A) (A) (A) (A) (A)
                 (A) (A) (A) (A) (A) (A) (A) (A) (A) (A) (A) (A)
                 (A) (A) (A) (A) (A) (A) (A) (A) (A) (A) (A) (A)
 The electronic state is 1-A.
 Alpha  occ. eigenvalues -- -102.68119-102.68119 -10.67736  -9.82865  -9.82864
 Alpha  occ. eigenvalues --   -7.55292  -7.55291  -7.54583  -7.54583  -7.54553
 Alpha  occ. eigenvalues --   -7.54553  -1.01426  -0.92986  -0.76022  -0.57822
 Alpha  occ. eigenvalues --   -0.53532  -0.51362  -0.39816  -0.39795  -0.37853
 Alpha  occ. eigenvalues --   -0.37396
 Alpha virt. eigenvalues --    0.00933   0.02849   0.03292   0.05704   0.06788
 Alpha virt. eigenvalues --    0.08591   0.09227   0.10355   0.10809   0.10910
 Alpha virt. eigenvalues --    0.12051   0.14633   0.15660   0.19060   0.21248
 Alpha virt. eigenvalues --    0.26948   0.56767   0.58696   0.59925   0.61496
 Alpha virt. eigenvalues --    0.62625   0.64100   0.66288   0.66760   0.67178
 Alpha virt. eigenvalues --    0.68060   0.76587   0.84830   0.90693   0.92684
 Alpha virt. eigenvalues --    0.92759   0.93378   0.96095   0.99105   0.99835
 Alpha virt. eigenvalues --    1.03024   1.13250   1.14709   1.18551   1.41881
 Alpha virt. eigenvalues --    1.73940   1.77419   2.14788   2.20342   2.25459
 Alpha virt. eigenvalues --    4.09575   4.41588   4.42912
          Condensed to atoms (all electrons):
               1          2          3          4          5
     1  C    5.556909   0.173288   0.173287   0.371057   0.371044
     2  Cl   0.173288  16.946546  -0.048319  -0.052624  -0.052614
     3  Cl   0.173287  -0.048319  16.946551  -0.052624  -0.052614
     4  H    0.371057  -0.052624  -0.052624   0.477758  -0.032642
     5  H    0.371044  -0.052614  -0.052614  -0.032642   0.477754
 Mulliken charges:
               1
     1  C   -0.645586
     2  Cl   0.033723
     3  Cl   0.033718
     4  H    0.289074
     5  H    0.289071
 Sum of Mulliken charges =   0.00000
 Mulliken charges with hydrogens summed into heavy atoms:
               1
     1  C   -0.067441
     2  Cl   0.033723
     3  Cl   0.033718
 APT charges:
               1
     1  C    0.676064
     2  Cl  -0.320314
     3  Cl  -0.320318
     4  H   -0.017717
     5  H   -0.017715
 Sum of APT charges =   0.00000
 APT charges with hydrogens summed into heavy atoms:
               1
     1  C    0.640632
     2  Cl  -0.320314
     3  Cl  -0.320318
 Electronic spatial extent (au):  <R**2>=            374.3455
 Charge=              0.0000 electrons
 Dipole moment (field-independent basis, Debye):
    X=              0.0000    Y=              1.8987    Z=              0.0000  Tot=              1.8987
 Quadrupole moment (field-independent basis, Debye-Ang):
   XX=            -34.5029   YY=            -29.9607   ZZ=            -31.6366
   XY=              0.0000   XZ=              0.0000   YZ=              0.0001
 Traceless Quadrupole moment (field-independent basis, Debye-Ang):
   XX=             -2.4695   YY=              2.0727   ZZ=              0.3968
   XY=              0.0000   XZ=              0.0000   YZ=              0.0001
 Octapole moment (field-independent basis, Debye-Ang**2):
  XXX=              0.0001  YYY=              1.9148  ZZZ=             -0.0002  XYY=              0.0000
  XXY=             -4.2684  XXZ=             -0.0001  XZZ=              0.0000  YZZ=              2.0526
  YYZ=              0.0002  XYZ=              0.0000
 Hexadecapole moment (field-independent basis, Debye-Ang**3):
 XXXX=           -359.8031 YYYY=            -73.0458 ZZZZ=            -42.1922 XXXY=              0.0000
 XXXZ=              0.0000 YYYX=              0.0000 YYYZ=              0.0006 ZZZX=              0.0000
 ZZZY=             -0.0001 XXYY=            -71.7986 XXZZ=            -71.8394 YYZZ=            -17.3560
 XXYZ=              0.0001 YYXZ=              0.0000 ZZXY=              0.0000
 N-N= 1.340213684635D+02 E-N=-2.546398444817D+03  KE= 9.568732830020D+02
  Exact polarizability:  46.515   0.000  30.622   0.000   0.000  26.154
 Approx polarizability:  49.527   0.000  34.814   0.000   0.000  28.793
 Calling FoFJK, ICntrl=    100127 FMM=F ISym2X=0 I1Cent= 0 IOpClX= 0 NMat=1 NMatS=1 NMatT=0.
 Full mass-weighted force constant matrix:
 Low frequencies ---  -41.7314  -26.8898  -22.7879   -0.0029    0.0019    0.0026
 Low frequencies ---  285.3654  724.7898  776.6090
 Diagonal vibrational polarizability:
        7.6981883       0.9536731       0.0488575
 Harmonic frequencies (cm**-1), IR intensities (KM/Mole), Raman scattering
 activities (A**4/AMU), depolarization ratios for plane and unpolarized
 incident light, reduced masses (AMU), force constants (mDyne/A),
 and normal coordinates:
                      1                      2                      3
                      A                      A                      A
 Frequencies --    285.3654               724.7898               776.6090
 Red. masses --     18.7380                 7.5499                 8.1983
 Frc consts  --      0.8990                 2.3368                 2.9132
 IR Inten    --      0.6442                14.1661               152.1551
  Atom  AN      X      Y      Z        X      Y      Z        X      Y      Z
     1   6     0.00  -0.43   0.00     0.00   0.63   0.00     0.70   0.00   0.00
     2  17     0.47   0.09   0.00     0.13  -0.12   0.00    -0.13   0.09   0.00
     3  17    -0.47   0.09   0.00    -0.13  -0.12   0.00    -0.13  -0.09   0.00
     4   1     0.00  -0.42   0.01     0.00   0.51  -0.08     0.48   0.00   0.00
     5   1     0.00  -0.42  -0.01     0.00   0.51   0.08     0.48   0.00   0.00
                      4                      5                      6
                      A                      A                      A
 Frequencies --    922.3272              1216.5825              1342.1839
 Red. masses --      1.3603                 1.0182                 1.1151
 Frc consts  --      0.6818                 0.8879                 1.1835
 IR Inten    --      1.5383                 0.0000                60.8525
  Atom  AN      X      Y      Z        X      Y      Z        X      Y      Z
     1   6     0.00   0.00   0.17     0.00   0.00   0.00    -0.09   0.00   0.00
     2  17     0.00   0.00  -0.02     0.00   0.00   0.01     0.00   0.01   0.00
     3  17     0.00   0.00  -0.02     0.00   0.00  -0.01     0.00  -0.01   0.00
     4   1     0.00  -0.65  -0.26    -0.71   0.00   0.00     0.70   0.00   0.00
     5   1     0.00   0.65  -0.26     0.71   0.00   0.00     0.70   0.00   0.00
                      7                      8                      9
                      A                      A                      A
 Frequencies --   1492.9603              3183.5220              3259.2782
 Red. masses --      1.0740                 1.0542                 1.1157
 Frc consts  --      1.4105                 6.2951                 6.9831
 IR Inten    --      0.0055                 5.6587                 0.0762
  Atom  AN      X      Y      Z        X      Y      Z        X      Y      Z
     1   6     0.00  -0.08   0.00     0.00   0.06   0.00     0.00   0.00   0.10
     2  17     0.00   0.00   0.00     0.00   0.00   0.00     0.00   0.00   0.00
     3  17     0.00   0.00   0.00     0.00   0.00   0.00     0.00   0.00   0.00
     4   1     0.00   0.57   0.42     0.00  -0.38   0.59     0.00   0.39  -0.58
     5   1     0.00   0.57  -0.42     0.00  -0.38  -0.59     0.00  -0.39  -0.58

 -------------------
 - Thermochemistry -
 -------------------
 Temperature   298.150 Kelvin.  Pressure   1.00000 Atm.
 Atom     1 has atomic number  6 and mass  12.00000
 Atom     2 has atomic number 17 and mass  34.96885
 Atom     3 has atomic number 17 and mass  34.96885
 Atom     4 has atomic number  1 and mass   1.00783
 Atom     5 has atomic number  1 and mass   1.00783
 Molecular mass:    83.95336 amu.
 Principal axes and moments of inertia in atomic units:
                           1         2         3
     Eigenvalues --    55.64986 551.82293 595.88732
           X            1.00000   0.00000   0.00000
           Y            0.00000   1.00000   0.00000
           Z            0.00000   0.00000   1.00000
 This molecule is an asymmetric top.
 Rotational symmetry number  1.
 Rotational temperatures (Kelvin)      1.55641     0.15696     0.14535
 Rotational constants (GHZ):          32.43029     3.27051     3.02866
 Zero-point vibrational energy      78975.2 (Joules/Mol)
                                   18.87552 (Kcal/Mol)
 Warning -- explicit consideration of   1 degrees of freedom as
           vibrations may cause significant error
 Vibrational temperatures:    410.58  1042.81  1117.37  1327.02  1750.39
          (Kelvin)           1931.10  2148.03  4580.37  4689.37
 
 Zero-point correction=                           0.030080 (Hartree/Particle)
 Thermal correction to Energy=                    0.033620
 Thermal correction to Enthalpy=                  0.034564
 Thermal correction to Gibbs Free Energy=         0.003289
 Sum of electronic and zero-point Energies=           -959.579385
 Sum of electronic and thermal Energies=              -959.575846
 Sum of electronic and thermal Enthalpies=            -959.574901
 Sum of electronic and thermal Free Energies=         -959.606176
 
                     E (Thermal)             CV                S
                      KCal/Mol        Cal/Mol-Kelvin    Cal/Mol-Kelvin
 Total                   21.097             10.005             65.823
 Electronic               0.000              0.000              0.000
 Translational            0.889              2.981             39.197
 Rotational               0.889              2.981             24.418
 Vibrational             19.319              4.044              2.208
 Vibration     1          0.683              1.701              1.501
                       Q            Log10(Q)             Ln(Q)
 Total Bot       0.306932D-01         -1.512957         -3.483713
 Total V=0       0.210319D+13         12.322879         28.374476
 Vib (Bot)       0.209638D-13        -13.678530        -31.495979
 Vib (Bot)    1  0.671818D+00         -0.172748         -0.397768
 Vib (V=0)       0.143650D+01          0.157306          0.362210
 Vib (V=0)    1  0.133746D+01          0.126281          0.290772
 Electronic      0.100000D+01          0.000000          0.000000
 Translational   0.302352D+08          7.480512         17.224516
 Rotational      0.484240D+05          4.685060         10.787750
 ***** Axes restored to original set *****
 -------------------------------------------------------------------
 Center     Atomic                   Forces (Hartrees/Bohr)
 Number     Number              X              Y              Z
 -------------------------------------------------------------------
      1        6           0.000472837   -0.000104139    0.000116170
      2       17          -0.000161917    0.000002372   -0.000210439
      3       17          -0.000222310    0.000081411    0.000116199
      4        1          -0.000031486    0.000043150   -0.000016537
      5        1          -0.000057124   -0.000022793   -0.000005392
 -------------------------------------------------------------------
 Cartesian Forces:  Max     0.000472837 RMS     0.000162257
 FormGI is forming the generalized inverse of G from B-inverse, IUseBI=4.

 GradGradGradGradGradGradGradGradGradGradGradGradGradGradGradGradGradGrad
 Berny optimization.
 Internal  Forces:  Max     0.000254937 RMS     0.000104684
 Search for a local minimum.
 Step number   1 out of a maximum of    2
 All quantities printed in internal units (Hartrees-Bohrs-Radians)
 Second derivative matrix not updated -- analytic derivatives used.
 The second derivative matrix:
                          R1        R2        R3        R4        A1
           R1           0.22625
           R2           0.03080   0.22625
           R3           0.00486   0.00486   0.36594
           R4           0.00486   0.00486   0.00251   0.36594
           A1           0.00421   0.00421   0.00131   0.00094   0.03103
           A2           0.00970  -0.00146  -0.00138  -0.00370  -0.00985
           A3           0.01810  -0.01277  -0.00351  -0.00109  -0.01747
           A4          -0.00146   0.00970  -0.00138  -0.00370  -0.00985
           A5          -0.01277   0.01810  -0.00351  -0.00109  -0.01747
           A6          -0.01849  -0.01849   0.00884   0.00902   0.02493
           D1           0.01004   0.01004  -0.00008  -0.00330   0.02577
           D2          -0.00830  -0.00830   0.00263   0.00017  -0.01662
           D3           0.01229  -0.02059   0.00131   0.00009  -0.00831
           D4           0.02059  -0.01229  -0.00131  -0.00009   0.00831
                          A2        A3        A4        A5        A6
           A2           0.04610
           A3          -0.02994   0.08907
           A4           0.00022   0.02234   0.04610
           A5           0.02234  -0.03786  -0.02994   0.08907
           A6          -0.03017  -0.02741  -0.03017  -0.02741   0.09428
           D1           0.01585  -0.02573   0.01585  -0.02573  -0.00600
           D2           0.01650  -0.00956   0.01650  -0.00956   0.00270
           D3           0.02002   0.00280  -0.00352  -0.01235   0.00135
           D4           0.00352   0.01235  -0.02002  -0.00280  -0.00135
                          D1        D2        D3        D4
           D1           0.05023
           D2          -0.00034   0.03161
           D3          -0.00017   0.01580   0.02702
           D4           0.00017  -0.01580   0.01121   0.02702
 ITU=  0
     Eigenvalues ---    0.04728   0.06472   0.10647   0.14042   0.14440
     Eigenvalues ---    0.21481   0.26433   0.36351   0.36996
 Angle between quadratic step and forces=  36.03 degrees.
 Linear search not attempted -- first point.
 Iteration  1 RMS(Cart)=  0.00059244 RMS(Int)=  0.00000043
 Iteration  2 RMS(Cart)=  0.00000046 RMS(Int)=  0.00000020
 Variable       Old X    -DE/DX   Delta X   Delta X   Delta X     New X
                                 (Linear)    (Quad)   (Total)
    R1        3.35169   0.00025   0.00000   0.00124   0.00124   3.35293
    R2        3.35171   0.00025   0.00000   0.00123   0.00123   3.35293
    R3        2.05370   0.00000   0.00000  -0.00006  -0.00006   2.05363
    R4        2.05370   0.00000   0.00000  -0.00007  -0.00007   2.05363
    A1        1.97139  -0.00007   0.00000  -0.00120  -0.00120   1.97020
    A2        1.88779   0.00000   0.00000   0.00001   0.00001   1.88780
    A3        1.88785   0.00000   0.00000  -0.00006  -0.00006   1.88780
    A4        1.88779   0.00000   0.00000   0.00001   0.00001   1.88780
    A5        1.88785   0.00000   0.00000  -0.00005  -0.00005   1.88780
    A6        1.94204   0.00006   0.00000   0.00132   0.00132   1.94336
    D1        2.14071  -0.00008   0.00000  -0.00143  -0.00143   2.13927
    D2       -2.14078   0.00008   0.00000   0.00151   0.00151  -2.13927
    D3        2.07121   0.00004   0.00000   0.00075   0.00075   2.07196
    D4       -2.07120  -0.00004   0.00000  -0.00076  -0.00076  -2.07196
         Item               Value     Threshold  Converged?
 Maximum Force            0.000255     0.000450     YES
 RMS     Force            0.000105     0.000300     YES
 Maximum Displacement     0.001339     0.001800     YES
 RMS     Displacement     0.000592     0.001200     YES
 Predicted change in Energy=-5.421639D-07
 Optimization completed.
    -- Stationary point found.
                           ----------------------------
                           !   Optimized Parameters   !
                           ! (Angstroms and Degrees)  !
 --------------------------                            --------------------------
 ! Name  Definition              Value          Derivative Info.                !
 --------------------------------------------------------------------------------
 ! R1    R(1,2)                  1.7736         -DE/DX =    0.0003              !
 ! R2    R(1,3)                  1.7736         -DE/DX =    0.0003              !
 ! R3    R(1,4)                  1.0868         -DE/DX =    0.0                 !
 ! R4    R(1,5)                  1.0868         -DE/DX =    0.0                 !
 ! A1    A(2,1,3)              112.9526         -DE/DX =   -0.0001              !
 ! A2    A(2,1,4)              108.1625         -DE/DX =    0.0                 !
 ! A3    A(2,1,5)              108.166          -DE/DX =    0.0                 !
 ! A4    A(3,1,4)              108.1622         -DE/DX =    0.0                 !
 ! A5    A(3,1,5)              108.1657         -DE/DX =    0.0                 !
 ! A6    A(4,1,5)              111.2708         -DE/DX =    0.0001              !
 ! D1    D(2,1,4,3)            122.6536         -DE/DX =   -0.0001              !
 ! D2    D(2,1,5,3)           -122.6578         -DE/DX =    0.0001              !
 ! D3    D(2,1,5,4)            118.6714         -DE/DX =    0.0                 !
 ! D4    D(3,1,5,4)           -118.6708         -DE/DX =    0.0                 !
 --------------------------------------------------------------------------------
 GradGradGradGradGradGradGradGradGradGradGradGradGradGradGradGradGradGrad

 1\1\GINC-KATANA2\Freq\RM062X\6-31+G(d)\C1H2Cl2\Z5358697\13-Mar-2025\0\
 \#N Geom=AllCheck Guess=TCheck SCRF=Check GenChk RM062X/6-31+G(d) Freq
 \\dichloromethane\\0,1\C,0.1386421746,-0.0327149018,0.0339576835\Cl,-0
 .5232410311,-0.1570819879,-1.6068470318\Cl,-1.054228866,0.5291050004,1
 .2202282624\H,0.9591513961,0.6796607342,0.0151629207\H,0.4796763265,-1
 .018968845,0.3373981652\\Version=ES64L-G09RevD.01\State=1-A\HF=-959.60
 94654\RMSD=9.821e-10\RMSF=1.623e-04\ZeroPoint=0.0300801\Thermal=0.0336
 197\Dipole=0.7072103,-0.1667838,0.1733005\DipoleDeriv=0.4351758,-0.108
 5364,-0.1636564,-0.1085238,0.2429533,0.2718077,-0.1636591,0.2718051,1.
 3500617,-0.1540554,-0.0216283,-0.1499325,0.0036106,-0.1421626,-0.05910
 88,-0.0168812,-0.0966786,-0.6647254,-0.2736005,0.0949483,0.2867021,0.0
 697118,-0.1786032,-0.1528085,0.1536515,-0.1152394,-0.5087499,-0.024341
 ,-0.0171685,0.0180182,-0.0156686,0.0560933,-0.0403653,0.0176535,-0.040
 6465,-0.0849023,0.0168212,0.0523848,0.0088685,0.05087,0.0217191,-0.019
 5251,0.0092353,-0.0192406,-0.091684\Polar=30.8148673,-1.7928767,27.473
 3991,-2.5137051,4.2850389,45.002806\PG=C01 [X(C1H2Cl2)]\NImag=0\\0.447
 59584,0.04803292,0.57783889,0.02096202,-0.06474212,0.29358984,-0.05754
 532,-0.00213985,-0.04183129,0.05601550,-0.00567166,-0.03627283,-0.0045
 1162,0.00350645,0.02348844,-0.06045517,0.00074526,-0.12305971,0.069271
 47,0.01364317,0.19690200,-0.09868448,0.02576076,0.04402575,0.00962299,
 -0.00019306,0.00835953,0.11821507,0.02929475,-0.04881057,-0.01856767,0
 .00021707,0.00138385,-0.00989643,-0.04401814,0.04244423,0.06264886,-0.
 02382492,-0.06937917,0.01052088,-0.01050593,-0.03640503,-0.08869314,0.
 04284218,0.11574340,-0.21549728,-0.15156087,0.00339958,-0.00504572,-0.
 00562657,-0.00658774,-0.01697805,-0.00540685,0.00984804,0.22619851,-0.
 15095790,-0.18806008,0.00813183,0.00197087,0.00391261,0.00060843,0.014
 69046,0.00711815,-0.00625447,0.15593797,0.19177424,0.00325335,0.008018
 56,-0.03907629,-0.02445844,-0.01651801,-0.01593377,0.02099653,0.005670
 22,-0.00720715,-0.00651569,-0.00284659,0.05884350,-0.07586876,0.079907
 04,-0.02655605,-0.00304745,0.00798483,-0.01058809,-0.01217553,0.019913
 18,0.00567536,0.01132254,-0.02164139,0.00672425,0.07976921,0.07930189,
 -0.30469542,0.07968958,-0.00355454,0.00748793,-0.00510043,0.00375997,-
 0.00213565,-0.00225686,0.00665633,-0.01474492,0.00567581,-0.08616365,0
 .31408806,-0.02640906,0.07980321,-0.06207468,-0.01350262,0.01789239,-0
 .02150349,0.01531133,-0.02004830,-0.00275205,-0.00014418,0.00036081,0.
 00337370,0.02474453,-0.07800810,0.08295653\\-0.00047284,0.00010414,-0.
 00011617,0.00016192,-0.00000237,0.00021044,0.00022231,-0.00008141,-0.0
 0011620,0.00003149,-0.00004315,0.00001654,0.00005712,0.00002279,0.0000
 0539\\\@


 YOU KNOW YOU'VE SPOKEN TOO LONG WHEN THE AUDIENCE STOPS LOOKING AT
 THEIR WATCHES AND STARTS SHAKING THEM.
 Job cpu time:       0 days  0 hours  0 minutes 14.2 seconds.
 File lengths (MBytes):  RWF=    132 Int=      0 D2E=      0 Chk=      2 Scr=      2
 Normal termination of Gaussian 09 at Thu Mar 13 14:56:20 2025.
