 Entering Gaussian System, Link 0=g09
 Initial command:
 /apps/z_install_tree/linux-rocky8-ivybridge/gcc-12.2.0/gaussian-09-D.01-wczn3gur5lpur3omlkzwa2l5ecyxp5ef/g09/l1.exe "/srv/scratch/z5358697/gauss/Gau-4011024.inp" -scrdir="/srv/scratch/z5358697/gauss/"
 Entering Link 1 = /apps/z_install_tree/linux-rocky8-ivybridge/gcc-12.2.0/gaussian-09-D.01-wczn3gur5lpur3omlkzwa2l5ecyxp5ef/g09/l1.exe PID=   4011026.
  
 Copyright (c) 1988,1990,1992,1993,1995,1998,2003,2009,2013,
            Gaussian, Inc.  All Rights Reserved.
  
 This is part of the Gaussian(R) 09 program.  It is based on
 the Gaussian(R) 03 system (copyright 2003, Gaussian, Inc.),
 the Gaussian(R) 98 system (copyright 1998, Gaussian, Inc.),
 the Gaussian(R) 94 system (copyright 1995, Gaussian, Inc.),
 the Gaussian 92(TM) system (copyright 1992, Gaussian, Inc.),
 the Gaussian 90(TM) system (copyright 1990, Gaussian, Inc.),
 the Gaussian 88(TM) system (copyright 1988, Gaussian, Inc.),
 the Gaussian 86(TM) system (copyright 1986, Carnegie Mellon
 University), and the Gaussian 82(TM) system (copyright 1983,
 Carnegie Mellon University). Gaussian is a federally registered
 trademark of Gaussian, Inc.
  
 This software contains proprietary and confidential information,
 including trade secrets, belonging to Gaussian, Inc.
  
 This software is provided under written license and may be
 used, copied, transmitted, or stored only in accord with that
 written license.
  
 The following legend is applicable only to US Government
 contracts under FAR:
  
                    RESTRICTED RIGHTS LEGEND
  
 Use, reproduction and disclosure by the US Government is
 subject to restrictions as set forth in subparagraphs (a)
 and (c) of the Commercial Computer Software - Restricted
 Rights clause in FAR 52.227-19.
  
 Gaussian, Inc.
 340 Quinnipiac St., Bldg. 40, Wallingford CT 06492
  
  
 ---------------------------------------------------------------
 Warning -- This program may not be used in any manner that
 competes with the business of Gaussian, Inc. or will provide
 assistance to any competitor of Gaussian, Inc.  The licensee
 of this program is prohibited from giving any competitor of
 Gaussian, Inc. access to this program.  By using this program,
 the user acknowledges that Gaussian, Inc. is engaged in the
 business of creating and licensing software in the field of
 computational chemistry and represents and warrants to the
 licensee that it is not a competitor of Gaussian, Inc. and that
 it will not use this program in any manner prohibited above.
 ---------------------------------------------------------------
  

 Cite this work as:
 Gaussian 09, Revision D.01,
 M. J. Frisch, G. W. Trucks, H. B. Schlegel, G. E. Scuseria, 
 M. A. Robb, J. R. Cheeseman, G. Scalmani, V. Barone, B. Mennucci, 
 G. A. Petersson, H. Nakatsuji, M. Caricato, X. Li, H. P. Hratchian, 
 A. F. Izmaylov, J. Bloino, G. Zheng, J. L. Sonnenberg, M. Hada, 
 M. Ehara, K. Toyota, R. Fukuda, J. Hasegawa, M. Ishida, T. Nakajima, 
 Y. Honda, O. Kitao, H. Nakai, T. Vreven, J. A. Montgomery, Jr., 
 J. E. Peralta, F. Ogliaro, M. Bearpark, J. J. Heyd, E. Brothers, 
 K. N. Kudin, V. N. Staroverov, T. Keith, R. Kobayashi, J. Normand, 
 K. Raghavachari, A. Rendell, J. C. Burant, S. S. Iyengar, J. Tomasi, 
 M. Cossi, N. Rega, J. M. Millam, M. Klene, J. E. Knox, J. B. Cross, 
 V. Bakken, C. Adamo, J. Jaramillo, R. Gomperts, R. E. Stratmann, 
 O. Yazyev, A. J. Austin, R. Cammi, C. Pomelli, J. W. Ochterski, 
 R. L. Martin, K. Morokuma, V. G. Zakrzewski, G. A. Voth, 
 P. Salvador, J. J. Dannenberg, S. Dapprich, A. D. Daniels, 
 O. Farkas, J. B. Foresman, J. V. Ortiz, J. Cioslowski, 
 and D. J. Fox, Gaussian, Inc., Wallingford CT, 2013.
 
 ******************************************
 Gaussian 09:  ES64L-G09RevD.01 24-Apr-2013
                17-Mar-2025 
 ******************************************
 ---------------------------------
 #m062X/6-31+G(d) OPT Freq=noraman
 ---------------------------------
 1/14=-1,18=20,19=15,26=3,38=1/1,3;
 2/9=110,12=2,17=6,18=5,40=1/2;
 3/5=1,6=6,7=11,11=2,16=1,25=1,30=1,71=1,74=-55/1,2,3;
 4//1;
 5/5=2,38=5/2;
 6/7=2,8=2,9=2,10=2,28=1/1;
 7//1,2,3,16;
 1/14=-1,18=20,19=15,26=3/3(2);
 2/9=110/2;
 99//99;
 2/9=110/2;
 3/5=1,6=6,7=11,11=2,16=1,25=1,30=1,71=1,74=-55/1,2,3;
 4/5=5,16=3,69=1/1;
 5/5=2,38=5/2;
 7//1,2,3,16;
 1/14=-1,18=20,19=15,26=3/3(-5);
 2/9=110/2;
 6/7=2,8=2,9=2,10=2,19=2,28=1/1;
 99/9=1/99;
 --------------
 cyclopentanone
 --------------
 Symbolic Z-matrix:
 Charge =  0 Multiplicity = 1
 C                     1.0223   -0.7754    0.955 
 C                     1.5583    0.3514    0.0824 
 C                     0.3277    1.176    -0.2732 
 C                    -0.7497    0.1232   -0.3013 
 O                    -1.8728    0.3078   -0.7522 
 C                    -0.2859   -1.183     0.2893 
 H                     0.8287   -0.4017    1.9683 
 H                     1.723    -1.612     1.032 
 H                     2.3196    0.9479    0.5934 
 H                     2.0086   -0.0642   -0.8272 
 H                     0.094     1.9036    0.5091 
 H                     0.4326    1.6652   -1.2438 
 H                    -1.0061   -1.5725    1.0117 
 H                    -0.1172   -1.8996   -0.5195 
 

 GradGradGradGradGradGradGradGradGradGradGradGradGradGradGradGradGradGrad
 Berny optimization.
 Initialization pass.
                           ----------------------------
                           !    Initial Parameters    !
                           ! (Angstroms and Degrees)  !
 --------------------------                            --------------------------
 ! Name  Definition              Value          Derivative Info.                !
 --------------------------------------------------------------------------------
 ! R1    R(1,2)                  1.5226         estimate D2E/DX2                !
 ! R2    R(1,6)                  1.5234         estimate D2E/DX2                !
 ! R3    R(1,7)                  1.0972         estimate D2E/DX2                !
 ! R4    R(1,8)                  1.094          estimate D2E/DX2                !
 ! R5    R(2,3)                  1.5234         estimate D2E/DX2                !
 ! R6    R(2,9)                  1.0939         estimate D2E/DX2                !
 ! R7    R(2,10)                 1.0968         estimate D2E/DX2                !
 ! R8    R(3,4)                  1.5066         estimate D2E/DX2                !
 ! R9    R(3,11)                 1.0936         estimate D2E/DX2                !
 ! R10   R(3,12)                 1.092          estimate D2E/DX2                !
 ! R11   R(4,5)                  1.2242         estimate D2E/DX2                !
 ! R12   R(4,6)                  1.5067         estimate D2E/DX2                !
 ! R13   R(6,13)                 1.0919         estimate D2E/DX2                !
 ! R14   R(6,14)                 1.0937         estimate D2E/DX2                !
 ! A1    A(2,1,6)              104.4699         estimate D2E/DX2                !
 ! A2    A(2,1,7)              109.8353         estimate D2E/DX2                !
 ! A3    A(2,1,8)              112.3826         estimate D2E/DX2                !
 ! A4    A(6,1,7)              110.0701         estimate D2E/DX2                !
 ! A5    A(6,1,8)              112.0969         estimate D2E/DX2                !
 ! A6    A(7,1,8)              107.9668         estimate D2E/DX2                !
 ! A7    A(1,2,3)              104.4764         estimate D2E/DX2                !
 ! A8    A(1,2,9)              112.3855         estimate D2E/DX2                !
 ! A9    A(1,2,10)             109.8403         estimate D2E/DX2                !
 ! A10   A(3,2,9)              112.091          estimate D2E/DX2                !
 ! A11   A(3,2,10)             110.0708         estimate D2E/DX2                !
 ! A12   A(9,2,10)             107.9586         estimate D2E/DX2                !
 ! A13   A(2,3,4)              101.7575         estimate D2E/DX2                !
 ! A14   A(2,3,11)             111.4548         estimate D2E/DX2                !
 ! A15   A(2,3,12)             111.8621         estimate D2E/DX2                !
 ! A16   A(4,3,11)             108.9917         estimate D2E/DX2                !
 ! A17   A(4,3,12)             111.418          estimate D2E/DX2                !
 ! A18   A(11,3,12)            110.9955         estimate D2E/DX2                !
 ! A19   A(3,4,5)              123.8852         estimate D2E/DX2                !
 ! A20   A(3,4,6)              112.2318         estimate D2E/DX2                !
 ! A21   A(5,4,6)              123.8831         estimate D2E/DX2                !
 ! A22   A(1,6,4)              101.7523         estimate D2E/DX2                !
 ! A23   A(1,6,13)             111.8852         estimate D2E/DX2                !
 ! A24   A(1,6,14)             111.47           estimate D2E/DX2                !
 ! A25   A(4,6,13)             111.4415         estimate D2E/DX2                !
 ! A26   A(4,6,14)             109.0041         estimate D2E/DX2                !
 ! A27   A(13,6,14)            110.9331         estimate D2E/DX2                !
 ! D1    D(6,1,2,3)             40.4605         estimate D2E/DX2                !
 ! D2    D(6,1,2,9)            162.2232         estimate D2E/DX2                !
 ! D3    D(6,1,2,10)           -77.5708         estimate D2E/DX2                !
 ! D4    D(7,1,2,3)            -77.5642         estimate D2E/DX2                !
 ! D5    D(7,1,2,9)             44.1985         estimate D2E/DX2                !
 ! D6    D(7,1,2,10)           164.4045         estimate D2E/DX2                !
 ! D7    D(8,1,2,3)            162.2246         estimate D2E/DX2                !
 ! D8    D(8,1,2,9)            -76.0127         estimate D2E/DX2                !
 ! D9    D(8,1,2,10)            44.1933         estimate D2E/DX2                !
 ! D10   D(2,1,6,4)            -31.4474         estimate D2E/DX2                !
 ! D11   D(2,1,6,13)          -150.5218         estimate D2E/DX2                !
 ! D12   D(2,1,6,14)            84.6076         estimate D2E/DX2                !
 ! D13   D(7,1,6,4)             86.4166         estimate D2E/DX2                !
 ! D14   D(7,1,6,13)           -32.6578         estimate D2E/DX2                !
 ! D15   D(7,1,6,14)          -157.5284         estimate D2E/DX2                !
 ! D16   D(8,1,6,4)           -153.3995         estimate D2E/DX2                !
 ! D17   D(8,1,6,13)            87.5261         estimate D2E/DX2                !
 ! D18   D(8,1,6,14)           -37.3445         estimate D2E/DX2                !
 ! D19   D(1,2,3,4)            -31.4016         estimate D2E/DX2                !
 ! D20   D(1,2,3,11)            84.6354         estimate D2E/DX2                !
 ! D21   D(1,2,3,12)          -150.4409         estimate D2E/DX2                !
 ! D22   D(9,2,3,4)           -153.358          estimate D2E/DX2                !
 ! D23   D(9,2,3,11)           -37.321          estimate D2E/DX2                !
 ! D24   D(9,2,3,12)            87.6027         estimate D2E/DX2                !
 ! D25   D(10,2,3,4)            86.472          estimate D2E/DX2                !
 ! D26   D(10,2,3,11)         -157.491          estimate D2E/DX2                !
 ! D27   D(10,2,3,12)          -32.5673         estimate D2E/DX2                !
 ! D28   D(2,3,4,5)           -168.0224         estimate D2E/DX2                !
 ! D29   D(2,3,4,6)             11.9745         estimate D2E/DX2                !
 ! D30   D(11,3,4,5)            74.1542         estimate D2E/DX2                !
 ! D31   D(11,3,4,6)          -105.8489         estimate D2E/DX2                !
 ! D32   D(12,3,4,5)           -48.6678         estimate D2E/DX2                !
 ! D33   D(12,3,4,6)           131.3291         estimate D2E/DX2                !
 ! D34   D(3,4,6,1)             12.0547         estimate D2E/DX2                !
 ! D35   D(3,4,6,13)           131.4442         estimate D2E/DX2                !
 ! D36   D(3,4,6,14)          -105.7885         estimate D2E/DX2                !
 ! D37   D(5,4,6,1)           -167.9484         estimate D2E/DX2                !
 ! D38   D(5,4,6,13)           -48.559          estimate D2E/DX2                !
 ! D39   D(5,4,6,14)            74.2084         estimate D2E/DX2                !
 --------------------------------------------------------------------------------
 Trust Radius=3.00D-01 FncErr=1.00D-07 GrdErr=1.00D-06
 Number of steps in this run=     90 maximum allowed number of steps=    100.
 GradGradGradGradGradGradGradGradGradGradGradGradGradGradGradGradGradGrad

                          Input orientation:                          
 ---------------------------------------------------------------------
 Center     Atomic      Atomic             Coordinates (Angstroms)
 Number     Number       Type             X           Y           Z
 ---------------------------------------------------------------------
      1          6           0        1.022300   -0.775400    0.955000
      2          6           0        1.558300    0.351400    0.082400
      3          6           0        0.327700    1.176000   -0.273200
      4          6           0       -0.749700    0.123200   -0.301300
      5          8           0       -1.872800    0.307800   -0.752200
      6          6           0       -0.285900   -1.183000    0.289300
      7          1           0        0.828700   -0.401700    1.968300
      8          1           0        1.723000   -1.612000    1.032000
      9          1           0        2.319600    0.947900    0.593400
     10          1           0        2.008600   -0.064200   -0.827200
     11          1           0        0.094000    1.903600    0.509100
     12          1           0        0.432600    1.665200   -1.243800
     13          1           0       -1.006100   -1.572500    1.011700
     14          1           0       -0.117200   -1.899600   -0.519500
 ---------------------------------------------------------------------
                    Distance matrix (angstroms):
                    1          2          3          4          5
     1  C    0.000000
     2  C    1.522631   0.000000
     3  C    2.408092   1.523415   0.000000
     4  C    2.350693   2.350780   1.506641   0.000000
     5  O    3.531212   3.531417   2.413589   1.224231   0.000000
     6  C    1.523378   2.407959   2.501558   1.506678   2.413599
     7  H    1.097228   2.157799   2.786478   2.813885   3.899053
     8  H    1.093988   2.187191   3.379845   3.301947   4.449582
     9  H    2.187122   1.093851   2.184191   3.301700   4.449335
    10  H    2.157505   1.096752   2.161119   2.814233   3.899907
    11  H    2.870123   2.176137   1.093623   2.130353   2.829445
    12  H    3.337513   2.179926   1.091964   2.159607   2.720124
    13  H    2.180135   3.337834   3.314248   2.159886   2.719934
    14  H    2.176335   2.869945   3.117357   2.130584   2.829999
                    6          7          8          9         10
     6  C    0.000000
     7  H    2.161436   0.000000
     8  H    2.184336   1.772359   0.000000
     9  H    3.379622   2.436094   2.664843   0.000000
    10  H    2.786219   3.053013   2.435955   1.771771   0.000000
    11  H    3.117649   2.825501   3.909797   2.423585   3.053462
    12  H    3.313439   3.840125   4.193380   2.729577   2.376585
    13  H    1.091907   2.377467   2.729461   4.193766   3.839914
    14  H    1.093679   3.054109   2.424088   3.909578   2.825314
                   11         12         13         14
    11  H    0.000000
    12  H    1.801150   0.000000
    13  H    3.680502   4.199981   0.000000
    14  H    3.945498   3.678952   1.800475   0.000000
 Stoichiometry    C5H8O
 Framework group  C1[X(C5H8O)]
 Deg. of freedom    36
 Full point group                 C1      NOp   1
 Largest Abelian subgroup         C1      NOp   1
 Largest concise Abelian subgroup C1      NOp   1
                         Standard orientation:                         
 ---------------------------------------------------------------------
 Center     Atomic      Atomic             Coordinates (Angstroms)
 Number     Number       Type             X           Y           Z
 ---------------------------------------------------------------------
      1          6           0       -1.346480    0.724169    0.235316
      2          6           0       -1.346707   -0.724036   -0.234906
      3          6           0        0.037460   -1.243817    0.132115
      4          6           0        0.877448   -0.000063   -0.000035
      5          8           0        2.101679   -0.000015    0.000330
      6          6           0        0.037466    1.243678   -0.132767
      7          1           0       -1.486060    0.762485    1.322955
      8          1           0       -2.143691    1.312769   -0.228163
      9          1           0       -2.143495   -1.312553    0.229085
     10          1           0       -1.487133   -0.762425   -1.321954
     11          1           0        0.073141   -1.588840    1.169273
     12          1           0        0.372710   -2.025971   -0.552156
     13          1           0        0.373137    2.026785    0.550116
     14          1           0        0.072834    1.588288   -1.170131
 ---------------------------------------------------------------------
 Rotational constants (GHZ):      6.6092073      3.4680368      2.4689433
 Standard basis: 6-31+G(d) (6D, 7F)
 There are   130 symmetry adapted cartesian basis functions of A   symmetry.
 There are   130 symmetry adapted basis functions of A   symmetry.
   130 basis functions,   224 primitive gaussians,   130 cartesian basis functions
    23 alpha electrons       23 beta electrons
       nuclear repulsion energy       237.2102587194 Hartrees.
 NAtoms=   14 NActive=   14 NUniq=   14 SFac= 1.00D+00 NAtFMM=   60 NAOKFM=F Big=F
 Integral buffers will be    131072 words long.
 Raffenetti 2 integral format.
 Two-electron integral symmetry is turned on.
 One-electron integrals computed using PRISM.
 NBasis=   130 RedAO= T EigKep=  3.03D-05  NBF=   130
 NBsUse=   130 1.00D-06 EigRej= -1.00D+00 NBFU=   130
 ExpMin= 4.38D-02 ExpMax= 5.48D+03 ExpMxC= 8.25D+02 IAcc=2 IRadAn=         4 AccDes= 0.00D+00
 Harris functional with IExCor= 1009 and IRadAn=       4 diagonalized for initial guess.
 HarFok:  IExCor= 1009 AccDes= 0.00D+00 IRadAn=         4 IDoV= 1 UseB2=F ITyADJ=14
 ICtDFT=  3500011 ScaDFX=  1.000000  1.000000  1.000000  1.000000
 FoFCou: FMM=F IPFlag=           0 FMFlag=      100000 FMFlg1=           0
         NFxFlg=           0 DoJE=T BraDBF=F KetDBF=T FulRan=T
         wScrn=  0.000000 ICntrl=     500 IOpCl=  0 I1Cent=   200000004 NGrid=           0
         NMat0=    1 NMatS0=      1 NMatT0=    0 NMatD0=    1 NMtDS0=    0 NMtDT0=    0
 Petite list used in FoFCou.
 Requested convergence on RMS density matrix=1.00D-08 within 128 cycles.
 Requested convergence on MAX density matrix=1.00D-06.
 Requested convergence on             energy=1.00D-06.
 No special actions if energy rises.
 SCF Done:  E(RM062X) =  -270.449733319     A.U. after   13 cycles
            NFock= 13  Conv=0.72D-08     -V/T= 2.0083

 **********************************************************************

            Population analysis using the SCF density.

 **********************************************************************

 Orbital symmetries:
       Occupied  (A) (A) (A) (A) (A) (A) (A) (A) (A) (A) (A) (A)
                 (A) (A) (A) (A) (A) (A) (A) (A) (A) (A) (A)
       Virtual   (A) (A) (A) (A) (A) (A) (A) (A) (A) (A) (A) (A)
                 (A) (A) (A) (A) (A) (A) (A) (A) (A) (A) (A) (A)
                 (A) (A) (A) (A) (A) (A) (A) (A) (A) (A) (A) (A)
                 (A) (A) (A) (A) (A) (A) (A) (A) (A) (A) (A) (A)
                 (A) (A) (A) (A) (A) (A) (A) (A) (A) (A) (A) (A)
                 (A) (A) (A) (A) (A) (A) (A) (A) (A) (A) (A) (A)
                 (A) (A) (A) (A) (A) (A) (A) (A) (A) (A) (A) (A)
                 (A) (A) (A) (A) (A) (A) (A) (A) (A) (A) (A) (A)
                 (A) (A) (A) (A) (A) (A) (A) (A) (A) (A) (A)
 The electronic state is 1-A.
 Alpha  occ. eigenvalues --  -19.63712 -10.63896 -10.55595 -10.55585 -10.55559
 Alpha  occ. eigenvalues --  -10.55532  -1.15889  -0.95684  -0.83418  -0.78387
 Alpha  occ. eigenvalues --   -0.67606  -0.61914  -0.57891  -0.55127  -0.51053
 Alpha  occ. eigenvalues --   -0.50058  -0.47868  -0.45348  -0.42237  -0.41442
 Alpha  occ. eigenvalues --   -0.40454  -0.40407  -0.31307
 Alpha virt. eigenvalues --    0.01055   0.01918   0.03335   0.03444   0.04336
 Alpha virt. eigenvalues --    0.05667   0.07122   0.07502   0.08121   0.08298
 Alpha virt. eigenvalues --    0.11340   0.11388   0.11686   0.11901   0.12812
 Alpha virt. eigenvalues --    0.13412   0.14349   0.16192   0.16429   0.17792
 Alpha virt. eigenvalues --    0.19268   0.22924   0.23207   0.26447   0.27189
 Alpha virt. eigenvalues --    0.29995   0.30153   0.32456   0.32853   0.33303
 Alpha virt. eigenvalues --    0.33781   0.34266   0.34710   0.37052   0.39881
 Alpha virt. eigenvalues --    0.40490   0.42073   0.44162   0.52627   0.65473
 Alpha virt. eigenvalues --    0.67434   0.68926   0.70112   0.70847   0.73854
 Alpha virt. eigenvalues --    0.76075   0.78419   0.78840   0.80168   0.82365
 Alpha virt. eigenvalues --    0.83348   0.89942   0.98407   0.99735   1.01346
 Alpha virt. eigenvalues --    1.02740   1.07076   1.12167   1.13514   1.15258
 Alpha virt. eigenvalues --    1.16581   1.17526   1.17574   1.23607   1.35006
 Alpha virt. eigenvalues --    1.37029   1.41263   1.42860   1.49200   1.51424
 Alpha virt. eigenvalues --    1.61307   1.63807   1.73338   1.77826   1.81932
 Alpha virt. eigenvalues --    1.83883   1.86426   1.90484   1.90955   1.96987
 Alpha virt. eigenvalues --    2.00225   2.04033   2.07183   2.07925   2.12067
 Alpha virt. eigenvalues --    2.18629   2.19245   2.26374   2.34718   2.36451
 Alpha virt. eigenvalues --    2.37773   2.49262   2.50364   2.55970   2.58858
 Alpha virt. eigenvalues --    2.68469   2.70087   2.77268   2.80272   3.08557
 Alpha virt. eigenvalues --    3.23616   4.21345   4.23804   4.34416   4.44006
 Alpha virt. eigenvalues --    4.62607   4.74558
          Condensed to atoms (all electrons):
               1          2          3          4          5          6
     1  C    5.965310   0.007569  -0.155836   0.033981  -0.002916  -0.079123
     2  C    0.007569   5.965662  -0.079704   0.034625  -0.002876  -0.156346
     3  C   -0.155836  -0.079704   6.627435  -0.215124  -0.114188  -0.239180
     4  C    0.033981   0.034625  -0.215124   5.531034   0.495853  -0.214515
     5  O   -0.002916  -0.002876  -0.114188   0.495853   8.195775  -0.114068
     6  C   -0.079123  -0.156346  -0.239180  -0.214515  -0.114068   6.626712
     7  H    0.447799  -0.036356  -0.032447   0.047447  -0.001934  -0.107282
     8  H    0.388916  -0.050721   0.021485  -0.012943  -0.000087  -0.019122
     9  H   -0.050748   0.388950  -0.019092  -0.012972  -0.000087   0.021502
    10  H   -0.036332   0.447816  -0.107291   0.047393  -0.001931  -0.032392
    11  H    0.025125  -0.050976   0.365170   0.000497  -0.007353  -0.013846
    12  H    0.013276  -0.041452   0.375168  -0.016528  -0.003927  -0.001165
    13  H   -0.041420   0.013284  -0.001164  -0.016579  -0.003911   0.375199
    14  H   -0.051017   0.025141  -0.013912   0.000551  -0.007349   0.365207
               7          8          9         10         11         12
     1  C    0.447799   0.388916  -0.050748  -0.036332   0.025125   0.013276
     2  C   -0.036356  -0.050721   0.388950   0.447816  -0.050976  -0.041452
     3  C   -0.032447   0.021485  -0.019092  -0.107291   0.365170   0.375168
     4  C    0.047447  -0.012943  -0.012972   0.047393   0.000497  -0.016528
     5  O   -0.001934  -0.000087  -0.000087  -0.001931  -0.007353  -0.003927
     6  C   -0.107282  -0.019122   0.021502  -0.032392  -0.013846  -0.001165
     7  H    0.485516  -0.023831  -0.004844   0.003618   0.000751  -0.000068
     8  H   -0.023831   0.486478  -0.000284  -0.004842  -0.000082  -0.000116
     9  H   -0.004844  -0.000284   0.486459  -0.023854  -0.005224   0.000844
    10  H    0.003618  -0.004842  -0.023854   0.485453   0.003285  -0.005042
    11  H    0.000751  -0.000082  -0.005224   0.003285   0.445699  -0.013878
    12  H   -0.000068  -0.000116   0.000844  -0.005042  -0.013878   0.444134
    13  H   -0.005037   0.000842  -0.000116  -0.000068  -0.000182  -0.000027
    14  H    0.003283  -0.005219  -0.000082   0.000751   0.000006  -0.000183
              13         14
     1  C   -0.041420  -0.051017
     2  C    0.013284   0.025141
     3  C   -0.001164  -0.013912
     4  C   -0.016579   0.000551
     5  O   -0.003911  -0.007349
     6  C    0.375199   0.365207
     7  H   -0.005037   0.003283
     8  H    0.000842  -0.005219
     9  H   -0.000116  -0.000082
    10  H   -0.000068   0.000751
    11  H   -0.000182   0.000006
    12  H   -0.000027  -0.000183
    13  H    0.444156  -0.013943
    14  H   -0.013943   0.445773
 Mulliken charges:
               1
     1  C   -0.464584
     2  C   -0.464616
     3  C   -0.411320
     4  C    0.297281
     5  O   -0.431001
     6  C   -0.411582
     7  H    0.223383
     8  H    0.219525
     9  H    0.219546
    10  H    0.223437
    11  H    0.251009
    12  H    0.248964
    13  H    0.248967
    14  H    0.250991
 Sum of Mulliken charges =   0.00000
 Mulliken charges with hydrogens summed into heavy atoms:
               1
     1  C   -0.021676
     2  C   -0.021633
     3  C    0.088653
     4  C    0.297281
     5  O   -0.431001
     6  C    0.088376
 Electronic spatial extent (au):  <R**2>=            537.2163
 Charge=              0.0000 electrons
 Dipole moment (field-independent basis, Debye):
    X=             -3.3550    Y=              0.0000    Z=             -0.0015  Tot=              3.3550
 Quadrupole moment (field-independent basis, Debye-Ang):
   XX=            -46.0837   YY=            -35.2329   ZZ=            -35.2163
   XY=              0.0009   XZ=             -0.0016   YZ=             -0.1520
 Traceless Quadrupole moment (field-independent basis, Debye-Ang):
   XX=             -7.2394   YY=              3.6114   ZZ=              3.6280
   XY=              0.0009   XZ=             -0.0016   YZ=             -0.1520
 Octapole moment (field-independent basis, Debye-Ang**2):
  XXX=            -15.3635  YYY=              0.0065  ZZZ=             -0.0015  XYY=              2.2129
  XXY=              0.0005  XXZ=             -0.0056  XZZ=              2.0039  YZZ=             -0.0046
  YYZ=             -0.0034  XYZ=              1.0895
 Hexadecapole moment (field-independent basis, Debye-Ang**3):
 XXXX=           -438.3225 YYYY=           -243.4398 ZZZZ=            -69.9716 XXXY=              0.0018
 XXXZ=             -0.0004 YYYX=              0.0102 YYYZ=              1.8934 ZZZX=              0.0027
 ZZZY=             -1.5797 XXYY=           -107.9494 XXZZ=            -76.6345 YYZZ=            -49.1659
 XXYZ=             -1.1498 YYXZ=              0.0010 ZZXY=              0.0012
 N-N= 2.372102587194D+02 E-N=-1.103081932439D+03  KE= 2.682246589589D+02
 Calling FoFJK, ICntrl=      2127 FMM=F ISym2X=0 I1Cent= 0 IOpClX= 0 NMat=1 NMatS=1 NMatT=0.
 ***** Axes restored to original set *****
 -------------------------------------------------------------------
 Center     Atomic                   Forces (Hartrees/Bohr)
 Number     Number              X              Y              Z
 -------------------------------------------------------------------
      1        6           0.008932588   -0.010277186    0.005621888
      2        6           0.012582514    0.006785749    0.003273540
      3        6           0.011111517   -0.007895094   -0.002894662
      4        6          -0.048402222    0.007899846   -0.019447393
      5        8           0.018199871   -0.002982250    0.007309744
      6        6           0.007771896    0.004709048    0.010461502
      7        1           0.000021954   -0.000398794   -0.000054935
      8        1           0.001139611    0.001006601    0.002466191
      9        1           0.002225130   -0.001501543   -0.001077596
     10        1           0.000202717    0.000248588   -0.000150225
     11        1          -0.001449779    0.002869099   -0.000834918
     12        1          -0.005894678    0.004464934    0.001654765
     13        1          -0.004155489   -0.002750103   -0.005615702
     14        1          -0.002285630   -0.002178896   -0.000712200
 -------------------------------------------------------------------
 Cartesian Forces:  Max     0.048402222 RMS     0.009937411

 GradGradGradGradGradGradGradGradGradGradGradGradGradGradGradGradGradGrad
 Berny optimization.
 FormGI is forming the generalized inverse of G from B-inverse, IUseBI=4.
 Internal  Forces:  Max     0.019838381 RMS     0.004498398
 Search for a local minimum.
 Step number   1 out of a maximum of   90
 All quantities printed in internal units (Hartrees-Bohrs-Radians)
 Mixed Optimization -- RFO/linear search
 Second derivative matrix not updated -- first step.
 ITU=  0
     Eigenvalues ---    0.00605   0.00644   0.00678   0.02709   0.03058
     Eigenvalues ---    0.04672   0.05204   0.05268   0.05690   0.06011
     Eigenvalues ---    0.06120   0.06370   0.07064   0.07080   0.08039
     Eigenvalues ---    0.08048   0.08958   0.09762   0.11296   0.20682
     Eigenvalues ---    0.21646   0.25000   0.28218   0.28488   0.29170
     Eigenvalues ---    0.30971   0.31380   0.33991   0.34044   0.34356
     Eigenvalues ---    0.34371   0.34391   0.34397   0.34587   0.34593
     Eigenvalues ---    0.93533
 RFO step:  Lambda=-6.94364340D-03 EMin= 6.05061294D-03
 Linear search not attempted -- first point.
 Iteration  1 RMS(Cart)=  0.02674531 RMS(Int)=  0.00071629
 Iteration  2 RMS(Cart)=  0.00061872 RMS(Int)=  0.00051472
 Iteration  3 RMS(Cart)=  0.00000039 RMS(Int)=  0.00051472
 Variable       Old X    -DE/DX   Delta X   Delta X   Delta X     New X
                                 (Linear)    (Quad)   (Total)
    R1        2.87736   0.00752   0.00000   0.02807   0.02797   2.90532
    R2        2.87877   0.01153   0.00000   0.03909   0.03902   2.91779
    R3        2.07346  -0.00020   0.00000  -0.00057  -0.00057   2.07289
    R4        2.06734   0.00014   0.00000   0.00039   0.00039   2.06773
    R5        2.87884   0.01156   0.00000   0.03914   0.03908   2.91792
    R6        2.06708   0.00023   0.00000   0.00066   0.00066   2.06774
    R7        2.07256   0.00011   0.00000   0.00030   0.00030   2.07287
    R8        2.84714   0.01114   0.00000   0.03113   0.03124   2.87838
    R9        2.06665   0.00163   0.00000   0.00466   0.00466   2.07130
   R10        2.06351  -0.00005   0.00000  -0.00013  -0.00013   2.06338
   R11        2.31346  -0.01984   0.00000  -0.02105  -0.02105   2.29241
   R12        2.84721   0.01109   0.00000   0.03101   0.03113   2.87833
   R13        2.06340   0.00000   0.00000  -0.00001  -0.00001   2.06340
   R14        2.06675   0.00161   0.00000   0.00460   0.00460   2.07135
    A1        1.82334  -0.00231   0.00000  -0.00895  -0.00910   1.81425
    A2        1.91699   0.00110   0.00000  -0.00433  -0.00443   1.91256
    A3        1.96145   0.00007   0.00000   0.00724   0.00719   1.96863
    A4        1.92109  -0.00116   0.00000  -0.01003  -0.01000   1.91108
    A5        1.95646   0.00345   0.00000   0.02691   0.02686   1.98332
    A6        1.88438  -0.00115   0.00000  -0.01116  -0.01108   1.87330
    A7        1.82346  -0.00231   0.00000  -0.00904  -0.00919   1.81427
    A8        1.96150   0.00006   0.00000   0.00714   0.00708   1.96858
    A9        1.91707   0.00109   0.00000  -0.00439  -0.00449   1.91259
   A10        1.95636   0.00345   0.00000   0.02693   0.02687   1.98323
   A11        1.92110  -0.00116   0.00000  -0.00994  -0.00992   1.91118
   A12        1.88423  -0.00114   0.00000  -0.01101  -0.01093   1.87330
   A13        1.77600   0.00879   0.00000   0.04798   0.04771   1.82372
   A14        1.94525  -0.00108   0.00000  -0.00413  -0.00382   1.94144
   A15        1.95236   0.00212   0.00000   0.04682   0.04682   1.99918
   A16        1.90226  -0.00249   0.00000  -0.02043  -0.02095   1.88132
   A17        1.94461  -0.00502   0.00000  -0.02187  -0.02423   1.92038
   A18        1.93724  -0.00177   0.00000  -0.04281  -0.04336   1.89388
   A19        2.16220   0.00589   0.00000   0.02740   0.02713   2.18934
   A20        1.95881  -0.01179   0.00000  -0.05486  -0.05434   1.90448
   A21        2.16217   0.00591   0.00000   0.02747   0.02721   2.18937
   A22        1.77591   0.00882   0.00000   0.04803   0.04777   1.82369
   A23        1.95277   0.00209   0.00000   0.04660   0.04660   1.99937
   A24        1.94552  -0.00112   0.00000  -0.00445  -0.00413   1.94139
   A25        1.94502  -0.00504   0.00000  -0.02208  -0.02442   1.92060
   A26        1.90248  -0.00250   0.00000  -0.02063  -0.02114   1.88134
   A27        1.93615  -0.00171   0.00000  -0.04205  -0.04260   1.89355
    D1        0.70617  -0.00400   0.00000  -0.04284  -0.04266   0.66350
    D2        2.83133  -0.00125   0.00000  -0.01190  -0.01181   2.81951
    D3       -1.35387  -0.00192   0.00000  -0.02416  -0.02409  -1.37796
    D4       -1.35375  -0.00191   0.00000  -0.02415  -0.02408  -1.37783
    D5        0.77141   0.00083   0.00000   0.00679   0.00677   0.77818
    D6        2.86940   0.00017   0.00000  -0.00547  -0.00550   2.86390
    D7        2.83135  -0.00125   0.00000  -0.01181  -0.01172   2.81964
    D8       -1.32667   0.00150   0.00000   0.01913   0.01913  -1.30754
    D9        0.77132   0.00083   0.00000   0.00687   0.00685   0.77817
   D10       -0.54886  -0.00038   0.00000   0.01521   0.01575  -0.53311
   D11       -2.62710  -0.00050   0.00000  -0.00805  -0.00879  -2.63590
   D12        1.47668   0.00102   0.00000   0.01540   0.01549   1.49217
   D13        1.50825  -0.00093   0.00000   0.00036   0.00099   1.50924
   D14       -0.56999  -0.00105   0.00000  -0.02290  -0.02355  -0.59354
   D15       -2.74939   0.00047   0.00000   0.00055   0.00074  -2.74865
   D16       -2.67733  -0.00090   0.00000  -0.00287  -0.00231  -2.67964
   D17        1.52762  -0.00103   0.00000  -0.02612  -0.02685   1.50076
   D18       -0.65178   0.00049   0.00000  -0.00267  -0.00257  -0.65435
   D19       -0.54806  -0.00038   0.00000   0.01497   0.01550  -0.53256
   D20        1.47717   0.00103   0.00000   0.01549   0.01558   1.49275
   D21       -2.62569  -0.00052   0.00000  -0.00854  -0.00930  -2.63499
   D22       -2.67660  -0.00090   0.00000  -0.00294  -0.00239  -2.67899
   D23       -0.65137   0.00051   0.00000  -0.00242  -0.00231  -0.65368
   D24        1.52896  -0.00104   0.00000  -0.02645  -0.02718   1.50177
   D25        1.50922  -0.00093   0.00000   0.00003   0.00066   1.50988
   D26       -2.74874   0.00048   0.00000   0.00055   0.00074  -2.74800
   D27       -0.56841  -0.00108   0.00000  -0.02348  -0.02414  -0.59254
   D28       -2.93254  -0.00007   0.00000  -0.00617  -0.00614  -2.93869
   D29        0.20899  -0.00006   0.00000  -0.00582  -0.00580   0.20320
   D30        1.29424  -0.00219   0.00000  -0.01690  -0.01646   1.27778
   D31       -1.84741  -0.00218   0.00000  -0.01655  -0.01611  -1.86352
   D32       -0.84941   0.00508   0.00000   0.06569   0.06496  -0.78445
   D33        2.29213   0.00509   0.00000   0.06604   0.06531   2.35743
   D34        0.21039  -0.00008   0.00000  -0.00633  -0.00630   0.20409
   D35        2.29413   0.00505   0.00000   0.06526   0.06452   2.35866
   D36       -1.84636  -0.00216   0.00000  -0.01665  -0.01620  -1.86256
   D37       -2.93125  -0.00007   0.00000  -0.00598  -0.00595  -2.93720
   D38       -0.84751   0.00506   0.00000   0.06561   0.06487  -0.78264
   D39        1.29518  -0.00216   0.00000  -0.01630  -0.01585   1.27933
         Item               Value     Threshold  Converged?
 Maximum Force            0.019838     0.000450     NO 
 RMS     Force            0.004498     0.000300     NO 
 Maximum Displacement     0.080780     0.001800     NO 
 RMS     Displacement     0.026750     0.001200     NO 
 Predicted change in Energy=-3.642329D-03
 GradGradGradGradGradGradGradGradGradGradGradGradGradGradGradGradGradGrad

                          Input orientation:                          
 ---------------------------------------------------------------------
 Center     Atomic      Atomic             Coordinates (Angstroms)
 Number     Number       Type             X           Y           Z
 ---------------------------------------------------------------------
      1          6           0        1.048768   -0.787896    0.968032
      2          6           0        1.588656    0.354527    0.092200
      3          6           0        0.327957    1.162784   -0.284084
      4          6           0       -0.790967    0.129866   -0.318023
      5          8           0       -1.903855    0.312832   -0.764778
      6          6           0       -0.289471   -1.169299    0.298951
      7          1           0        0.858043   -0.415213    1.981925
      8          1           0        1.749883   -1.623506    1.054404
      9          1           0        2.356358    0.948955    0.596741
     10          1           0        2.041762   -0.061201   -0.816142
     11          1           0        0.081741    1.897920    0.490744
     12          1           0        0.389853    1.678777   -1.244372
     13          1           0       -1.039473   -1.573119    0.982089
     14          1           0       -0.136154   -1.888728   -0.513687
 ---------------------------------------------------------------------
                    Distance matrix (angstroms):
                    1          2          3          4          5
     1  C    0.000000
     2  C    1.537430   0.000000
     3  C    2.427451   1.544095   0.000000
     4  C    2.425047   2.425151   1.523175   0.000000
     5  O    3.596139   3.596357   2.436077   1.213090   0.000000
     6  C    1.544029   2.427376   2.481886   1.523149   2.436076
     7  H    1.096926   2.167338   2.811736   2.882031   3.962638
     8  H    1.094197   2.205549   3.402475   3.378430   4.517591
     9  H    2.205516   1.094200   2.221708   3.378366   4.517500
    10  H    2.167349   1.096913   2.172177   2.882530   3.963639
    11  H    2.894228   2.193557   1.096087   2.131135   2.833978
    12  H    3.378369   2.230962   1.091894   2.156753   2.712363
    13  H    2.231036   3.378576   3.310320   2.156896   2.712104
    14  H    2.193482   2.893831   3.095132   2.131147   2.834551
                    6          7          8          9         10
     6  C    0.000000
     7  H    2.172058   0.000000
     8  H    2.221707   1.765119   0.000000
     9  H    3.402366   2.454514   2.682317   0.000000
    10  H    2.811754   3.058708   2.454574   1.765114   0.000000
    11  H    3.095548   2.859519   3.937113   2.466912   3.063950
    12  H    3.309813   3.874659   4.247249   2.790964   2.437151
    13  H    1.091902   2.437413   2.790748   4.247472   3.874730
    14  H    1.096113   3.063944   2.467061   3.936764   2.859135
                   11         12         13         14
    11  H    0.000000
    12  H    1.775834   0.000000
    13  H    3.680578   4.192246   0.000000
    14  H    3.923654   3.679358   1.775652   0.000000
 Stoichiometry    C5H8O
 Framework group  C1[X(C5H8O)]
 Deg. of freedom    36
 Full point group                 C1      NOp   1
 Largest Abelian subgroup         C1      NOp   1
 Largest concise Abelian subgroup C1      NOp   1
                         Standard orientation:                         
 ---------------------------------------------------------------------
 Center     Atomic      Atomic             Coordinates (Angstroms)
 Number     Number       Type             X           Y           Z
 ---------------------------------------------------------------------
      1          6           0       -1.381154    0.734055    0.228613
      2          6           0       -1.381391   -0.733931   -0.228233
      3          6           0        0.035535   -1.234480    0.126736
      4          6           0        0.918767   -0.000032   -0.000147
      5          8           0        2.131857   -0.000009    0.000304
      6          6           0        0.035553    1.234374   -0.127261
      7          1           0       -1.523772    0.780944    1.315217
      8          1           0       -2.182038    1.321161   -0.230907
      9          1           0       -2.181998   -1.320924    0.231922
     10          1           0       -1.524845   -0.780837   -1.314713
     11          1           0        0.086558   -1.577358    1.166561
     12          1           0        0.410486   -2.030644   -0.519614
     13          1           0        0.410857    2.031117    0.518183
     14          1           0        0.086048    1.576694   -1.167325
 ---------------------------------------------------------------------
 Rotational constants (GHZ):      6.6414484      3.3398466      2.4023000
 Standard basis: 6-31+G(d) (6D, 7F)
 There are   130 symmetry adapted cartesian basis functions of A   symmetry.
 There are   130 symmetry adapted basis functions of A   symmetry.
   130 basis functions,   224 primitive gaussians,   130 cartesian basis functions
    23 alpha electrons       23 beta electrons
       nuclear repulsion energy       235.2056086008 Hartrees.
 NAtoms=   14 NActive=   14 NUniq=   14 SFac= 1.00D+00 NAtFMM=   60 NAOKFM=F Big=F
 Integral buffers will be    131072 words long.
 Raffenetti 2 integral format.
 Two-electron integral symmetry is turned on.
 One-electron integrals computed using PRISM.
 NBasis=   130 RedAO= T EigKep=  3.16D-05  NBF=   130
 NBsUse=   130 1.00D-06 EigRej= -1.00D+00 NBFU=   130
 Initial guess from the checkpoint file:  "/srv/scratch/z5358697/gauss/Gau-4011026.chk"
 B after Tr=     0.000000    0.000000    0.000000
         Rot=    0.999997    0.002351    0.000000   -0.000001 Ang=   0.27 deg.
 ExpMin= 4.38D-02 ExpMax= 5.48D+03 ExpMxC= 8.25D+02 IAcc=2 IRadAn=         4 AccDes= 0.00D+00
 Harris functional with IExCor= 1009 and IRadAn=       4 diagonalized for initial guess.
 HarFok:  IExCor= 1009 AccDes= 0.00D+00 IRadAn=         4 IDoV= 1 UseB2=F ITyADJ=14
 ICtDFT=  3500011 ScaDFX=  1.000000  1.000000  1.000000  1.000000
 FoFCou: FMM=F IPFlag=           0 FMFlag=      100000 FMFlg1=           0
         NFxFlg=           0 DoJE=T BraDBF=F KetDBF=T FulRan=T
         wScrn=  0.000000 ICntrl=     500 IOpCl=  0 I1Cent=   200000004 NGrid=           0
         NMat0=    1 NMatS0=      1 NMatT0=    0 NMatD0=    1 NMtDS0=    0 NMtDT0=    0
 Petite list used in FoFCou.
 Requested convergence on RMS density matrix=1.00D-08 within 128 cycles.
 Requested convergence on MAX density matrix=1.00D-06.
 Requested convergence on             energy=1.00D-06.
 No special actions if energy rises.
 SCF Done:  E(RM062X) =  -270.453148032     A.U. after   12 cycles
            NFock= 12  Conv=0.37D-08     -V/T= 2.0089
 Calling FoFJK, ICntrl=      2127 FMM=F ISym2X=0 I1Cent= 0 IOpClX= 0 NMat=1 NMatS=1 NMatT=0.
 ***** Axes restored to original set *****
 -------------------------------------------------------------------
 Center     Atomic                   Forces (Hartrees/Bohr)
 Number     Number              X              Y              Z
 -------------------------------------------------------------------
      1        6          -0.004276695   -0.001205113   -0.000601385
      2        6          -0.003007399    0.002419830   -0.002309038
      3        6           0.006742986   -0.003689117   -0.000397393
      4        6          -0.008687884    0.001431290   -0.003451286
      5        8           0.008313746   -0.001368681    0.003323963
      6        6           0.005328074    0.001640154    0.005223830
      7        1          -0.000133126    0.000077295    0.000029339
      8        1          -0.001053274    0.000128187   -0.000676657
      9        1          -0.001209906    0.000240363   -0.000238486
     10        1          -0.000096031   -0.000041431   -0.000126707
     11        1          -0.000446232    0.001263291    0.000193746
     12        1          -0.000367459    0.002173817    0.000366409
     13        1          -0.000599912   -0.001982095   -0.000746623
     14        1          -0.000506887   -0.001087792   -0.000589712
 -------------------------------------------------------------------
 Cartesian Forces:  Max     0.008687884 RMS     0.002870593

 GradGradGradGradGradGradGradGradGradGradGradGradGradGradGradGradGradGrad
 Berny optimization.
 Using GEDIIS/GDIIS optimizer.
 FormGI is forming the generalized inverse of G from B-inverse, IUseBI=4.
 Internal  Forces:  Max     0.009057606 RMS     0.001446953
 Search for a local minimum.
 Step number   2 out of a maximum of   90
 All quantities printed in internal units (Hartrees-Bohrs-Radians)
 Mixed Optimization -- RFO/linear search
 Update second derivatives using D2CorX and points    1    2
 DE= -3.41D-03 DEPred=-3.64D-03 R= 9.38D-01
 TightC=F SS=  1.41D+00  RLast= 2.31D-01 DXNew= 5.0454D-01 6.9166D-01
 Trust test= 9.38D-01 RLast= 2.31D-01 DXMaxT set to 5.05D-01
 ITU=  1  0
 Use linear search instead of GDIIS.
     Eigenvalues ---    0.00599   0.00630   0.00678   0.02514   0.03069
     Eigenvalues ---    0.04591   0.04800   0.05280   0.05487   0.05848
     Eigenvalues ---    0.06119   0.06377   0.07008   0.07099   0.08086
     Eigenvalues ---    0.08557   0.09200   0.09994   0.11434   0.20830
     Eigenvalues ---    0.22945   0.25000   0.28163   0.28596   0.28911
     Eigenvalues ---    0.31361   0.33705   0.33992   0.34044   0.34360
     Eigenvalues ---    0.34370   0.34394   0.34537   0.34590   0.35513
     Eigenvalues ---    0.89628
 RFO step:  Lambda=-5.37090904D-04 EMin= 5.99456066D-03
 Quartic linear search produced a step of -0.00221.
 Iteration  1 RMS(Cart)=  0.00919549 RMS(Int)=  0.00008091
 Iteration  2 RMS(Cart)=  0.00007886 RMS(Int)=  0.00002101
 Iteration  3 RMS(Cart)=  0.00000001 RMS(Int)=  0.00002101
 Variable       Old X    -DE/DX   Delta X   Delta X   Delta X     New X
                                 (Linear)    (Quad)   (Total)
    R1        2.90532   0.00166  -0.00006   0.00790   0.00783   2.91315
    R2        2.91779  -0.00515  -0.00009  -0.01483  -0.01491   2.90288
    R3        2.07289   0.00007   0.00000   0.00015   0.00016   2.07305
    R4        2.06773  -0.00082   0.00000  -0.00235  -0.00235   2.06538
    R5        2.91792  -0.00516  -0.00009  -0.01489  -0.01497   2.90295
    R6        2.06774  -0.00082   0.00000  -0.00234  -0.00234   2.06540
    R7        2.07287   0.00007   0.00000   0.00023   0.00023   2.07310
    R8        2.87838   0.00152  -0.00007   0.00739   0.00732   2.88570
    R9        2.07130   0.00110  -0.00001   0.00352   0.00351   2.07481
   R10        2.06338   0.00067   0.00000   0.00193   0.00193   2.06531
   R11        2.29241  -0.00906   0.00005  -0.01118  -0.01113   2.28128
   R12        2.87833   0.00151  -0.00007   0.00737   0.00730   2.88563
   R13        2.06340   0.00067   0.00000   0.00192   0.00192   2.06532
   R14        2.07135   0.00110  -0.00001   0.00351   0.00350   2.07485
    A1        1.81425   0.00085   0.00002  -0.00053  -0.00051   1.81374
    A2        1.91256  -0.00028   0.00001   0.00376   0.00376   1.91632
    A3        1.96863   0.00006  -0.00002  -0.00016  -0.00019   1.96844
    A4        1.91108   0.00013   0.00002   0.00195   0.00198   1.91306
    A5        1.98332  -0.00113  -0.00006  -0.00794  -0.00801   1.97531
    A6        1.87330   0.00036   0.00002   0.00318   0.00321   1.87650
    A7        1.81427   0.00086   0.00002  -0.00050  -0.00047   1.81380
    A8        1.96858   0.00006  -0.00002  -0.00012  -0.00015   1.96843
    A9        1.91259  -0.00028   0.00001   0.00371   0.00370   1.91629
   A10        1.98323  -0.00112  -0.00006  -0.00787  -0.00795   1.97528
   A11        1.91118   0.00013   0.00002   0.00186   0.00189   1.91307
   A12        1.87330   0.00036   0.00002   0.00318   0.00321   1.87651
   A13        1.82372  -0.00114  -0.00011  -0.00177  -0.00191   1.82181
   A14        1.94144   0.00065   0.00001  -0.00056  -0.00055   1.94089
   A15        1.99918   0.00069  -0.00010   0.01419   0.01403   2.01321
   A16        1.88132  -0.00004   0.00005  -0.00449  -0.00446   1.87686
   A17        1.92038   0.00095   0.00005   0.00882   0.00881   1.92919
   A18        1.89388  -0.00109   0.00010  -0.01617  -0.01604   1.87784
   A19        2.18934  -0.00026  -0.00006   0.00149   0.00143   2.19077
   A20        1.90448   0.00051   0.00012  -0.00301  -0.00287   1.90160
   A21        2.18937  -0.00025  -0.00006   0.00151   0.00145   2.19082
   A22        1.82369  -0.00114  -0.00011  -0.00183  -0.00197   1.82172
   A23        1.99937   0.00069  -0.00010   0.01412   0.01396   2.01333
   A24        1.94139   0.00064   0.00001  -0.00061  -0.00060   1.94079
   A25        1.92060   0.00095   0.00005   0.00865   0.00864   1.92924
   A26        1.88134  -0.00004   0.00005  -0.00449  -0.00446   1.87688
   A27        1.89355  -0.00108   0.00009  -0.01584  -0.01571   1.87784
    D1        0.66350   0.00099   0.00009   0.01196   0.01207   0.67558
    D2        2.81951   0.00022   0.00003   0.00189   0.00192   2.82144
    D3       -1.37796   0.00052   0.00005   0.00836   0.00843  -1.36953
    D4       -1.37783   0.00051   0.00005   0.00825   0.00831  -1.36951
    D5        0.77818  -0.00026  -0.00001  -0.00182  -0.00184   0.77635
    D6        2.86390   0.00004   0.00001   0.00465   0.00467   2.86856
    D7        2.81964   0.00021   0.00003   0.00176   0.00180   2.82143
    D8       -1.30754  -0.00056  -0.00004  -0.00831  -0.00835  -1.31589
    D9        0.77817  -0.00026  -0.00002  -0.00183  -0.00185   0.77632
   D10       -0.53311   0.00038  -0.00003  -0.00709  -0.00709  -0.54020
   D11       -2.63590  -0.00040   0.00002  -0.02458  -0.02457  -2.66047
   D12        1.49217  -0.00001  -0.00003  -0.01368  -0.01370   1.47848
   D13        1.50924   0.00057   0.00000  -0.00212  -0.00209   1.50715
   D14       -0.59354  -0.00022   0.00005  -0.01961  -0.01958  -0.61311
   D15       -2.74865   0.00018   0.00000  -0.00871  -0.00870  -2.75736
   D16       -2.67964   0.00037   0.00001  -0.00192  -0.00190  -2.68154
   D17        1.50076  -0.00041   0.00006  -0.01942  -0.01939   1.48138
   D18       -0.65435  -0.00001   0.00001  -0.00852  -0.00851  -0.66286
   D19       -0.53256   0.00038  -0.00003  -0.00682  -0.00682  -0.53938
   D20        1.49275   0.00000  -0.00003  -0.01335  -0.01337   1.47938
   D21       -2.63499  -0.00041   0.00002  -0.02459  -0.02459  -2.65957
   D22       -2.67899   0.00037   0.00001  -0.00177  -0.00175  -2.68074
   D23       -0.65368  -0.00001   0.00001  -0.00830  -0.00829  -0.66198
   D24        1.50177  -0.00042   0.00006  -0.01954  -0.01951   1.48226
   D25        1.50988   0.00057   0.00000  -0.00194  -0.00192   1.50796
   D26       -2.74800   0.00019   0.00000  -0.00847  -0.00846  -2.75646
   D27       -0.59254  -0.00023   0.00005  -0.01972  -0.01968  -0.61222
   D28       -2.93869   0.00017   0.00001   0.00428   0.00430  -2.93439
   D29        0.20320   0.00016   0.00001   0.00354   0.00356   0.20676
   D30        1.27778   0.00002   0.00004   0.00792   0.00795   1.28573
   D31       -1.86352   0.00001   0.00004   0.00718   0.00721  -1.85631
   D32       -0.78445   0.00083  -0.00014   0.02506   0.02494  -0.75951
   D33        2.35743   0.00082  -0.00014   0.02432   0.02420   2.38163
   D34        0.20409   0.00017   0.00001   0.00399   0.00401   0.20811
   D35        2.35866   0.00082  -0.00014   0.02457   0.02445   2.38311
   D36       -1.86256   0.00003   0.00004   0.00773   0.00775  -1.85481
   D37       -2.93720   0.00016   0.00001   0.00325   0.00327  -2.93393
   D38       -0.78264   0.00081  -0.00014   0.02383   0.02371  -0.75893
   D39        1.27933   0.00002   0.00003   0.00699   0.00701   1.28634
         Item               Value     Threshold  Converged?
 Maximum Force            0.009058     0.000450     NO 
 RMS     Force            0.001447     0.000300     NO 
 Maximum Displacement     0.036488     0.001800     NO 
 RMS     Displacement     0.009188     0.001200     NO 
 Predicted change in Energy=-2.714933D-04
 GradGradGradGradGradGradGradGradGradGradGradGradGradGradGradGradGradGrad

                          Input orientation:                          
 ---------------------------------------------------------------------
 Center     Atomic      Atomic             Coordinates (Angstroms)
 Number     Number       Type             X           Y           Z
 ---------------------------------------------------------------------
      1          6           0        1.042855   -0.784567    0.972367
      2          6           0        1.586583    0.352492    0.084728
      3          6           0        0.335068    1.162250   -0.286534
      4          6           0       -0.789512    0.129654   -0.317198
      5          8           0       -1.896856    0.311601   -0.762191
      6          6           0       -0.286151   -1.170520    0.305649
      7          1           0        0.851068   -0.406681    1.984220
      8          1           0        1.739098   -1.622424    1.060612
      9          1           0        2.352935    0.950186    0.584764
     10          1           0        2.036047   -0.067746   -0.823494
     11          1           0        0.090242    1.894951    0.493652
     12          1           0        0.389551    1.698085   -1.237521
     13          1           0       -1.040350   -1.592247    0.974827
     14          1           0       -0.127477   -1.888334   -0.509880
 ---------------------------------------------------------------------
                    Distance matrix (angstroms):
                    1          2          3          4          5
     1  C    0.000000
     2  C    1.541573   0.000000
     3  C    2.424023   1.536174   0.000000
     4  C    2.419989   2.420130   1.527048   0.000000
     5  O    3.584993   3.585148   2.435434   1.207201   0.000000
     6  C    1.536140   2.423943   2.485640   1.527011   2.435433
     7  H    1.097008   2.173797   2.807868   2.876749   3.950922
     8  H    1.092953   2.208144   3.397132   3.370758   4.503690
     9  H    2.208148   1.092964   2.208148   3.370724   4.503643
    10  H    2.173794   1.097035   2.166689   2.877340   3.951631
    11  H    2.883826   2.187563   1.097944   2.132538   2.834202
    12  H    3.387325   2.234244   1.092915   2.167293   2.715867
    13  H    2.234299   3.387486   3.327169   2.167300   2.715782
    14  H    2.187472   2.883204   3.093524   2.132532   2.834445
                    6          7          8          9         10
     6  C    0.000000
     7  H    2.166637   0.000000
     8  H    2.208126   1.766262   0.000000
     9  H    3.397068   2.460725   2.687294   0.000000
    10  H    2.807788   3.066318   2.460703   1.766294   0.000000
    11  H    3.094208   2.845726   3.925824   2.453703   3.061569
    12  H    3.326686   3.875906   4.257754   2.781178   2.449597
    13  H    1.092918   2.449878   2.780935   4.257992   3.875858
    14  H    1.097963   3.061598   2.453825   3.925288   2.844949
                   11         12         13         14
    11  H    0.000000
    12  H    1.767852   0.000000
    13  H    3.697339   4.214900   0.000000
    14  H    3.920169   3.695833   1.767868   0.000000
 Stoichiometry    C5H8O
 Framework group  C1[X(C5H8O)]
 Deg. of freedom    36
 Full point group                 C1      NOp   1
 Largest Abelian subgroup         C1      NOp   1
 Largest concise Abelian subgroup C1      NOp   1
                         Standard orientation:                         
 ---------------------------------------------------------------------
 Center     Atomic      Atomic             Coordinates (Angstroms)
 Number     Number       Type             X           Y           Z
 ---------------------------------------------------------------------
      1          6           0       -1.375217    0.734791    0.233109
      2          6           0       -1.375395   -0.734691   -0.232796
      3          6           0        0.031471   -1.236420    0.126130
      4          6           0        0.918724    0.000018    0.000116
      5          8           0        2.125925    0.000001    0.000173
      6          6           0        0.031472    1.236336   -0.126617
      7          1           0       -1.515376    0.779914    1.320191
      8          1           0       -2.172648    1.324494   -0.226129
      9          1           0       -2.172624   -1.324340    0.226889
     10          1           0       -1.516182   -0.779773   -1.319825
     11          1           0        0.078834   -1.572569    1.170276
     12          1           0        0.412822   -2.047307   -0.499567
     13          1           0        0.413036    2.047786    0.498225
     14          1           0        0.078407    1.571588   -1.171091
 ---------------------------------------------------------------------
 Rotational constants (GHZ):      6.6147120      3.3596268      2.4100127
 Standard basis: 6-31+G(d) (6D, 7F)
 There are   130 symmetry adapted cartesian basis functions of A   symmetry.
 There are   130 symmetry adapted basis functions of A   symmetry.
   130 basis functions,   224 primitive gaussians,   130 cartesian basis functions
    23 alpha electrons       23 beta electrons
       nuclear repulsion energy       235.4410254077 Hartrees.
 NAtoms=   14 NActive=   14 NUniq=   14 SFac= 1.00D+00 NAtFMM=   60 NAOKFM=F Big=F
 Integral buffers will be    131072 words long.
 Raffenetti 2 integral format.
 Two-electron integral symmetry is turned on.
 One-electron integrals computed using PRISM.
 NBasis=   130 RedAO= T EigKep=  3.18D-05  NBF=   130
 NBsUse=   130 1.00D-06 EigRej= -1.00D+00 NBFU=   130
 Initial guess from the checkpoint file:  "/srv/scratch/z5358697/gauss/Gau-4011026.chk"
 B after Tr=     0.000000    0.000000    0.000000
         Rot=    1.000000    0.000463    0.000007   -0.000006 Ang=   0.05 deg.
 ExpMin= 4.38D-02 ExpMax= 5.48D+03 ExpMxC= 8.25D+02 IAcc=2 IRadAn=         4 AccDes= 0.00D+00
 Harris functional with IExCor= 1009 and IRadAn=       4 diagonalized for initial guess.
 HarFok:  IExCor= 1009 AccDes= 0.00D+00 IRadAn=         4 IDoV= 1 UseB2=F ITyADJ=14
 ICtDFT=  3500011 ScaDFX=  1.000000  1.000000  1.000000  1.000000
 FoFCou: FMM=F IPFlag=           0 FMFlag=      100000 FMFlg1=           0
         NFxFlg=           0 DoJE=T BraDBF=F KetDBF=T FulRan=T
         wScrn=  0.000000 ICntrl=     500 IOpCl=  0 I1Cent=   200000004 NGrid=           0
         NMat0=    1 NMatS0=      1 NMatT0=    0 NMatD0=    1 NMtDS0=    0 NMtDT0=    0
 Petite list used in FoFCou.
 Requested convergence on RMS density matrix=1.00D-08 within 128 cycles.
 Requested convergence on MAX density matrix=1.00D-06.
 Requested convergence on             energy=1.00D-06.
 No special actions if energy rises.
 SCF Done:  E(RM062X) =  -270.453458116     A.U. after   11 cycles
            NFock= 11  Conv=0.22D-08     -V/T= 2.0088
 Calling FoFJK, ICntrl=      2127 FMM=F ISym2X=0 I1Cent= 0 IOpClX= 0 NMat=1 NMatS=1 NMatT=0.
 ***** Axes restored to original set *****
 -------------------------------------------------------------------
 Center     Atomic                   Forces (Hartrees/Bohr)
 Number     Number              X              Y              Z
 -------------------------------------------------------------------
      1        6          -0.001490828   -0.000332770   -0.000654603
      2        6          -0.001367946    0.000801082   -0.000509970
      3        6           0.001849593   -0.001514227   -0.000051812
      4        6          -0.000487513    0.000069080   -0.000272844
      5        8          -0.000258402    0.000046715   -0.000080774
      6        6           0.001620112    0.000937636    0.001497894
      7        1           0.000310141    0.000386512   -0.000136676
      8        1           0.000097612    0.000011499   -0.000099854
      9        1          -0.000008709   -0.000031460    0.000132262
     10        1           0.000005205   -0.000431918    0.000282346
     11        1          -0.000251692    0.000079311    0.000252866
     12        1          -0.000014883    0.000330296    0.000174426
     13        1           0.000024670   -0.000331732   -0.000168491
     14        1          -0.000027361   -0.000020023   -0.000364769
 -------------------------------------------------------------------
 Cartesian Forces:  Max     0.001849593 RMS     0.000663805

 GradGradGradGradGradGradGradGradGradGradGradGradGradGradGradGradGradGrad
 Berny optimization.
 Using GEDIIS/GDIIS optimizer.
 FormGI is forming the generalized inverse of G from B-inverse, IUseBI=4.
 Internal  Forces:  Max     0.001486820 RMS     0.000290238
 Search for a local minimum.
 Step number   3 out of a maximum of   90
 All quantities printed in internal units (Hartrees-Bohrs-Radians)
 Mixed Optimization -- En-DIIS/RFO-DIIS
 Update second derivatives using D2CorX and points    1    2    3
 DE= -3.10D-04 DEPred=-2.71D-04 R= 1.14D+00
 TightC=F SS=  1.41D+00  RLast= 9.28D-02 DXNew= 8.4853D-01 2.7846D-01
 Trust test= 1.14D+00 RLast= 9.28D-02 DXMaxT set to 5.05D-01
 ITU=  1  1  0
 Use linear search instead of GDIIS.
     Eigenvalues ---    0.00601   0.00610   0.00678   0.02212   0.03085
     Eigenvalues ---    0.04598   0.04732   0.05275   0.05443   0.05845
     Eigenvalues ---    0.06208   0.06467   0.06997   0.07244   0.08014
     Eigenvalues ---    0.08580   0.09207   0.10003   0.11436   0.20797
     Eigenvalues ---    0.22765   0.25000   0.27079   0.28143   0.29899
     Eigenvalues ---    0.31358   0.32966   0.33993   0.34047   0.34262
     Eigenvalues ---    0.34363   0.34394   0.34480   0.34590   0.34798
     Eigenvalues ---    0.94160
 RFO step:  Lambda=-4.71359214D-05 EMin= 6.00768629D-03
 Quartic linear search produced a step of  0.19463.
 Iteration  1 RMS(Cart)=  0.00593108 RMS(Int)=  0.00002543
 Iteration  2 RMS(Cart)=  0.00002613 RMS(Int)=  0.00000906
 Iteration  3 RMS(Cart)=  0.00000000 RMS(Int)=  0.00000906
 Variable       Old X    -DE/DX   Delta X   Delta X   Delta X     New X
                                 (Linear)    (Quad)   (Total)
    R1        2.91315  -0.00063   0.00152  -0.00303  -0.00151   2.91164
    R2        2.90288  -0.00148  -0.00290  -0.00348  -0.00638   2.89651
    R3        2.07305  -0.00006   0.00003  -0.00022  -0.00019   2.07285
    R4        2.06538   0.00005  -0.00046   0.00044  -0.00002   2.06536
    R5        2.90295  -0.00149  -0.00291  -0.00354  -0.00645   2.89650
    R6        2.06540   0.00004  -0.00045   0.00042  -0.00004   2.06536
    R7        2.07310  -0.00007   0.00004  -0.00028  -0.00024   2.07286
    R8        2.88570   0.00013   0.00142   0.00021   0.00163   2.88734
    R9        2.07481   0.00030   0.00068   0.00074   0.00143   2.07624
   R10        2.06531   0.00000   0.00038  -0.00022   0.00016   2.06547
   R11        2.28128   0.00027  -0.00217   0.00122  -0.00095   2.28033
   R12        2.88563   0.00014   0.00142   0.00025   0.00168   2.88731
   R13        2.06532   0.00000   0.00037  -0.00022   0.00016   2.06547
   R14        2.07485   0.00029   0.00068   0.00072   0.00140   2.07624
    A1        1.81374   0.00014  -0.00010  -0.00148  -0.00158   1.81216
    A2        1.91632  -0.00026   0.00073  -0.00398  -0.00324   1.91308
    A3        1.96844  -0.00015  -0.00004  -0.00160  -0.00164   1.96679
    A4        1.91306   0.00019   0.00039   0.00452   0.00490   1.91797
    A5        1.97531  -0.00001  -0.00156   0.00139  -0.00017   1.97513
    A6        1.87650   0.00009   0.00062   0.00108   0.00170   1.87820
    A7        1.81380   0.00015  -0.00009  -0.00158  -0.00168   1.81212
    A8        1.96843  -0.00016  -0.00003  -0.00167  -0.00170   1.96673
    A9        1.91629  -0.00025   0.00072  -0.00386  -0.00313   1.91315
   A10        1.97528  -0.00001  -0.00155   0.00138  -0.00018   1.97511
   A11        1.91307   0.00019   0.00037   0.00458   0.00495   1.91802
   A12        1.87651   0.00009   0.00062   0.00109   0.00171   1.87821
   A13        1.82181   0.00017  -0.00037   0.00149   0.00110   1.82291
   A14        1.94089   0.00003  -0.00011  -0.00093  -0.00103   1.93986
   A15        2.01321   0.00002   0.00273   0.00180   0.00451   2.01772
   A16        1.87686  -0.00020  -0.00087  -0.00383  -0.00470   1.87216
   A17        1.92919   0.00003   0.00171   0.00173   0.00342   1.93261
   A18        1.87784  -0.00006  -0.00312  -0.00062  -0.00373   1.87411
   A19        2.19077   0.00031   0.00028   0.00226   0.00253   2.19330
   A20        1.90160  -0.00061  -0.00056  -0.00451  -0.00506   1.89654
   A21        2.19082   0.00030   0.00028   0.00225   0.00252   2.19334
   A22        1.82172   0.00017  -0.00038   0.00166   0.00126   1.82297
   A23        2.01333   0.00001   0.00272   0.00173   0.00442   2.01775
   A24        1.94079   0.00004  -0.00012  -0.00093  -0.00104   1.93974
   A25        1.92924   0.00004   0.00168   0.00191   0.00356   1.93280
   A26        1.87688  -0.00021  -0.00087  -0.00410  -0.00497   1.87191
   A27        1.87784  -0.00006  -0.00306  -0.00063  -0.00367   1.87417
    D1        0.67558   0.00009   0.00235   0.00536   0.00771   0.68328
    D2        2.82144   0.00008   0.00037   0.00505   0.00542   2.82686
    D3       -1.36953  -0.00009   0.00164   0.00267   0.00431  -1.36522
    D4       -1.36951  -0.00009   0.00162   0.00275   0.00437  -1.36515
    D5        0.77635  -0.00010  -0.00036   0.00244   0.00208   0.77843
    D6        2.86856  -0.00027   0.00091   0.00006   0.00097   2.86953
    D7        2.82143   0.00008   0.00035   0.00517   0.00552   2.82696
    D8       -1.31589   0.00006  -0.00163   0.00487   0.00324  -1.31265
    D9        0.77632  -0.00010  -0.00036   0.00249   0.00213   0.77845
   D10       -0.54020   0.00003  -0.00138  -0.00422  -0.00559  -0.54579
   D11       -2.66047  -0.00014  -0.00478  -0.00882  -0.01360  -2.67407
   D12        1.47848  -0.00010  -0.00267  -0.00854  -0.01120   1.46728
   D13        1.50715  -0.00010  -0.00041  -0.00752  -0.00792   1.49923
   D14       -0.61311  -0.00028  -0.00381  -0.01211  -0.01593  -0.62905
   D15       -2.75736  -0.00023  -0.00169  -0.01184  -0.01353  -2.77089
   D16       -2.68154   0.00013  -0.00037  -0.00206  -0.00242  -2.68397
   D17        1.48138  -0.00004  -0.00377  -0.00665  -0.01044   1.47094
   D18       -0.66286   0.00000  -0.00166  -0.00638  -0.00803  -0.67090
   D19       -0.53938   0.00002  -0.00133  -0.00550  -0.00682  -0.54620
   D20        1.47938  -0.00010  -0.00260  -0.00960  -0.01220   1.46718
   D21       -2.65957  -0.00014  -0.00479  -0.00981  -0.01460  -2.67417
   D22       -2.68074   0.00012  -0.00034  -0.00318  -0.00351  -2.68425
   D23       -0.66198   0.00000  -0.00161  -0.00728  -0.00889  -0.67087
   D24        1.48226  -0.00004  -0.00380  -0.00749  -0.01129   1.47097
   D25        1.50796  -0.00011  -0.00037  -0.00868  -0.00905   1.49891
   D26       -2.75646  -0.00023  -0.00165  -0.01278  -0.01443  -2.77089
   D27       -0.61222  -0.00027  -0.00383  -0.01299  -0.01683  -0.62906
   D28       -2.93439   0.00001   0.00084   0.00066   0.00149  -2.93290
   D29        0.20676   0.00003   0.00069   0.00293   0.00363   0.21038
   D30        1.28573  -0.00002   0.00155   0.00274   0.00429   1.29001
   D31       -1.85631   0.00000   0.00140   0.00502   0.00642  -1.84990
   D32       -0.75951   0.00015   0.00485   0.00477   0.00963  -0.74988
   D33        2.38163   0.00017   0.00471   0.00705   0.01177   2.39340
   D34        0.20811   0.00001   0.00078   0.00081   0.00159   0.20970
   D35        2.38311   0.00015   0.00476   0.00504   0.00981   2.39291
   D36       -1.85481  -0.00002   0.00151   0.00294   0.00445  -1.85036
   D37       -2.93393   0.00003   0.00064   0.00309   0.00373  -2.93021
   D38       -0.75893   0.00017   0.00461   0.00732   0.01194  -0.74699
   D39        1.28634  -0.00001   0.00136   0.00522   0.00658   1.29292
         Item               Value     Threshold  Converged?
 Maximum Force            0.001487     0.000450     NO 
 RMS     Force            0.000290     0.000300     YES
 Maximum Displacement     0.022344     0.001800     NO 
 RMS     Displacement     0.005932     0.001200     NO 
 Predicted change in Energy=-3.112388D-05
 GradGradGradGradGradGradGradGradGradGradGradGradGradGradGradGradGradGrad

                          Input orientation:                          
 ---------------------------------------------------------------------
 Center     Atomic      Atomic             Coordinates (Angstroms)
 Number     Number       Type             X           Y           Z
 ---------------------------------------------------------------------
      1          6           0        1.040138   -0.781253    0.974129
      2          6           0        1.585059    0.349906    0.081092
      3          6           0        0.336899    1.160200   -0.286162
      4          6           0       -0.790658    0.129626   -0.318542
      5          8           0       -1.897815    0.311791   -0.762548
      6          6           0       -0.284135   -1.169128    0.306876
      7          1           0        0.850563   -0.394857    1.983070
      8          1           0        1.736683   -1.618448    1.066087
      9          1           0        2.353922    0.946445    0.578602
     10          1           0        2.031695   -0.078621   -0.824496
     11          1           0        0.091281    1.887745    0.499643
     12          1           0        0.389376    1.706082   -1.231629
     13          1           0       -1.038937   -1.599591    0.969919
     14          1           0       -0.120972   -1.883197   -0.512042
 ---------------------------------------------------------------------
                    Distance matrix (angstroms):
                    1          2          3          4          5
     1  C    0.000000
     2  C    1.540771   0.000000
     3  C    2.419116   1.532761   0.000000
     4  C    2.419197   2.419146   1.527913   0.000000
     5  O    3.583624   3.583796   2.437352   1.206698   0.000000
     6  C    1.532766   2.419159   2.482568   1.527899   2.437366
     7  H    1.096906   2.170640   2.798476   2.875084   3.948588
     8  H    1.092944   2.206269   3.392470   3.370522   4.503255
     9  H    2.206221   1.092943   2.204969   3.370526   4.503192
    10  H    2.170698   1.096909   2.167213   2.874898   3.949343
    11  H    2.872111   2.184379   1.098700   2.130311   2.834300
    12  H    3.387580   2.234303   1.093000   2.170581   2.719435
    13  H    2.234333   3.387611   3.329731   2.170706   2.718914
    14  H    2.184299   2.872125   3.085925   2.130113   2.835119
                    6          7          8          9         10
     6  C    0.000000
     7  H    2.167178   0.000000
     8  H    2.204994   1.767270   0.000000
     9  H    3.392466   2.455954   2.682778   0.000000
    10  H    2.798621   3.062272   2.456095   1.767279   0.000000
    11  H    3.085866   2.826189   3.914282   2.451903   3.063519
    12  H    3.329782   3.867936   4.259957   2.777306   2.459295
    13  H    1.093000   2.459282   2.777350   4.259920   3.868081
    14  H    1.098701   3.063433   2.451829   3.914266   2.826323
                   11         12         13         14
    11  H    0.000000
    12  H    1.766116   0.000000
    13  H    3.695952   4.220706   0.000000
    14  H    3.910060   3.696104   1.766154   0.000000
 Stoichiometry    C5H8O
 Framework group  C1[X(C5H8O)]
 Deg. of freedom    36
 Full point group                 C1      NOp   1
 Largest Abelian subgroup         C1      NOp   1
 Largest concise Abelian subgroup C1      NOp   1
                         Standard orientation:                         
 ---------------------------------------------------------------------
 Center     Atomic      Atomic             Coordinates (Angstroms)
 Number     Number       Type             X           Y           Z
 ---------------------------------------------------------------------
      1          6           0       -1.373251    0.733357    0.236247
      2          6           0       -1.373426   -0.733273   -0.235952
      3          6           0        0.028950   -1.234848    0.126152
      4          6           0        0.919890   -0.000071   -0.000615
      5          8           0        2.126587   -0.000026    0.000370
      6          6           0        0.029021    1.234840   -0.126406
      7          1           0       -1.513114    0.770064    1.323581
      8          1           0       -2.172208    1.323257   -0.220057
      9          1           0       -2.172221   -1.323053    0.220789
     10          1           0       -1.513808   -0.770053   -1.323219
     11          1           0        0.074158   -1.563476    1.173578
     12          1           0        0.411629   -2.052900   -0.489474
     13          1           0        0.412075    2.052793    0.489121
     14          1           0        0.073686    1.563539   -1.173835
 ---------------------------------------------------------------------
 Rotational constants (GHZ):      6.6274029      3.3605692      2.4131583
 Standard basis: 6-31+G(d) (6D, 7F)
 There are   130 symmetry adapted cartesian basis functions of A   symmetry.
 There are   130 symmetry adapted basis functions of A   symmetry.
   130 basis functions,   224 primitive gaussians,   130 cartesian basis functions
    23 alpha electrons       23 beta electrons
       nuclear repulsion energy       235.5675253597 Hartrees.
 NAtoms=   14 NActive=   14 NUniq=   14 SFac= 1.00D+00 NAtFMM=   60 NAOKFM=F Big=F
 Integral buffers will be    131072 words long.
 Raffenetti 2 integral format.
 Two-electron integral symmetry is turned on.
 One-electron integrals computed using PRISM.
 NBasis=   130 RedAO= T EigKep=  3.16D-05  NBF=   130
 NBsUse=   130 1.00D-06 EigRej= -1.00D+00 NBFU=   130
 Initial guess from the checkpoint file:  "/srv/scratch/z5358697/gauss/Gau-4011026.chk"
 B after Tr=     0.000000    0.000000    0.000000
         Rot=    1.000000   -0.000033    0.000000    0.000007 Ang=   0.00 deg.
 ExpMin= 4.38D-02 ExpMax= 5.48D+03 ExpMxC= 8.25D+02 IAcc=2 IRadAn=         4 AccDes= 0.00D+00
 Harris functional with IExCor= 1009 and IRadAn=       4 diagonalized for initial guess.
 HarFok:  IExCor= 1009 AccDes= 0.00D+00 IRadAn=         4 IDoV= 1 UseB2=F ITyADJ=14
 ICtDFT=  3500011 ScaDFX=  1.000000  1.000000  1.000000  1.000000
 FoFCou: FMM=F IPFlag=           0 FMFlag=      100000 FMFlg1=           0
         NFxFlg=           0 DoJE=T BraDBF=F KetDBF=T FulRan=T
         wScrn=  0.000000 ICntrl=     500 IOpCl=  0 I1Cent=   200000004 NGrid=           0
         NMat0=    1 NMatS0=      1 NMatT0=    0 NMatD0=    1 NMtDS0=    0 NMtDT0=    0
 Petite list used in FoFCou.
 Requested convergence on RMS density matrix=1.00D-08 within 128 cycles.
 Requested convergence on MAX density matrix=1.00D-06.
 Requested convergence on             energy=1.00D-06.
 No special actions if energy rises.
 SCF Done:  E(RM062X) =  -270.453491456     A.U. after   10 cycles
            NFock= 10  Conv=0.75D-08     -V/T= 2.0087
 Calling FoFJK, ICntrl=      2127 FMM=F ISym2X=0 I1Cent= 0 IOpClX= 0 NMat=1 NMatS=1 NMatT=0.
 ***** Axes restored to original set *****
 -------------------------------------------------------------------
 Center     Atomic                   Forces (Hartrees/Bohr)
 Number     Number              X              Y              Z
 -------------------------------------------------------------------
      1        6          -0.000102850   -0.000186280   -0.000152708
      2        6          -0.000113806    0.000238148    0.000073827
      3        6          -0.000048154   -0.000064261   -0.000505130
      4        6           0.000793542   -0.000063640    0.000564835
      5        8          -0.000654805    0.000086562   -0.000343522
      6        6          -0.000302907    0.000077466    0.000190987
      7        1          -0.000025590    0.000028718    0.000026490
      8        1           0.000065617   -0.000024680    0.000122898
      9        1           0.000139602   -0.000009198   -0.000044772
     10        1          -0.000010878   -0.000024344   -0.000038034
     11        1          -0.000005186   -0.000155143    0.000148242
     12        1           0.000062311   -0.000019208    0.000021913
     13        1           0.000052190    0.000023223    0.000011986
     14        1           0.000150915    0.000092635   -0.000077011
 -------------------------------------------------------------------
 Cartesian Forces:  Max     0.000793542 RMS     0.000228038

 GradGradGradGradGradGradGradGradGradGradGradGradGradGradGradGradGradGrad
 Berny optimization.
 Using GEDIIS/GDIIS optimizer.
 FormGI is forming the generalized inverse of G from B-inverse, IUseBI=4.
 Internal  Forces:  Max     0.000740256 RMS     0.000097655
 Search for a local minimum.
 Step number   4 out of a maximum of   90
 All quantities printed in internal units (Hartrees-Bohrs-Radians)
 Mixed Optimization -- En-DIIS/RFO-DIIS
 Swapping is turned off.
 Update second derivatives using D2CorX and points    1    2    3    4
 DE= -3.33D-05 DEPred=-3.11D-05 R= 1.07D+00
 TightC=F SS=  1.41D+00  RLast= 5.82D-02 DXNew= 8.4853D-01 1.7456D-01
 Trust test= 1.07D+00 RLast= 5.82D-02 DXMaxT set to 5.05D-01
 ITU=  1  1  1  0
     Eigenvalues ---    0.00532   0.00608   0.00685   0.02056   0.03101
     Eigenvalues ---    0.04554   0.04699   0.05279   0.05615   0.05848
     Eigenvalues ---    0.06204   0.06490   0.06981   0.07312   0.08312
     Eigenvalues ---    0.08601   0.09219   0.10010   0.11436   0.20779
     Eigenvalues ---    0.22793   0.25000   0.28126   0.28285   0.30004
     Eigenvalues ---    0.31355   0.32270   0.34000   0.34061   0.34228
     Eigenvalues ---    0.34363   0.34395   0.34501   0.34590   0.34998
     Eigenvalues ---    0.96139
 En-DIIS/RFO-DIIS IScMMF=        0 using points:     4    3
 RFO step:  Lambda=-1.36921610D-06.
 DidBck=F Rises=F RFO-DIIS coefs:    1.07549   -0.07549
 Iteration  1 RMS(Cart)=  0.00199200 RMS(Int)=  0.00000340
 Iteration  2 RMS(Cart)=  0.00000337 RMS(Int)=  0.00000157
 Iteration  3 RMS(Cart)=  0.00000000 RMS(Int)=  0.00000157
 Variable       Old X    -DE/DX   Delta X   Delta X   Delta X     New X
                                 (Linear)    (Quad)   (Total)
    R1        2.91164   0.00014  -0.00011   0.00062   0.00050   2.91214
    R2        2.89651  -0.00007  -0.00048  -0.00045  -0.00093   2.89558
    R3        2.07285   0.00003  -0.00001   0.00010   0.00009   2.07294
    R4        2.06536   0.00008   0.00000   0.00020   0.00020   2.06557
    R5        2.89650  -0.00007  -0.00049  -0.00036  -0.00085   2.89565
    R6        2.06536   0.00008   0.00000   0.00021   0.00020   2.06557
    R7        2.07286   0.00003  -0.00002   0.00009   0.00008   2.07293
    R8        2.88734  -0.00012   0.00012  -0.00026  -0.00013   2.88720
    R9        2.07624   0.00002   0.00011   0.00008   0.00019   2.07643
   R10        2.06547  -0.00003   0.00001  -0.00008  -0.00007   2.06540
   R11        2.28033   0.00074  -0.00007   0.00070   0.00063   2.28096
   R12        2.88731  -0.00011   0.00013  -0.00031  -0.00018   2.88713
   R13        2.06547  -0.00005   0.00001  -0.00012  -0.00011   2.06536
   R14        2.07624   0.00003   0.00011   0.00013   0.00024   2.07648
    A1        1.81216  -0.00002  -0.00012  -0.00049  -0.00061   1.81155
    A2        1.91308   0.00002  -0.00024   0.00015  -0.00010   1.91298
    A3        1.96679   0.00000  -0.00012   0.00031   0.00019   1.96699
    A4        1.91797  -0.00003   0.00037  -0.00031   0.00006   1.91802
    A5        1.97513   0.00006  -0.00001   0.00068   0.00067   1.97580
    A6        1.87820  -0.00003   0.00013  -0.00035  -0.00022   1.87798
[...]
 ! R10   R(3,12)                 1.0929         -DE/DX =    0.0                 !
 ! R11   R(4,5)                  1.2073         -DE/DX =   -0.0002              !
 ! R12   R(4,6)                  1.5277         -DE/DX =   -0.0001              !
 ! R13   R(6,13)                 1.0929         -DE/DX =    0.0                 !
 ! R14   R(6,14)                 1.0989         -DE/DX =    0.0                 !
 ! A1    A(2,1,6)              103.7743         -DE/DX =    0.0                 !
 ! A2    A(2,1,7)              109.5801         -DE/DX =    0.0                 !
 ! A3    A(2,1,8)              112.7215         -DE/DX =    0.0                 !
 ! A4    A(6,1,7)              109.8945         -DE/DX =    0.0                 !
 ! A5    A(6,1,8)              113.2396         -DE/DX =    0.0                 !
 ! A6    A(7,1,8)              107.588          -DE/DX =    0.0                 !
 ! A7    A(1,2,3)              103.7707         -DE/DX =    0.0                 !
 ! A8    A(1,2,9)              112.7178         -DE/DX =    0.0                 !
 ! A9    A(1,2,10)             109.585          -DE/DX =    0.0                 !
 ! A10   A(3,2,9)              113.238          -DE/DX =    0.0                 !
 ! A11   A(3,2,10)             109.898          -DE/DX =    0.0                 !
 ! A12   A(9,2,10)             107.5888         -DE/DX =    0.0                 !
 ! A13   A(2,3,4)              104.4319         -DE/DX =    0.0                 !
 ! A14   A(2,3,11)             110.9853         -DE/DX =    0.0                 !
 ! A15   A(2,3,12)             115.7041         -DE/DX =    0.0                 !
 ! A16   A(4,3,11)             107.1027         -DE/DX =    0.0                 !
 ! A17   A(4,3,12)             110.8778         -DE/DX =    0.0                 !
 ! A18   A(11,3,12)            107.4492         -DE/DX =    0.0                 !
 ! A19   A(3,4,5)              125.6799         -DE/DX =    0.0                 !
 ! A20   A(3,4,6)              108.6392         -DE/DX =    0.0                 !
 ! A21   A(5,4,6)              125.6808         -DE/DX =    0.0                 !
 ! A22   A(1,6,4)              104.4373         -DE/DX =    0.0                 !
 ! A23   A(1,6,13)             115.7046         -DE/DX =    0.0                 !
 ! A24   A(1,6,14)             110.9809         -DE/DX =    0.0                 !
 ! A25   A(4,6,13)             110.888          -DE/DX =    0.0                 !
 ! A26   A(4,6,14)             107.0893         -DE/DX =    0.0001              !
 ! A27   A(13,6,14)            107.4499         -DE/DX =    0.0                 !
 ! D1    D(6,1,2,3)             39.3487         -DE/DX =    0.0                 !
 ! D2    D(6,1,2,9)            162.2371         -DE/DX =    0.0                 !
 ! D3    D(6,1,2,10)           -77.9826         -DE/DX =    0.0                 !
 ! D4    D(7,1,2,3)            -77.9782         -DE/DX =    0.0                 !
 ! D5    D(7,1,2,9)             44.9102         -DE/DX =    0.0                 !
 ! D6    D(7,1,2,10)           164.6905         -DE/DX =    0.0                 !
 ! D7    D(8,1,2,3)            162.2434         -DE/DX =    0.0                 !
 ! D8    D(8,1,2,9)            -74.8682         -DE/DX =    0.0                 !
 ! D9    D(8,1,2,10)            44.9121         -DE/DX =    0.0                 !
 ! D10   D(2,1,6,4)            -31.4209         -DE/DX =    0.0                 !
 ! D11   D(2,1,6,13)          -153.5975         -DE/DX =    0.0                 !
 ! D12   D(2,1,6,14)            83.6486         -DE/DX =    0.0                 !
 ! D13   D(7,1,6,4)             85.6867         -DE/DX =    0.0                 !
 ! D14   D(7,1,6,13)           -36.4899         -DE/DX =    0.0                 !
 ! D15   D(7,1,6,14)          -159.2438         -DE/DX =    0.0                 !
 ! D16   D(8,1,6,4)           -153.9737         -DE/DX =    0.0                 !
 ! D17   D(8,1,6,13)            83.8497         -DE/DX =    0.0                 !
 ! D18   D(8,1,6,14)           -38.9042         -DE/DX =    0.0                 !
 ! D19   D(1,2,3,4)            -31.4602         -DE/DX =    0.0                 !
 ! D20   D(1,2,3,11)            83.6241         -DE/DX =    0.0                 !
 ! D21   D(1,2,3,12)          -153.6197         -DE/DX =    0.0                 !
 ! D22   D(9,2,3,4)           -154.0052         -DE/DX =    0.0                 !
 ! D23   D(9,2,3,11)           -38.9209         -DE/DX =    0.0                 !
 ! D24   D(9,2,3,12)            83.8353         -DE/DX =    0.0                 !
 ! D25   D(10,2,3,4)            85.6527         -DE/DX =    0.0                 !
 ! D26   D(10,2,3,11)         -159.2629         -DE/DX =    0.0                 !
 ! D27   D(10,2,3,12)          -36.5068         -DE/DX =    0.0                 !
 ! D28   D(2,3,4,5)           -167.9695         -DE/DX =    0.0                 !
 ! D29   D(2,3,4,6)             12.1358         -DE/DX =    0.0                 !
 ! D30   D(11,3,4,5)            74.2496         -DE/DX =    0.0                 !
 ! D31   D(11,3,4,6)          -105.645          -DE/DX =    0.0                 !
 ! D32   D(12,3,4,5)           -42.6956         -DE/DX =    0.0                 !
 ! D33   D(12,3,4,6)           137.4097         -DE/DX =    0.0                 !
 ! D34   D(3,4,6,1)             12.0706         -DE/DX =    0.0                 !
 ! D35   D(3,4,6,13)           137.3545         -DE/DX =    0.0                 !
 ! D36   D(3,4,6,14)          -105.7017         -DE/DX =    0.0                 !
 ! D37   D(5,4,6,1)           -167.8241         -DE/DX =    0.0                 !
 ! D38   D(5,4,6,13)           -42.5402         -DE/DX =   -0.0001              !
 ! D39   D(5,4,6,14)            74.4036         -DE/DX =    0.0                 !
 --------------------------------------------------------------------------------
 GradGradGradGradGradGradGradGradGradGradGradGradGradGradGradGradGradGrad

 1\1\GINC-KATANA2\Freq\RM062X\6-31+G(d)\C5H8O1\Z5358697\17-Mar-2025\0\\
 #N Geom=AllCheck Guess=TCheck SCRF=Check GenChk RM062X/6-31+G(d) Freq\
 \cyclopentanone\\0,1\C,1.0388942661,-0.7799207301,0.9753557371\C,1.584
 6755459,0.3488553918,0.079156015\C,0.3372530864,1.1596563364,-0.286430
 9793\C,-0.7904690587,0.1295708519,-0.31861541\O,-1.8981163969,0.311786
 9961,-0.7629052336\C,-0.2839516555,-1.1686528865,0.3074286702\H,0.8479
 513623,-0.3897584217,1.9826935932\H,1.7356119893,-1.6166859528,1.07180
 8312\H,2.3566137038,0.9444204317,0.5734271035\H,2.0281875945,-0.082692
 0836,-0.8266399855\H,0.0921369534,1.8826013632,0.5040631236\H,0.389101
 1307,1.7099799085,-1.2292253145\H,-1.0386355216,-1.6032175777,0.967741
 0145\H,-0.1161529997,-1.8792436271,-0.5138566462\\Version=ES64L-G09Rev
 D.01\State=1-A\HF=-270.4534939\RMSD=1.749e-09\RMSF=1.268e-04\ZeroPoint
 =0.1227307\Thermal=0.1282351\Dipole=1.1777981,-0.1935656,0.4730965\Dip
 oleDeriv=0.0956288,-0.0489061,-0.005827,-0.0123104,0.0755497,0.0571654
 ,0.014764,0.0175456,0.1144546,0.1044018,0.012361,0.0159254,-0.0387089,
 0.0696059,0.0434912,-0.0106489,0.0468093,0.1116436,-0.1670882,-0.16719
 85,-0.0590676,-0.2781313,-0.209602,-0.0083017,-0.0465178,0.0509483,0.0
 92201,1.2565645,0.0140519,0.3864033,0.0046523,0.8749265,-0.2303216,0.3
 82305,-0.2534969,0.3546634,-1.2012238,0.0942847,-0.3220686,0.0966086,-
 0.5289222,0.094028,-0.3203406,0.0992718,-0.5067867,-0.0245014,0.036813
 2,-0.0617555,0.1592104,-0.3186717,0.1774428,-0.0700448,0.1469864,0.058
 4005,0.0159372,-0.0030891,0.046474,-0.0091007,0.0142612,-0.0876063,0.0
 135776,-0.0419716,-0.1283573,-0.040334,0.0900995,-0.0437424,0.0983271,
 -0.0713824,0.052373,-0.0146688,0.0201256,0.0450122,-0.0796901,-0.07114
 59,-0.0441589,-0.0957461,-0.0119736,-0.0282132,-0.0799455,-0.0366195,0
 .024944,0.004042,0.0300954,0.0416375,0.0616616,-0.0024752,-0.0591259,0
 .0849808,-0.0411267,-0.0996836,0.0061708,0.028013,0.023565,0.0292681,0
 .0213337,-0.0441583,0.0406113,-0.0900637,-0.0096743,0.0295908,0.007911
 3,-0.0198632,0.0218982,0.0203991,0.0610024,-0.0033426,0.0967363,-0.028
 6253,-0.0435865,-0.0598509,0.0369388,-0.0440887,0.0444024,0.0202201,0.
 0326046,0.0586689,0.0205955,0.0440882,0.0365606,0.0055392,0.0064596,0.
 0225485,-0.0479959,-0.0233344,-0.0738138,-0.0487874\Polar=61.7229686,0
 .3304739,56.833606,4.7298531,-3.5802148,50.3325614\PG=C01 [X(C5H8O1)]\
 NImag=0\\0.50951086,-0.10498388,0.54095998,0.00919078,0.02267191,0.567
 83106,-0.08813207,-0.02398911,0.02338578,0.57824424,-0.02874885,-0.129
 97254,0.04192208,0.04792074,0.48887461,0.02688002,0.04326312,-0.118798
 11,0.00233603,0.08983917,0.55124936,0.00665644,0.00471934,-0.00343528,
 -0.15529919,0.05222890,-0.02045158,0.42879672,0.01532513,-0.02504831,0
 .01097946,0.05154411,-0.11120808,0.01167579,-0.03186916,0.54893118,-0.
 01549182,0.02135600,-0.00692074,-0.01653060,0.01409122,-0.08703277,-0.
 01459196,-0.04126434,0.58650494,-0.02798664,0.01672559,-0.01385947,-0.
 03862029,-0.00365509,-0.01376377,-0.10752579,-0.03289957,0.00463535,0.
 94729086,0.01064433,0.01195320,0.00067224,0.00736132,0.01613275,-0.001
 35182,-0.04926114,-0.13902294,0.00424764,-0.06186260,0.45154316,-0.018
 63505,0.01118983,-0.00897261,-0.00696805,0.00037426,-0.00251781,0.0122
 4365,0.00929907,-0.08692118,0.26441328,-0.09660610,0.36523848,0.002559
 25,0.00542089,0.00017586,-0.00108536,-0.00869268,-0.00000853,-0.044457
 80,-0.00893772,-0.02006337,-0.70144936,0.09434817,-0.25071655,0.771877
 63,0.00048144,-0.00906469,0.00225119,-0.00424048,-0.00587200,0.0001417
 9,-0.02463217,0.01982862,-0.00810810,0.09477418,-0.11604704,0.05137123
 ,-0.10809335,0.09582873,0.00006807,0.00351838,0.00109473,-0.00010119,-
 0.00235278,0.00154322,-0.01523925,-0.00282461,0.01349640,-0.25050611,0
 .05239150,-0.17168577,0.29441557,-0.06340276,0.14814437,-0.16213159,-0
 .02769746,-0.04197660,-0.02053997,-0.01954691,-0.00229246,0.00266360,-
 0.01699353,-0.00285555,-0.07973153,0.01541223,-0.00363847,-0.02097551,
 0.03805268,-0.02457421,0.52418649,-0.02514354,-0.08528455,-0.01606250,
 -0.02158082,-0.01426623,-0.00584607,-0.00178368,-0.01988369,0.01705404
 ,-0.00070458,-0.15565615,0.02664509,0.02250640,0.00372730,0.01293715,0
 .06734344,0.51375071,-0.04512297,-0.01378483,-0.10607327,0.01326472,0.
 00508168,0.00950014,-0.00668370,0.01151940,0.01996330,0.00402523,0.032
 33146,-0.09810268,-0.01965639,0.01854272,0.00612689,-0.07029961,0.0140
 8049,0.52623210,-0.05702007,0.02140713,0.04252224,-0.00447270,0.004557
 42,0.01388165,0.00015293,0.00015183,-0.00084863,0.00039877,-0.00178154
 ,-0.00005817,-0.00033419,0.00066215,0.00014840,0.00410489,-0.01179957,
 -0.02815362,0.06316260,0.02127267,-0.08494677,-0.08661213,-0.00519591,
 0.00896061,0.02389068,-0.00053946,0.00113540,-0.00038399,-0.00007875,-
 0.00081287,0.00005825,-0.00026607,0.00040311,-0.00011990,0.00086234,-0
 .00427546,-0.00885528,-0.01691098,0.08937700,0.04197771,-0.08711182,-0
 .27003997,0.00463681,-0.00661056,-0.01669393,0.00013310,-0.00040583,0.
 00032017,0.00009738,-0.00117768,-0.00034483,-0.00053706,0.00050515,-0.
 00009628,0.00204843,-0.00456895,-0.01094704,-0.04617595,0.09400690,0.2
 9312323,-0.15975183,0.13536632,-0.01328581,0.01035019,-0.01110051,0.00
 068765,-0.00068315,-0.00172456,0.00197996,-0.00386389,-0.00505684,-0.0
 0043549,-0.00128255,0.00261404,-0.00121429,-0.01466592,0.02097051,-0.0
 0228531,-0.00345886,0.00399016,-0.00023331,0.17093248,0.13594567,-0.21
 010686,0.01478396,0.01495805,-0.01543939,0.00012967,-0.00279239,-0.002
 16694,0.00356560,-0.00226018,-0.00228412,-0.00022713,-0.00048480,0.001
 43636,-0.00060772,-0.00816604,0.01045398,-0.00208738,0.00682473,-0.008
 49277,0.00084840,-0.14550929,0.22520589,-0.01194081,0.01210623,-0.0502
 7019,-0.01291327,0.01389243,-0.00242286,0.00163273,0.00250199,-0.00213
 755,-0.00279478,-0.00009545,-0.00137510,-0.00085535,0.00085160,-0.0005
 0940,-0.00709441,0.01067650,-0.00169698,0.01985429,-0.02380733,0.00341
 856,0.01546893,-0.01690606,0.05349626,-0.00646333,-0.00407585,-0.00372
 786,-0.18130530,-0.10344733,-0.08796183,-0.01516048,-0.01410382,-0.009
 02175,-0.00265614,0.00396386,-0.00147411,-0.00212635,-0.00139701,-0.00
 037644,-0.00007598,-0.00133336,0.00161698,0.00024102,0.00021618,0.0000
 1121,-0.00005375,-0.00016816,0.00025127,0.19679252,-0.01524464,-0.0111
 8217,-0.01240043,-0.10553264,-0.13064652,-0.07150663,0.01520932,0.0123
 9303,0.00839425,0.00175274,-0.00445836,0.00163923,0.00188736,0.0017278
 2,0.00014940,-0.00131374,-0.00248921,0.00425773,0.00046475,0.00151291,
 -0.00012632,0.00021512,-0.00041031,-0.00016644,0.11317212,0.13953941,0
 .01595553,0.01086707,0.01012812,-0.08992240,-0.07257084,-0.10818973,-0
 .00413653,-0.00394699,-0.00313418,0.00112625,0.00297045,-0.00040935,-0
 .00066455,-0.00084933,0.00003970,0.00153508,0.00271538,-0.00241929,-0.
 00019020,-0.00070461,0.00115373,-0.00050264,-0.00019692,0.00013006,0.0
 9502418,0.07578218,0.11331577,-0.00359890,0.00417996,0.00758402,-0.093
 23323,0.03886083,0.08569418,-0.01090468,0.01110762,0.02137938,0.000542
 66,0.00163418,0.00065022,-0.00049465,-0.00051478,-0.00047417,0.0001942
 5,0.00039542,0.00047307,-0.00016306,-0.00128146,0.00073025,0.00069996,
 0.00005269,-0.00051863,0.01062048,-0.00872602,-0.01962708,0.09902765,-
 0.01038556,0.00985294,0.02289391,0.03855970,-0.08966206,-0.08912411,0.
 00814241,-0.00882739,-0.01505351,-0.00041707,-0.00131943,-0.00018576,0
 .00050618,0.00047367,0.00028223,0.00099434,0.00084183,0.00001713,-0.00
 288701,-0.00334406,0.00330167,0.00064795,0.00149732,-0.00044762,0.0077
 8669,-0.00693979,-0.01486555,-0.04634597,0.09805748,0.00689813,-0.0070
 7641,-0.01845352,0.08605846,-0.08970811,-0.22911778,-0.00486158,0.0047
 8713,0.00862129,0.00035124,0.00016398,0.00001984,0.00024817,-0.0001080
 0,-0.00000614,-0.00054647,-0.00019288,0.00057132,0.00176524,0.00377713
 ,-0.00097650,-0.00057881,-0.00016462,0.00071009,0.00604798,-0.00550699
 ,-0.01221218,-0.09438593,0.09244003,0.24856983,0.00038518,-0.00105686,
 0.00031747,-0.00819605,0.01954928,0.02219378,-0.05323087,0.03280098,0.
 03641654,0.00688890,-0.01639663,-0.02187084,-0.00263685,0.00143245,0.0
 0299645,-0.00214108,0.00032149,0.00370866,0.00036607,0.00020294,-0.000
 42722,0.00011747,-0.00016211,-0.00025069,0.00124112,-0.00109807,0.0007
 4316,-0.00419594,0.00409678,-0.00226666,0.06156623,0.00003948,0.000075
 44,-0.00076447,0.00311867,-0.00899595,-0.01050456,0.03839880,-0.161376
 24,-0.13044453,0.00510175,-0.01600425,-0.01759554,-0.00062813,0.001432
 99,0.00226263,-0.00267566,-0.00015720,0.00387948,0.00002680,-0.0003675
 8,0.00067141,-0.00002212,0.00014087,0.00036278,-0.00049465,0.00105768,
 0.00027890,0.00171393,-0.00068075,0.00115482,-0.04171775,0.17279460,-0
 .00020552,-0.00010000,0.00051807,-0.00121719,0.00635651,0.00601191,0.0
 4155367,-0.12473528,-0.18455911,-0.00036432,-0.00066620,-0.00191252,-0
 .00065026,0.00007078,0.00135026,0.00006956,-0.00049428,-0.00101918,0.0
 0002160,-0.00017038,-0.00019438,-0.00004658,-0.00021163,-0.00000528,0.
 00040719,-0.00012680,0.00099117,-0.00114247,0.00127632,0.00073692,-0.0
 4335201,0.13854552,0.19787641,-0.00548621,0.00263779,-0.00082401,0.005
 43908,0.01239314,-0.02338557,-0.05001787,-0.00683981,0.01492613,0.0006
 3637,-0.00932561,0.02467567,0.00093388,0.00135170,-0.00316452,-0.00108
 218,-0.00314709,-0.00239773,-0.00000814,-0.00007454,-0.00006146,0.0007
 2548,0.00124545,-0.00084546,-0.00072643,0.00007543,-0.00052677,0.00167
 646,-0.00078576,0.00069682,-0.00025241,-0.00311417,0.00507776,0.047855
 29,0.00114935,-0.00214850,0.00024085,-0.00310845,-0.00625504,0.0096484
 1,-0.00708874,-0.11029579,0.12199430,-0.00095226,-0.01268711,0.0197451
 8,0.00236631,0.00195765,-0.00210102,-0.00039354,-0.00298982,-0.0006212
 6,-0.00002615,-0.00005522,0.00030400,-0.00031936,-0.00040598,0.0006269
 8,0.00026156,-0.00019581,-0.00000226,-0.00034762,0.00033222,-0.0000387
 2,0.00192666,0.01218785,-0.01964776,0.00654721,0.12189798,-0.00102033,
 0.00002085,0.00078333,0.00101663,0.00010109,-0.00245451,0.01392143,0.1
 2160390,-0.25581890,-0.00179536,-0.00243163,0.00239387,0.00077852,-0.0
 0025831,0.00055755,0.00000223,-0.00098774,-0.00043435,-0.00001652,-0.0
 0028012,0.00028381,0.00026497,0.00016544,0.00005402,-0.00028347,0.0003
 9671,-0.00025473,-0.00005777,-0.00008448,0.00106013,0.00192269,0.01232
 071,-0.01978561,-0.01475824,-0.13046534,0.27351428,-0.01297285,-0.0089
 7417,0.01718373,-0.00397327,-0.00097272,-0.00340959,-0.00107052,0.0022
 6557,0.00107657,0.00968356,0.00300006,-0.00931511,-0.00051697,-0.00020
 248,0.00119288,-0.17848960,-0.07500001,0.11575159,0.00182263,0.0001880
 7,0.00001257,-0.00098336,-0.00008946,-0.00017003,-0.00025880,-0.001156
 57,0.00091572,0.00010023,0.00020992,-0.00002925,0.00050050,0.00033225,
 -0.00008238,0.00001313,-0.00009938,-0.00000004,0.18956600,-0.00146056,
 -0.00251935,0.00243985,-0.00006417,-0.00139808,0.00027722,0.00028543,-
 0.00398398,-0.00091897,-0.02103252,-0.01164816,0.01784277,0.00073279,0
 .00252142,-0.00356908,-0.07518976,-0.08435037,0.06950995,-0.00024489,0
 .00015264,0.00012489,0.00007347,-0.00013139,-0.00015290,-0.00020712,-0
 .00000368,0.00031794,-0.00021507,-0.00007379,0.00022968,-0.00068076,-0
 .00092204,0.00006765,-0.00012096,-0.00049284,0.00005560,0.08287702,0.0
 9288561,-0.01047272,-0.00781649,0.01221862,-0.00344835,-0.00093160,-0.
 00147861,-0.00101124,0.00135606,0.00055467,0.01076309,0.00105495,-0.00
 769727,-0.00194139,-0.00053539,0.00145420,0.11657144,0.06879923,-0.153
 29656,0.00076778,0.00018094,0.00109373,-0.00027213,0.00031165,-0.00006
 483,-0.00044482,-0.00074926,0.00063560,-0.00022802,-0.00012357,0.00019
 373,0.00038019,0.00027155,-0.00002011,0.00006409,0.00005392,-0.0000133
 1,-0.12648504,-0.07198866,0.16081431,0.00443178,-0.01967968,-0.0232508
 4,0.00082391,0.00065380,-0.00039998,0.00008066,0.00017293,-0.00101026,
 -0.00360748,0.00732021,0.01112903,-0.00001117,-0.00028838,-0.00317119,
 -0.05131585,0.02895539,0.03575906,-0.00479189,-0.00238519,-0.00221247,
 0.00191774,0.00060584,0.00017620,-0.00006857,0.00029484,0.00027025,-0.
 00027122,-0.00012260,0.00060266,-0.00041226,-0.00007920,-0.00006905,0.
 00029356,0.00008442,0.00002526,-0.00342068,0.01524712,0.01575712,0.056
 35145,0.00110897,-0.00256783,-0.00301593,0.00024899,-0.00025208,-0.000
 53268,-0.00101746,-0.00047486,0.00547039,0.00550836,-0.01968867,-0.023
 55038,-0.00066536,0.00164608,0.00343657,0.02931160,-0.15942114,-0.1338
 7128,-0.00044467,0.00075307,0.00023874,-0.00014489,0.00070334,0.000557
 30,-0.00017310,0.00009500,0.00020456,-0.00051371,-0.00020818,0.0002429
 8,0.00078161,0.00081458,-0.00016445,-0.00084277,-0.00084959,-0.0001566
 9,-0.00237809,0.00996401,0.01011668,-0.03077949,0.16948627,0.00191896,
 -0.00910383,-0.01304554,0.00040263,0.00051544,0.00040148,0.00092653,-0
 .00054577,-0.00293633,-0.00232802,0.00849667,0.01228693,-0.00052466,-0
 .00047257,-0.00150972,0.03305104,-0.12475546,-0.18840440,-0.00351810,-
 0.00098015,-0.00010030,0.00045287,0.00059674,0.00067323,-0.00006854,-0
 .00003663,0.00022532,-0.00007704,-0.00032669,0.00028298,-0.00051152,-0
 .00043870,0.00001145,0.00052329,0.00026271,0.00011442,0.00335836,-0.01
 423594,-0.01439417,-0.03360580,0.14102418,0.20639464\\-0.00030761,-0.0
 0012447,-0.00008651,-0.00024284,0.00019700,-0.00014998,0.00029326,-0.0
 0015017,0.00010912,0.00017858,-0.00009711,-0.00020084,-0.00020849,0.00
 005624,0.00000515,0.00025455,0.00010660,0.00030198,0.00000419,-0.00002
 001,-0.00001828,0.00004326,-0.00002591,-0.00001443,0.00002129,0.000015
 21,0.00004429,-0.00000229,0.00002265,0.00002207,-0.00000850,0.00001525
 ,0.00003790,-0.00001727,0.00005465,0.00000729,-0.00000929,-0.00007565,
 -0.00000696,0.00000115,0.00002573,-0.00005079\\\@


 MY DESCRIPTION OF EXPERIENCE IS NOT WHAT HAPPENS
 TO A MAN.  EXPERIENCE IS WHAT A MAN DOES WITH WHAT
 HAPPENS TO HIM.
                         - CHUCK KNOX, SEATTLE SEAHAWKS, 1985
 Job cpu time:       0 days  0 hours  3 minutes  5.0 seconds.
 File lengths (MBytes):  RWF=    133 Int=      0 D2E=      0 Chk=      3 Scr=      2
 Normal termination of Gaussian 09 at Mon Mar 17 15:39:51 2025.
