 Entering Gaussian System, Link 0=g09
 Initial command:
 /apps/z_install_tree/linux-rocky8-ivybridge/gcc-12.2.0/gaussian-09-D.01-wczn3gur5lpur3omlkzwa2l5ecyxp5ef/g09/l1.exe "/srv/scratch/z5358697/gauss/Gau-3627017.inp" -scrdir="/srv/scratch/z5358697/gauss/"
 Entering Link 1 = /apps/z_install_tree/linux-rocky8-ivybridge/gcc-12.2.0/gaussian-09-D.01-wczn3gur5lpur3omlkzwa2l5ecyxp5ef/g09/l1.exe PID=   3627019.
  
 Copyright (c) 1988,1990,1992,1993,1995,1998,2003,2009,2013,
            Gaussian, Inc.  All Rights Reserved.
  
 This is part of the Gaussian(R) 09 program.  It is based on
 the Gaussian(R) 03 system (copyright 2003, Gaussian, Inc.),
 the Gaussian(R) 98 system (copyright 1998, Gaussian, Inc.),
 the Gaussian(R) 94 system (copyright 1995, Gaussian, Inc.),
 the Gaussian 92(TM) system (copyright 1992, Gaussian, Inc.),
 the Gaussian 90(TM) system (copyright 1990, Gaussian, Inc.),
 the Gaussian 88(TM) system (copyright 1988, Gaussian, Inc.),
 the Gaussian 86(TM) system (copyright 1986, Carnegie Mellon
 University), and the Gaussian 82(TM) system (copyright 1983,
 Carnegie Mellon University). Gaussian is a federally registered
 trademark of Gaussian, Inc.
  
 This software contains proprietary and confidential information,
 including trade secrets, belonging to Gaussian, Inc.
  
 This software is provided under written license and may be
 used, copied, transmitted, or stored only in accord with that
 written license.
  
 The following legend is applicable only to US Government
 contracts under FAR:
  
                    RESTRICTED RIGHTS LEGEND
  
 Use, reproduction and disclosure by the US Government is
 subject to restrictions as set forth in subparagraphs (a)
 and (c) of the Commercial Computer Software - Restricted
 Rights clause in FAR 52.227-19.
  
 Gaussian, Inc.
 340 Quinnipiac St., Bldg. 40, Wallingford CT 06492
  
  
 ---------------------------------------------------------------
 Warning -- This program may not be used in any manner that
 competes with the business of Gaussian, Inc. or will provide
 assistance to any competitor of Gaussian, Inc.  The licensee
 of this program is prohibited from giving any competitor of
 Gaussian, Inc. access to this program.  By using this program,
 the user acknowledges that Gaussian, Inc. is engaged in the
 business of creating and licensing software in the field of
 computational chemistry and represents and warrants to the
 licensee that it is not a competitor of Gaussian, Inc. and that
 it will not use this program in any manner prohibited above.
 ---------------------------------------------------------------
  

 Cite this work as:
 Gaussian 09, Revision D.01,
 M. J. Frisch, G. W. Trucks, H. B. Schlegel, G. E. Scuseria, 
 M. A. Robb, J. R. Cheeseman, G. Scalmani, V. Barone, B. Mennucci, 
 G. A. Petersson, H. Nakatsuji, M. Caricato, X. Li, H. P. Hratchian, 
 A. F. Izmaylov, J. Bloino, G. Zheng, J. L. Sonnenberg, M. Hada, 
 M. Ehara, K. Toyota, R. Fukuda, J. Hasegawa, M. Ishida, T. Nakajima, 
 Y. Honda, O. Kitao, H. Nakai, T. Vreven, J. A. Montgomery, Jr., 
 J. E. Peralta, F. Ogliaro, M. Bearpark, J. J. Heyd, E. Brothers, 
 K. N. Kudin, V. N. Staroverov, T. Keith, R. Kobayashi, J. Normand, 
 K. Raghavachari, A. Rendell, J. C. Burant, S. S. Iyengar, J. Tomasi, 
 M. Cossi, N. Rega, J. M. Millam, M. Klene, J. E. Knox, J. B. Cross, 
 V. Bakken, C. Adamo, J. Jaramillo, R. Gomperts, R. E. Stratmann, 
 O. Yazyev, A. J. Austin, R. Cammi, C. Pomelli, J. W. Ochterski, 
 R. L. Martin, K. Morokuma, V. G. Zakrzewski, G. A. Voth, 
 P. Salvador, J. J. Dannenberg, S. Dapprich, A. D. Daniels, 
 O. Farkas, J. B. Foresman, J. V. Ortiz, J. Cioslowski, 
 and D. J. Fox, Gaussian, Inc., Wallingford CT, 2013.
 
 ******************************************
 Gaussian 09:  ES64L-G09RevD.01 24-Apr-2013
                16-Mar-2025 
 ******************************************
 ---------------------------------
 #m062X/6-31+G(d) OPT Freq=noraman
 ---------------------------------
 1/14=-1,18=20,19=15,26=3,38=1/1,3;
 2/9=110,12=2,17=6,18=5,40=1/2;
 3/5=1,6=6,7=11,11=2,16=1,25=1,30=1,71=1,74=-55/1,2,3;
 4//1;
 5/5=2,38=5/2;
 6/7=2,8=2,9=2,10=2,28=1/1;
 7//1,2,3,16;
 1/14=-1,18=20,19=15,26=3/3(2);
 2/9=110/2;
 99//99;
 2/9=110/2;
 3/5=1,6=6,7=11,11=2,16=1,25=1,30=1,71=1,74=-55/1,2,3;
 4/5=5,16=3,69=1/1;
 5/5=2,38=5/2;
 7//1,2,3,16;
 1/14=-1,18=20,19=15,26=3/3(-5);
 2/9=110/2;
 6/7=2,8=2,9=2,10=2,19=2,28=1/1;
 99/9=1/99;
 ----------------------
 1,2,3-trichlorobenzene
 ----------------------
 Symbolic Z-matrix:
 Charge =  0 Multiplicity = 1
 C                     1.8851   -1.0363   -0.1124 
 C                     2.921    -1.6309    0.6081 
 C                     2.8783   -1.652     2.0022 
 C                     1.7997   -1.0786    2.6757 
 C                     0.7638   -0.4841    1.9551 
 C                     0.8066   -0.463     0.561 
 Cl                   -0.6056    0.2467    2.7198 
 Cl                    1.7464   -1.105     4.413 
 Cl                    4.199    -2.4069    2.8268 
 H                     1.9184   -1.0198   -1.1979 
 H                     3.7535   -2.0727    0.0662 
 H                     0.0084   -0.0042   -0.0173 
 

 GradGradGradGradGradGradGradGradGradGradGradGradGradGradGradGradGradGrad
 Berny optimization.
 Initialization pass.
                           ----------------------------
                           !    Initial Parameters    !
                           ! (Angstroms and Degrees)  !
 --------------------------                            --------------------------
 ! Name  Definition              Value          Derivative Info.                !
 --------------------------------------------------------------------------------
 ! R1    R(1,2)                  1.3949         estimate D2E/DX2                !
 ! R2    R(1,6)                  1.3947         estimate D2E/DX2                !
 ! R3    R(1,10)                 1.0861         estimate D2E/DX2                !
 ! R4    R(2,3)                  1.3949         estimate D2E/DX2                !
 ! R5    R(2,11)                 1.0872         estimate D2E/DX2                !
 ! R6    R(3,4)                  1.3949         estimate D2E/DX2                !
 ! R7    R(3,9)                  1.7303         estimate D2E/DX2                !
 ! R8    R(4,5)                  1.3949         estimate D2E/DX2                !
 ! R9    R(4,8)                  1.7383         estimate D2E/DX2                !
 ! R10   R(5,6)                  1.3949         estimate D2E/DX2                !
 ! R11   R(5,7)                  1.7303         estimate D2E/DX2                !
 ! R12   R(6,12)                 1.0872         estimate D2E/DX2                !
 ! A1    A(2,1,6)              120.0052         estimate D2E/DX2                !
 ! A2    A(2,1,10)             119.9952         estimate D2E/DX2                !
 ! A3    A(6,1,10)             119.9996         estimate D2E/DX2                !
 ! A4    A(1,2,3)              119.9958         estimate D2E/DX2                !
 ! A5    A(1,2,11)             118.9759         estimate D2E/DX2                !
 ! A6    A(3,2,11)             121.0283         estimate D2E/DX2                !
 ! A7    A(2,3,4)              119.9999         estimate D2E/DX2                !
 ! A8    A(2,3,9)              117.3555         estimate D2E/DX2                !
 ! A9    A(4,3,9)              122.6446         estimate D2E/DX2                !
 ! A10   A(3,4,5)              119.9999         estimate D2E/DX2                !
 ! A11   A(3,4,8)              120.0007         estimate D2E/DX2                !
 ! A12   A(5,4,8)              119.9994         estimate D2E/DX2                !
 ! A13   A(4,5,6)              119.9967         estimate D2E/DX2                !
 ! A14   A(4,5,7)              122.6439         estimate D2E/DX2                !
 ! A15   A(6,5,7)              117.3594         estimate D2E/DX2                !
 ! A16   A(1,6,5)              120.0026         estimate D2E/DX2                !
 ! A17   A(1,6,12)             118.9697         estimate D2E/DX2                !
 ! A18   A(5,6,12)             121.0277         estimate D2E/DX2                !
 ! D1    D(6,1,2,3)             -0.0063         estimate D2E/DX2                !
 ! D2    D(6,1,2,11)          -179.9988         estimate D2E/DX2                !
 ! D3    D(10,1,2,3)           179.9947         estimate D2E/DX2                !
 ! D4    D(10,1,2,11)            0.0022         estimate D2E/DX2                !
 ! D5    D(2,1,6,5)              0.004          estimate D2E/DX2                !
 ! D6    D(2,1,6,12)          -179.9945         estimate D2E/DX2                !
 ! D7    D(10,1,6,5)          -179.997          estimate D2E/DX2                !
 ! D8    D(10,1,6,12)            0.0046         estimate D2E/DX2                !
 ! D9    D(1,2,3,4)              0.0043         estimate D2E/DX2                !
 ! D10   D(1,2,3,9)           -179.9947         estimate D2E/DX2                !
 ! D11   D(11,2,3,4)           179.9966         estimate D2E/DX2                !
 ! D12   D(11,2,3,9)            -0.0023         estimate D2E/DX2                !
 ! D13   D(2,3,4,5)              0.0            estimate D2E/DX2                !
 ! D14   D(2,3,4,8)            179.9949         estimate D2E/DX2                !
 ! D15   D(9,3,4,5)            179.9989         estimate D2E/DX2                !
 ! D16   D(9,3,4,8)             -0.0062         estimate D2E/DX2                !
 ! D17   D(3,4,5,6)             -0.0023         estimate D2E/DX2                !
 ! D18   D(3,4,5,7)            179.9969         estimate D2E/DX2                !
 ! D19   D(8,4,5,6)           -179.9972         estimate D2E/DX2                !
 ! D20   D(8,4,5,7)              0.0021         estimate D2E/DX2                !
 ! D21   D(4,5,6,1)              0.0003         estimate D2E/DX2                !
 ! D22   D(4,5,6,12)           179.9987         estimate D2E/DX2                !
 ! D23   D(7,5,6,1)           -179.999          estimate D2E/DX2                !
 ! D24   D(7,5,6,12)            -0.0006         estimate D2E/DX2                !
 --------------------------------------------------------------------------------
 Trust Radius=3.00D-01 FncErr=1.00D-07 GrdErr=1.00D-06
 Number of steps in this run=     64 maximum allowed number of steps=    100.
 GradGradGradGradGradGradGradGradGradGradGradGradGradGradGradGradGradGrad

                          Input orientation:                          
 ---------------------------------------------------------------------
 Center     Atomic      Atomic             Coordinates (Angstroms)
 Number     Number       Type             X           Y           Z
 ---------------------------------------------------------------------
      1          6           0        1.885100   -1.036300   -0.112400
      2          6           0        2.921000   -1.630900    0.608100
      3          6           0        2.878300   -1.652000    2.002200
      4          6           0        1.799700   -1.078600    2.675700
      5          6           0        0.763800   -0.484100    1.955100
      6          6           0        0.806600   -0.463000    0.561000
      7         17           0       -0.605600    0.246700    2.719800
      8         17           0        1.746400   -1.105000    4.413000
      9         17           0        4.199000   -2.406900    2.826800
     10          1           0        1.918400   -1.019800   -1.197900
     11          1           0        3.753500   -2.072700    0.066200
     12          1           0        0.008400   -0.004200   -0.017300
 ---------------------------------------------------------------------
                    Distance matrix (angstroms):
                    1          2          3          4          5
     1  C    0.000000
     2  C    1.394904   0.000000
     3  C    2.416002   1.394913   0.000000
     4  C    2.789728   2.416054   1.394908   0.000000
     5  C    2.415946   2.789816   2.416054   1.394913   0.000000
     6  C    1.394741   2.415967   2.789753   2.416023   1.394916
     7  Cl   3.983846   4.519023   4.032068   2.746604   1.730344
     8  Cl   4.528046   4.016655   2.718890   1.738318   2.718877
     9  Cl   3.983914   2.675461   1.730343   2.746607   4.032074
    10  H    1.086136   2.154132   3.400254   3.875864   3.400218
    11  H    2.144048   1.087152   2.165885   3.408087   3.876841
    12  H    2.143893   3.394189   3.876848   3.408129   2.165940
                    6          7          8          9         10
     6  C    0.000000
     7  Cl   2.675519   0.000000
     8  Cl   4.016627   3.197800   0.000000
     9  Cl   4.518957   5.489738   3.197846   0.000000
    10  H    2.154032   4.829386   5.614182   4.829430   0.000000
    11  H    3.394139   5.605619   4.884625   2.816216   2.464577
    12  H    1.087222   2.816321   4.884666   5.605622   2.464419
                   11         12
    11  H    0.000000
    12  H    4.279187   0.000000
 Stoichiometry    C6H3Cl3
 Framework group  C1[X(C6H3Cl3)]
 Deg. of freedom    30
 Full point group                 C1      NOp   1
 Largest Abelian subgroup         C1      NOp   1
 Largest concise Abelian subgroup C1      NOp   1
                         Standard orientation:                         
 ---------------------------------------------------------------------
 Center     Atomic      Atomic             Coordinates (Angstroms)
 Number     Number       Type             X           Y           Z
 ---------------------------------------------------------------------
      1          6           0       -0.000032   -2.494995   -0.000005
      2          6           0        1.208038   -1.797625    0.000073
      3          6           0        1.208031   -0.402711    0.000013
      4          6           0        0.000000    0.294733   -0.000036
      5          6           0       -1.208024   -0.402735   -0.000024
      6          6           0       -1.207929   -1.797652   -0.000012
      7         17           0       -2.744868    0.392376   -0.000004
      8         17           0       -0.000035    2.033051    0.000024
      9         17           0        2.744870    0.392406   -0.000025
     10          1           0       -0.000015   -3.581131   -0.000045
     11          1           0        2.139635   -2.358005    0.000057
     12          1           0       -2.139552   -2.358125    0.000018
 ---------------------------------------------------------------------
 Rotational constants (GHZ):      1.5042792      0.8336771      0.5364015
 Standard basis: 6-31+G(d) (6D, 7F)
 There are   189 symmetry adapted cartesian basis functions of A   symmetry.
 There are   189 symmetry adapted basis functions of A   symmetry.
   189 basis functions,   372 primitive gaussians,   189 cartesian basis functions
    45 alpha electrons       45 beta electrons
       nuclear repulsion energy       647.4244044223 Hartrees.
 NAtoms=   12 NActive=   12 NUniq=   12 SFac= 1.00D+00 NAtFMM=   60 NAOKFM=F Big=F
 Integral buffers will be    131072 words long.
 Raffenetti 2 integral format.
 Two-electron integral symmetry is turned on.
 One-electron integrals computed using PRISM.
 NBasis=   189 RedAO= T EigKep=  1.46D-06  NBF=   189
 NBsUse=   189 1.00D-06 EigRej= -1.00D+00 NBFU=   189
 ExpMin= 4.38D-02 ExpMax= 2.52D+04 ExpMxC= 3.78D+03 IAcc=2 IRadAn=         4 AccDes= 0.00D+00
 Harris functional with IExCor= 1009 and IRadAn=       4 diagonalized for initial guess.
 HarFok:  IExCor= 1009 AccDes= 0.00D+00 IRadAn=         4 IDoV= 1 UseB2=F ITyADJ=14
 ICtDFT=  3500011 ScaDFX=  1.000000  1.000000  1.000000  1.000000
 FoFCou: FMM=F IPFlag=           0 FMFlag=      100000 FMFlg1=           0
         NFxFlg=           0 DoJE=T BraDBF=F KetDBF=T FulRan=T
         wScrn=  0.000000 ICntrl=     500 IOpCl=  0 I1Cent=   200000004 NGrid=           0
         NMat0=    1 NMatS0=      1 NMatT0=    0 NMatD0=    1 NMtDS0=    0 NMtDT0=    0
 Petite list used in FoFCou.
 Requested convergence on RMS density matrix=1.00D-08 within 128 cycles.
 Requested convergence on MAX density matrix=1.00D-06.
 Requested convergence on             energy=1.00D-06.
 No special actions if energy rises.
 SCF Done:  E(RM062X) =  -1610.84407069     A.U. after   14 cycles
            NFock= 14  Conv=0.85D-08     -V/T= 2.0036

 **********************************************************************

            Population analysis using the SCF density.

 **********************************************************************

 Orbital symmetries:
       Occupied  (A) (A) (A) (A) (A) (A) (A) (A) (A) (A) (A) (A)
                 (A) (A) (A) (A) (A) (A) (A) (A) (A) (A) (A) (A)
                 (A) (A) (A) (A) (A) (A) (A) (A) (A) (A) (A) (A)
                 (A) (A) (A) (A) (A) (A) (A) (A) (A)
       Virtual   (A) (A) (A) (A) (A) (A) (A) (A) (A) (A) (A) (A)
                 (A) (A) (A) (A) (A) (A) (A) (A) (A) (A) (A) (A)
                 (A) (A) (A) (A) (A) (A) (A) (A) (A) (A) (A) (A)
                 (A) (A) (A) (A) (A) (A) (A) (A) (A) (A) (A) (A)
                 (A) (A) (A) (A) (A) (A) (A) (A) (A) (A) (A) (A)
                 (A) (A) (A) (A) (A) (A) (A) (A) (A) (A) (A) (A)
                 (A) (A) (A) (A) (A) (A) (A) (A) (A) (A) (A) (A)
                 (A) (A) (A) (A) (A) (A) (A) (A) (A) (A) (A) (A)
                 (A) (A) (A) (A) (A) (A) (A) (A) (A) (A) (A) (A)
                 (A) (A) (A) (A) (A) (A) (A) (A) (A) (A) (A) (A)
                 (A) (A) (A) (A) (A) (A) (A) (A) (A) (A) (A) (A)
                 (A) (A) (A) (A) (A) (A) (A) (A) (A) (A) (A) (A)
 The electronic state is 1-A.
 Alpha  occ. eigenvalues -- -102.69008-102.69008-102.68915 -10.65040 -10.64728
 Alpha  occ. eigenvalues --  -10.64718 -10.59091 -10.59074 -10.58907  -9.83651
 Alpha  occ. eigenvalues --   -9.83650  -9.83523  -7.56077  -7.56076  -7.55954
 Alpha  occ. eigenvalues --   -7.55383  -7.55383  -7.55353  -7.55352  -7.55256
 Alpha  occ. eigenvalues --   -7.55217  -1.04972  -0.99671  -0.96686  -0.94339
 Alpha  occ. eigenvalues --   -0.84761  -0.84614  -0.71340  -0.71005  -0.61100
 Alpha  occ. eigenvalues --   -0.58710  -0.55520  -0.52213  -0.52157  -0.51841
 Alpha  occ. eigenvalues --   -0.46382  -0.45815  -0.44872  -0.42151  -0.40781
 Alpha  occ. eigenvalues --   -0.40074  -0.39707  -0.37703  -0.31811  -0.31642
 Alpha virt. eigenvalues --   -0.01453  -0.01004   0.00252   0.01274   0.02531
 Alpha virt. eigenvalues --    0.03779   0.04255   0.04344   0.05893   0.06466
 Alpha virt. eigenvalues --    0.07687   0.08009   0.08958   0.09186   0.09261
 Alpha virt. eigenvalues --    0.10468   0.10797   0.11482   0.11766   0.12471
 Alpha virt. eigenvalues --    0.13063   0.14451   0.14851   0.15535   0.15929
 Alpha virt. eigenvalues --    0.17365   0.17577   0.17747   0.18404   0.20122
 Alpha virt. eigenvalues --    0.20323   0.20471   0.20730   0.21912   0.22273
 Alpha virt. eigenvalues --    0.23237   0.23863   0.23905   0.25828   0.26080
 Alpha virt. eigenvalues --    0.27975   0.28059   0.28600   0.30170   0.32559
 Alpha virt. eigenvalues --    0.33968   0.34429   0.35748   0.36398   0.50915
 Alpha virt. eigenvalues --    0.53847   0.57224   0.57452   0.60748   0.61231
 Alpha virt. eigenvalues --    0.64412   0.64704   0.66363   0.67358   0.67606
 Alpha virt. eigenvalues --    0.68328   0.69865   0.73165   0.73484   0.73681
 Alpha virt. eigenvalues --    0.73910   0.74767   0.75262   0.75905   0.76272
 Alpha virt. eigenvalues --    0.80330   0.80750   0.85040   0.85531   0.86816
 Alpha virt. eigenvalues --    0.89007   0.90321   0.92023   0.92125   0.92785
 Alpha virt. eigenvalues --    0.94626   0.96395   0.96728   0.96819   0.97679
 Alpha virt. eigenvalues --    0.98042   1.03465   1.03926   1.08738   1.10078
 Alpha virt. eigenvalues --    1.10976   1.12167   1.12829   1.13532   1.17086
 Alpha virt. eigenvalues --    1.20354   1.24523   1.24627   1.25553   1.29897
 Alpha virt. eigenvalues --    1.35204   1.45669   1.46258   1.47478   1.50136
 Alpha virt. eigenvalues --    1.50195   1.53569   1.58099   1.58246   1.59094
 Alpha virt. eigenvalues --    1.78186   1.83435   1.86247   1.95739   1.99715
 Alpha virt. eigenvalues --    2.00696   2.11356   2.11952   2.14507   2.14650
 Alpha virt. eigenvalues --    2.18678   2.21019   2.28224   2.28326   2.31877
 Alpha virt. eigenvalues --    2.55468   2.57632   2.61845   2.67454   2.68143
 Alpha virt. eigenvalues --    2.72325   2.73207   2.85489   3.01541   3.30804
 Alpha virt. eigenvalues --    4.17855   4.25447   4.28129   4.34337   4.38781
 Alpha virt. eigenvalues --    4.42090   4.46609   4.47625   4.67490
          Condensed to atoms (all electrons):
               1          2          3          4          5          6
     1  C    5.390854   0.437918   0.128162  -0.698805   0.128211   0.437966
     2  C    0.437918   7.246074   0.139250   0.343802  -1.346444  -0.677708
     3  C    0.128162   0.139250  10.936847  -3.754491   0.393774  -1.346923
     4  C   -0.698805   0.343802  -3.754491  13.368505  -3.753909   0.344217
     5  C    0.128211  -1.346444   0.393774  -3.753909  10.936305   0.138728
     6  C    0.437966  -0.677708  -1.346923   0.344217   0.138728   7.246775
     7  Cl   0.052732   0.004759   0.041572  -0.230827   0.148274  -0.154363
     8  Cl  -0.046206   0.051264  -0.384996   0.539450  -0.384999   0.051286
     9  Cl   0.052709  -0.154319   0.148300  -0.230846   0.041546   0.004740
    10  H    0.321482  -0.018969   0.031331  -0.036067   0.031338  -0.018956
    11  H   -0.049437   0.218596   0.010969   0.109017   0.001712   0.018288
    12  H   -0.049435   0.018278   0.001736   0.108994   0.011074   0.218486
               7          8          9         10         11         12
     1  C    0.052732  -0.046206   0.052709   0.321482  -0.049437  -0.049435
     2  C    0.004759   0.051264  -0.154319  -0.018969   0.218596   0.018278
     3  C    0.041572  -0.384996   0.148300   0.031331   0.010969   0.001736
     4  C   -0.230827   0.539450  -0.230846  -0.036067   0.109017   0.108994
     5  C    0.148274  -0.384999   0.041546   0.031338   0.001712   0.011074
     6  C   -0.154363   0.051286   0.004740  -0.018956   0.018288   0.218486
     7  Cl  16.885748   0.021037  -0.000982   0.000857   0.000202  -0.000619
     8  Cl   0.021037  16.867694   0.021039  -0.000010   0.000256   0.000256
     9  Cl  -0.000982   0.021039  16.885781   0.000857  -0.000621   0.000203
    10  H    0.000857  -0.000010   0.000857   0.469643  -0.003803  -0.003806
    11  H    0.000202   0.000256  -0.000621  -0.003803   0.455886  -0.000133
    12  H   -0.000619   0.000256   0.000203  -0.003806  -0.000133   0.455901
 Mulliken charges:
               1
     1  C   -0.106151
     2  C   -0.262500
     3  C   -0.345531
     4  C   -0.109040
     5  C   -0.345609
     6  C   -0.262536
     7  Cl   0.231610
     8  Cl   0.263929
     9  Cl   0.231593
    10  H    0.226102
    11  H    0.239068
    12  H    0.239065
 Sum of Mulliken charges =   0.00000
 Mulliken charges with hydrogens summed into heavy atoms:
               1
     1  C    0.119952
     2  C   -0.023432
     3  C   -0.345531
     4  C   -0.109040
     5  C   -0.345609
     6  C   -0.023471
     7  Cl   0.231610
     8  Cl   0.263929
     9  Cl   0.231593
 Electronic spatial extent (au):  <R**2>=           1866.0288
 Charge=              0.0000 electrons
 Dipole moment (field-independent basis, Debye):
    X=             -0.0001    Y=             -2.8319    Z=              0.0000  Tot=              2.8319
 Quadrupole moment (field-independent basis, Debye-Ang):
   XX=            -72.2692   YY=            -64.8417   ZZ=            -74.9723
   XY=             -0.0004   XZ=             -0.0001   YZ=              0.0001
 Traceless Quadrupole moment (field-independent basis, Debye-Ang):
   XX=             -1.5748   YY=              5.8527   ZZ=             -4.2779
   XY=             -0.0004   XZ=             -0.0001   YZ=              0.0001
 Octapole moment (field-independent basis, Debye-Ang**2):
  XXX=             -0.0003  YYY=             -7.2802  ZZZ=             -0.0001  XYY=             -0.0003
  XXY=             -1.1335  XXZ=              0.0001  XZZ=             -0.0003  YZZ=              8.5579
  YYZ=             -0.0001  XYZ=              0.0000
 Hexadecapole moment (field-independent basis, Debye-Ang**3):
 XXXX=          -1398.8045 YYYY=           -811.4787 ZZZZ=            -86.5218 XXXY=             -0.0051
 XXXZ=             -0.0020 YYYX=             -0.0008 YYYZ=              0.0035 ZZZX=             -0.0007
 ZZZY=              0.0006 XXYY=           -366.3690 XXZZ=           -263.8115 YYZZ=           -181.4849
 XXYZ=             -0.0007 YYXZ=             -0.0004 ZZXY=              0.0000
 N-N= 6.474244044223D+02 E-N=-5.108532289241D+03  KE= 1.605116759485D+03
 Calling FoFJK, ICntrl=      2127 FMM=F ISym2X=0 I1Cent= 0 IOpClX= 0 NMat=1 NMatS=1 NMatT=0.
 ***** Axes restored to original set *****
 -------------------------------------------------------------------
 Center     Atomic                   Forces (Hartrees/Bohr)
 Number     Number              X              Y              Z
 -------------------------------------------------------------------
      1        6          -0.000136284   -0.000175315    0.007626396
      2        6          -0.003914079    0.002378985   -0.006398166
      3        6           0.003142209   -0.001332116   -0.012541382
      4        6          -0.000516057   -0.000241740    0.016180968
      5        6          -0.002347653    0.001699326   -0.012633801
      6        6           0.004166680   -0.002098579   -0.006214959
      7       17           0.000932078   -0.000640689    0.003956323
      8       17           0.000129559    0.000063375   -0.004097764
      9       17          -0.001170753    0.000518827    0.003919244
     10        1          -0.000031390   -0.000015615    0.000948908
     11        1           0.000402751   -0.000373197    0.004623587
     12        1          -0.000657060    0.000216738    0.004630646
 -------------------------------------------------------------------
 Cartesian Forces:  Max     0.016180968 RMS     0.004929672

 GradGradGradGradGradGradGradGradGradGradGradGradGradGradGradGradGradGrad
 Berny optimization.
 FormGI is forming the generalized inverse of G from B-inverse, IUseBI=4.
 Internal  Forces:  Max     0.007461794 RMS     0.002582779
 Search for a local minimum.
 Step number   1 out of a maximum of   64
 All quantities printed in internal units (Hartrees-Bohrs-Radians)
 Mixed Optimization -- RFO/linear search
 Second derivative matrix not updated -- first step.
 ITU=  0
     Eigenvalues ---    0.02156   0.02156   0.02156   0.02156   0.02156
     Eigenvalues ---    0.02156   0.02157   0.02157   0.02158   0.16000
     Eigenvalues ---    0.16000   0.16000   0.22085   0.23479   0.24913
     Eigenvalues ---    0.25000   0.25000   0.25000   0.31647   0.32473
     Eigenvalues ---    0.32473   0.35136   0.35144   0.35263   0.42403
     Eigenvalues ---    0.42419   0.46474   0.46474   0.46475   0.46494
 RFO step:  Lambda=-1.49854869D-03 EMin= 2.15602199D-02
 Linear search not attempted -- first point.
 Iteration  1 RMS(Cart)=  0.01478546 RMS(Int)=  0.00021924
 Iteration  2 RMS(Cart)=  0.00023330 RMS(Int)=  0.00000350
 Iteration  3 RMS(Cart)=  0.00000001 RMS(Int)=  0.00000350
 Variable       Old X    -DE/DX   Delta X   Delta X   Delta X     New X
                                 (Linear)    (Quad)   (Total)
    R1        2.63599  -0.00320   0.00000  -0.00741  -0.00742   2.62857
    R2        2.63568  -0.00309   0.00000  -0.00715  -0.00715   2.62853
    R3        2.05250  -0.00095   0.00000  -0.00268  -0.00268   2.04982
    R4        2.63600  -0.00261   0.00000  -0.00561  -0.00561   2.63039
    R5        2.05442  -0.00184   0.00000  -0.00523  -0.00523   2.04919
    R6        2.63599   0.00223   0.00000   0.00532   0.00533   2.64132
    R7        3.26987   0.00075   0.00000   0.00229   0.00229   3.27217
    R8        2.63600   0.00221   0.00000   0.00529   0.00529   2.64129
    R9        3.28494  -0.00410   0.00000  -0.01290  -0.01290   3.27205
   R10        2.63601  -0.00261   0.00000  -0.00558  -0.00558   2.63043
   R11        3.26988   0.00074   0.00000   0.00227   0.00227   3.27215
   R12        2.05455  -0.00189   0.00000  -0.00535  -0.00535   2.04920
    A1        2.09449   0.00192   0.00000   0.00643   0.00642   2.10090
    A2        2.09431  -0.00096   0.00000  -0.00320  -0.00320   2.09111
    A3        2.09439  -0.00096   0.00000  -0.00322  -0.00322   2.09117
    A4        2.09432  -0.00065   0.00000  -0.00404  -0.00405   2.09028
    A5        2.07652   0.00472   0.00000   0.02921   0.02921   2.10574
    A6        2.11234  -0.00407   0.00000  -0.02517  -0.02517   2.08717
    A7        2.09439   0.00167   0.00000   0.00765   0.00765   2.10205
    A8        2.04824   0.00580   0.00000   0.02253   0.02253   2.07077
    A9        2.14055  -0.00746   0.00000  -0.03018  -0.03019   2.11037
   A10        2.09439  -0.00393   0.00000  -0.01358  -0.01357   2.08082
   A11        2.09441   0.00196   0.00000   0.00677   0.00677   2.10118
   A12        2.09438   0.00197   0.00000   0.00681   0.00680   2.10119
   A13        2.09434   0.00166   0.00000   0.00767   0.00767   2.10201
   A14        2.14054  -0.00745   0.00000  -0.03015  -0.03015   2.11039
   A15        2.04831   0.00579   0.00000   0.02248   0.02248   2.07078
   A16        2.09444  -0.00067   0.00000  -0.00412  -0.00413   2.09031
   A17        2.07641   0.00474   0.00000   0.02931   0.02931   2.10573
   A18        2.11233  -0.00406   0.00000  -0.02519  -0.02519   2.08715
    D1       -0.00011   0.00000   0.00000   0.00013   0.00013   0.00003
    D2       -3.14157   0.00000   0.00000  -0.00001  -0.00001  -3.14158
    D3        3.14150   0.00000   0.00000   0.00009   0.00009  -3.14159
    D4        0.00004   0.00000   0.00000  -0.00005  -0.00005  -0.00001
    D5        0.00007   0.00000   0.00000  -0.00009  -0.00009  -0.00002
    D6       -3.14150   0.00000   0.00000  -0.00011  -0.00011   3.14158
    D7       -3.14154   0.00000   0.00000  -0.00005  -0.00005  -3.14159
    D8        0.00008   0.00000   0.00000  -0.00007  -0.00007   0.00001
    D9        0.00007   0.00000   0.00000  -0.00008  -0.00008  -0.00001
   D10       -3.14150   0.00000   0.00000  -0.00009  -0.00009   3.14159
   D11        3.14153   0.00000   0.00000   0.00007   0.00007  -3.14158
   D12       -0.00004   0.00000   0.00000   0.00005   0.00005   0.00001
   D13        0.00000   0.00000   0.00000  -0.00002  -0.00002  -0.00002
   D14        3.14150   0.00000   0.00000   0.00011   0.00011  -3.14158
   D15        3.14157   0.00000   0.00000   0.00000   0.00000   3.14157
   D16       -0.00011   0.00000   0.00000   0.00012   0.00012   0.00001
   D17       -0.00004   0.00000   0.00000   0.00006   0.00006   0.00002
   D18        3.14154   0.00000   0.00000   0.00007   0.00007  -3.14157
   D19       -3.14154   0.00000   0.00000  -0.00006  -0.00006   3.14158
   D20        0.00004   0.00000   0.00000  -0.00005  -0.00005  -0.00001
   D21        0.00001   0.00000   0.00000   0.00000   0.00000   0.00000
   D22        3.14157   0.00000   0.00000   0.00001   0.00001   3.14158
   D23       -3.14157   0.00000   0.00000  -0.00002  -0.00002  -3.14159
   D24       -0.00001   0.00000   0.00000   0.00000   0.00000  -0.00001
         Item               Value     Threshold  Converged?
 Maximum Force            0.007462     0.000450     NO 
 RMS     Force            0.002583     0.000300     NO 
 Maximum Displacement     0.042919     0.001800     NO 
 RMS     Displacement     0.014823     0.001200     NO 
 Predicted change in Energy=-7.543150D-04
 GradGradGradGradGradGradGradGradGradGradGradGradGradGradGradGradGradGrad

                          Input orientation:                          
 ---------------------------------------------------------------------
 Center     Atomic      Atomic             Coordinates (Angstroms)
 Number     Number       Type             X           Y           Z
 ---------------------------------------------------------------------
      1          6           0        1.885293   -1.036262   -0.117591
      2          6           0        2.920368   -1.630123    0.597092
      3          6           0        2.876676   -1.650654    1.988198
      4          6           0        1.799796   -1.078573    2.671350
      5          6           0        0.766255   -0.485033    1.941210
      6          6           0        0.807882   -0.463363    0.550040
      7         17           0       -0.588529    0.236579    2.742512
      8         17           0        1.746777   -1.104822    4.401833
      9         17           0        4.180531   -2.397454    2.848743
     10          1           0        1.918548   -1.019825   -1.201674
     11          1           0        3.762452   -2.078067    0.081210
     12          1           0       -0.001449    0.000797   -0.002624
 ---------------------------------------------------------------------
                    Distance matrix (angstroms):
                    1          2          3          4          5
     1  C    0.000000
     2  C    1.390980   0.000000
     3  C    2.407211   1.391944   0.000000
     4  C    2.790572   2.421247   1.397728   0.000000
     5  C    2.407232   2.785335   2.411381   1.397713   0.000000
     6  C    1.390956   2.413740   2.785294   2.421226   1.391962
     7  Cl   3.990001   4.516610   4.017248   2.727414   1.731545
     8  Cl   4.522066   4.016132   2.720337   1.731494   2.720336
     9  Cl   3.990000   2.691977   1.731556   2.727419   4.017245
    10  H    1.084717   2.147479   3.389873   3.875289   3.389912
    11  H    2.156063   1.084386   2.145667   3.399976   3.869698
    12  H    2.156039   3.399497   3.869659   3.399950   2.145668
                    6          7          8          9         10
     6  C    0.000000
     7  Cl   2.691991   0.000000
     8  Cl   4.016131   3.163284   0.000000
     9  Cl   4.516581   5.449161   3.163249   0.000000
    10  H    2.147494   4.839482   5.606783   4.839453   0.000000
    11  H    3.399493   5.600996   4.865998   2.817098   2.483073
    12  H    1.084389   2.817095   4.865997   5.600969   2.483098
                   11         12
    11  H    0.000000
    12  H    4.300658   0.000000
 Stoichiometry    C6H3Cl3
 Framework group  C1[X(C6H3Cl3)]
 Deg. of freedom    30
 Full point group                 C1      NOp   1
 Largest Abelian subgroup         C1      NOp   1
 Largest concise Abelian subgroup C1      NOp   1
                         Standard orientation:                         
 ---------------------------------------------------------------------
 Center     Atomic      Atomic             Coordinates (Angstroms)
 Number     Number       Type             X           Y           Z
 ---------------------------------------------------------------------
      1          6           0       -0.000005   -2.502845    0.000009
      2          6           0        1.206880   -1.811286   -0.000003
      3          6           0        1.205684   -0.419342    0.000005
      4          6           0       -0.000009    0.287728    0.000018
      5          6           0       -1.205697   -0.419321    0.000004
      6          6           0       -1.206860   -1.811282   -0.000002
      7         17           0       -2.724587    0.412077   -0.000008
      8         17           0        0.000014    2.019222    0.000005
      9         17           0        2.724574    0.412077   -0.000008
     10          1           0        0.000020   -3.587562    0.000003
     11          1           0        2.150336   -2.345873   -0.000006
     12          1           0       -2.150322   -2.345866   -0.000004
 ---------------------------------------------------------------------
 Rotational constants (GHZ):      1.4997737      0.8446396      0.5403349
 Standard basis: 6-31+G(d) (6D, 7F)
 There are   189 symmetry adapted cartesian basis functions of A   symmetry.
 There are   189 symmetry adapted basis functions of A   symmetry.
   189 basis functions,   372 primitive gaussians,   189 cartesian basis functions
    45 alpha electrons       45 beta electrons
       nuclear repulsion energy       649.0524467065 Hartrees.
 NAtoms=   12 NActive=   12 NUniq=   12 SFac= 1.00D+00 NAtFMM=   60 NAOKFM=F Big=F
 Integral buffers will be    131072 words long.
 Raffenetti 2 integral format.
 Two-electron integral symmetry is turned on.
 One-electron integrals computed using PRISM.
 NBasis=   189 RedAO= T EigKep=  1.55D-06  NBF=   189
 NBsUse=   189 1.00D-06 EigRej= -1.00D+00 NBFU=   189
 Initial guess from the checkpoint file:  "/srv/scratch/z5358697/gauss/Gau-3627019.chk"
 B after Tr=     0.000000    0.000000    0.000000
         Rot=    1.000000    0.000000    0.000000    0.000005 Ang=   0.00 deg.
 ExpMin= 4.38D-02 ExpMax= 2.52D+04 ExpMxC= 3.78D+03 IAcc=2 IRadAn=         4 AccDes= 0.00D+00
 Harris functional with IExCor= 1009 and IRadAn=       4 diagonalized for initial guess.
 HarFok:  IExCor= 1009 AccDes= 0.00D+00 IRadAn=         4 IDoV= 1 UseB2=F ITyADJ=14
 ICtDFT=  3500011 ScaDFX=  1.000000  1.000000  1.000000  1.000000
 FoFCou: FMM=F IPFlag=           0 FMFlag=      100000 FMFlg1=           0
         NFxFlg=           0 DoJE=T BraDBF=F KetDBF=T FulRan=T
         wScrn=  0.000000 ICntrl=     500 IOpCl=  0 I1Cent=   200000004 NGrid=           0
         NMat0=    1 NMatS0=      1 NMatT0=    0 NMatD0=    1 NMtDS0=    0 NMtDT0=    0
 Petite list used in FoFCou.
 Requested convergence on RMS density matrix=1.00D-08 within 128 cycles.
 Requested convergence on MAX density matrix=1.00D-06.
 Requested convergence on             energy=1.00D-06.
 No special actions if energy rises.
 SCF Done:  E(RM062X) =  -1610.84495853     A.U. after   12 cycles
            NFock= 12  Conv=0.55D-08     -V/T= 2.0035
 Calling FoFJK, ICntrl=      2127 FMM=F ISym2X=0 I1Cent= 0 IOpClX= 0 NMat=1 NMatS=1 NMatT=0.
 ***** Axes restored to original set *****
 -------------------------------------------------------------------
 Center     Atomic                   Forces (Hartrees/Bohr)
 Number     Number              X              Y              Z
 -------------------------------------------------------------------
      1        6          -0.000032092   -0.000029046    0.001540440
      2        6          -0.000963126    0.000574878   -0.001423185
      3        6           0.000731038   -0.000297079   -0.003315325
      4        6          -0.000225295   -0.000114535    0.007532942
      5        6          -0.000521443    0.000394825   -0.003358597
      6        6           0.001028053   -0.000524894   -0.001370307
      7       17          -0.000415456    0.000214539    0.000453671
      8       17           0.000058310    0.000029574   -0.001950117
      9       17           0.000385525   -0.000227875    0.000470280
     10        1           0.000004474    0.000005076   -0.000246336
     11        1           0.000518712   -0.000313016    0.000845360
     12        1          -0.000568700    0.000287555    0.000821176
 -------------------------------------------------------------------
 Cartesian Forces:  Max     0.007532942 RMS     0.001631937

 GradGradGradGradGradGradGradGradGradGradGradGradGradGradGradGradGradGrad
 Berny optimization.
 Using GEDIIS/GDIIS optimizer.
 FormGI is forming the generalized inverse of G from B-inverse, IUseBI=4.
 Internal  Forces:  Max     0.002308374 RMS     0.000757748
 Search for a local minimum.
 Step number   2 out of a maximum of   64
 All quantities printed in internal units (Hartrees-Bohrs-Radians)
 Mixed Optimization -- En-DIIS/RFO-DIIS
 Update second derivatives using D2CorX and points    1    2
 DE= -8.88D-04 DEPred=-7.54D-04 R= 1.18D+00
 TightC=F SS=  1.41D+00  RLast= 8.23D-02 DXNew= 5.0454D-01 2.4680D-01
 Trust test= 1.18D+00 RLast= 8.23D-02 DXMaxT set to 3.00D-01
 ITU=  1  0
 Use linear search instead of GDIIS.
     Eigenvalues ---    0.02156   0.02156   0.02156   0.02156   0.02156
     Eigenvalues ---    0.02156   0.02157   0.02157   0.02158   0.13612
     Eigenvalues ---    0.16000   0.16000   0.22160   0.22344   0.23480
     Eigenvalues ---    0.25000   0.25000   0.27133   0.31310   0.32473
     Eigenvalues ---    0.32488   0.35140   0.35217   0.35469   0.41272
     Eigenvalues ---    0.42401   0.46336   0.46474   0.46487   0.47576
 RFO step:  Lambda=-8.62608538D-05 EMin= 2.15602141D-02
 Quartic linear search produced a step of  0.21958.
 Iteration  1 RMS(Cart)=  0.00354616 RMS(Int)=  0.00001979
 Iteration  2 RMS(Cart)=  0.00002289 RMS(Int)=  0.00000411
 Iteration  3 RMS(Cart)=  0.00000000 RMS(Int)=  0.00000411
 Variable       Old X    -DE/DX   Delta X   Delta X   Delta X     New X
                                 (Linear)    (Quad)   (Total)
    R1        2.62857  -0.00063  -0.00163  -0.00078  -0.00242   2.62616
    R2        2.62853  -0.00062  -0.00157  -0.00079  -0.00237   2.62616
    R3        2.04982   0.00025  -0.00059   0.00129   0.00070   2.05052
    R4        2.63039  -0.00008  -0.00123   0.00071  -0.00052   2.62987
    R5        2.04919   0.00013  -0.00115   0.00131   0.00016   2.04935
    R6        2.64132   0.00228   0.00117   0.00544   0.00662   2.64794
    R7        3.27217   0.00062   0.00050   0.00196   0.00246   3.27463
    R8        2.64129   0.00228   0.00116   0.00547   0.00663   2.64793
    R9        3.27205  -0.00195  -0.00283  -0.00540  -0.00823   3.26382
   R10        2.63043  -0.00009  -0.00123   0.00068  -0.00054   2.62988
   R11        3.27215   0.00062   0.00050   0.00197   0.00247   3.27462
   R12        2.04920   0.00013  -0.00118   0.00133   0.00015   2.04935
    A1        2.10090   0.00020   0.00141  -0.00144  -0.00004   2.10086
    A2        2.09111  -0.00009  -0.00070   0.00075   0.00005   2.09116
    A3        2.09117  -0.00010  -0.00071   0.00070   0.00000   2.09117
    A4        2.09028   0.00022  -0.00089   0.00117   0.00028   2.09055
    A5        2.10574   0.00095   0.00642   0.00292   0.00934   2.11508
    A6        2.08717  -0.00117  -0.00553  -0.00410  -0.00962   2.07755
    A7        2.10205   0.00083   0.00168   0.00342   0.00510   2.10715
    A8        2.07077  -0.00011   0.00495  -0.00458   0.00036   2.07113
    A9        2.11037  -0.00072  -0.00663   0.00117  -0.00547   2.10490
   A10        2.08082  -0.00231  -0.00298  -0.00774  -0.01071   2.07011
   A11        2.10118   0.00116   0.00149   0.00388   0.00536   2.10654
   A12        2.10119   0.00115   0.00149   0.00386   0.00535   2.10654
   A13        2.10201   0.00084   0.00169   0.00345   0.00514   2.10715
   A14        2.11039  -0.00072  -0.00662   0.00114  -0.00548   2.10491
   A15        2.07078  -0.00012   0.00494  -0.00459   0.00034   2.07113
   A16        2.09031   0.00022  -0.00091   0.00115   0.00024   2.09055
   A17        2.10573   0.00095   0.00644   0.00292   0.00936   2.11509
   A18        2.08715  -0.00117  -0.00553  -0.00407  -0.00960   2.07755
    D1        0.00003   0.00000   0.00003  -0.00007  -0.00004  -0.00001
    D2       -3.14158   0.00000   0.00000  -0.00002  -0.00002   3.14158
    D3       -3.14159   0.00000   0.00002  -0.00002   0.00000  -3.14159
    D4       -0.00001   0.00000  -0.00001   0.00003   0.00002   0.00000
    D5       -0.00002   0.00000  -0.00002   0.00006   0.00004   0.00001
    D6        3.14158   0.00000  -0.00002   0.00005   0.00002  -3.14158
    D7       -3.14159   0.00000  -0.00001   0.00001   0.00000   3.14159
    D8        0.00001   0.00000  -0.00001   0.00000  -0.00002  -0.00001
    D9       -0.00001   0.00000  -0.00002   0.00002   0.00001   0.00000
   D10        3.14159   0.00000  -0.00002   0.00002   0.00000   3.14159
   D11       -3.14158   0.00000   0.00001  -0.00002  -0.00001   3.14159
   D12        0.00001   0.00000   0.00001  -0.00003  -0.00001   0.00000
   D13       -0.00002   0.00000   0.00000   0.00003   0.00003   0.00001
   D14       -3.14158   0.00000   0.00002  -0.00005  -0.00003   3.14158
   D15        3.14157   0.00000   0.00000   0.00003   0.00003  -3.14158
   D16        0.00001   0.00000   0.00003  -0.00005  -0.00002  -0.00001
   D17        0.00002   0.00000   0.00001  -0.00004  -0.00003  -0.00001
   D18       -3.14157   0.00000   0.00002  -0.00004  -0.00003   3.14158
   D19        3.14158   0.00000  -0.00001   0.00004   0.00003  -3.14158
   D20       -0.00001   0.00000  -0.00001   0.00004   0.00003   0.00001
   D21        0.00000   0.00000   0.00000   0.00000   0.00000   0.00000
   D22        3.14158   0.00000   0.00000   0.00001   0.00001  -3.14159
   D23       -3.14159   0.00000   0.00000   0.00000   0.00000   3.14159
   D24       -0.00001   0.00000   0.00000   0.00001   0.00001   0.00000
         Item               Value     Threshold  Converged?
 Maximum Force            0.002308     0.000450     NO 
 RMS     Force            0.000758     0.000300     NO 
 Maximum Displacement     0.012012     0.001800     NO 
 RMS     Displacement     0.003547     0.001200     NO 
 Predicted change in Energy=-7.367773D-05
 GradGradGradGradGradGradGradGradGradGradGradGradGradGradGradGradGradGrad

                          Input orientation:                          
 ---------------------------------------------------------------------
 Center     Atomic      Atomic             Coordinates (Angstroms)
 Number     Number       Type             X           Y           Z
 ---------------------------------------------------------------------
      1          6           0        1.885366   -1.036224   -0.119531
      2          6           0        2.919462   -1.629546    0.594530
      3          6           0        2.876084   -1.650229    1.985368
      4          6           0        1.799651   -1.078636    2.676758
      5          6           0        0.767043   -0.485372    1.938392
      6          6           0        0.808926   -0.463863    0.547514
      7         17           0       -0.588689    0.236717    2.740486
      8         17           0        1.746729   -1.104831    4.402889
      9         17           0        4.180821   -2.397564    2.846735
     10          1           0        1.918611   -1.019779   -1.203987
     11          1           0        3.765687   -2.080068    0.087566
     12          1           0       -0.005091    0.002595    0.003579
 ---------------------------------------------------------------------
                    Distance matrix (angstroms):
                    1          2          3          4          5
     1  C    0.000000
     2  C    1.389702   0.000000
     3  C    2.406060   1.391667   0.000000
     4  C    2.797924   2.427581   1.401230   0.000000
     5  C    2.406062   2.783525   2.409804   1.401223   0.000000
     6  C    1.389702   2.411512   2.783528   2.427583   1.391674
     7  Cl   3.990117   4.516104   4.016892   2.727340   1.732852
     8  Cl   4.525065   4.019231   2.723473   1.727140   2.723464
     9  Cl   3.990125   2.693196   1.732860   2.727349   4.016895
    10  H    1.085089   2.146668   3.389131   3.883014   3.389136
    11  H    2.160580   1.084472   2.139581   3.401776   3.867878
    12  H    2.160585   3.400900   3.867878   3.401770   2.139580
                    6          7          8          9         10
     6  C    0.000000
     7  Cl   2.693189   0.000000
     8  Cl   4.019232   3.165045   0.000000
     9  Cl   4.516114   5.449674   3.165055   0.000000
    10  H    2.146671   4.839855   5.610154   4.839859   0.000000
    11  H    3.400898   5.600542   4.863053   2.808229   2.490786
    12  H    1.084469   2.808213   4.863043   5.600550   2.490801
                   11         12
    11  H    0.000000
    12  H    4.308515   0.000000
 Stoichiometry    C6H3Cl3
 Framework group  C1[X(C6H3Cl3)]
 Deg. of freedom    30
 Full point group                 C1      NOp   1
 Largest Abelian subgroup         C1      NOp   1
 Largest concise Abelian subgroup C1      NOp   1
                         Standard orientation:                         
 ---------------------------------------------------------------------
 Center     Atomic      Atomic             Coordinates (Angstroms)
 Number     Number       Type             X           Y           Z
 ---------------------------------------------------------------------
      1          6           0       -0.000003   -2.503853   -0.000003
      2          6           0        1.205753   -1.812895    0.000002
      3          6           0        1.204902   -0.421228   -0.000004
      4          6           0       -0.000002    0.294072   -0.000012
      5          6           0       -1.204901   -0.421221   -0.000002
      6          6           0       -1.205759   -1.812895    0.000003
      7         17           0       -2.724834    0.410993    0.000002
      8         17           0       -0.000003    2.021212    0.000000
      9         17           0        2.724840    0.410993    0.000003
     10          1           0        0.000000   -3.588942    0.000001
     11          1           0        2.154253   -2.338658    0.000007
     12          1           0       -2.154263   -2.338645    0.000007
 ---------------------------------------------------------------------
 Rotational constants (GHZ):      1.4977940      0.8446089      0.5400651
 Standard basis: 6-31+G(d) (6D, 7F)
 There are   189 symmetry adapted cartesian basis functions of A   symmetry.
 There are   189 symmetry adapted basis functions of A   symmetry.
   189 basis functions,   372 primitive gaussians,   189 cartesian basis functions
    45 alpha electrons       45 beta electrons
       nuclear repulsion energy       648.8915092455 Hartrees.
 NAtoms=   12 NActive=   12 NUniq=   12 SFac= 1.00D+00 NAtFMM=   60 NAOKFM=F Big=F
 Integral buffers will be    131072 words long.
 Raffenetti 2 integral format.
 Two-electron integral symmetry is turned on.
 One-electron integrals computed using PRISM.
 NBasis=   189 RedAO= T EigKep=  1.60D-06  NBF=   189
 NBsUse=   189 1.00D-06 EigRej= -1.00D+00 NBFU=   189
 Initial guess from the checkpoint file:  "/srv/scratch/z5358697/gauss/Gau-3627019.chk"
 B after Tr=     0.000000    0.000000    0.000000
         Rot=    1.000000    0.000000    0.000000    0.000000 Ang=   0.00 deg.
 Requested convergence on RMS density matrix=1.00D-08 within 128 cycles.
 Requested convergence on MAX density matrix=1.00D-06.
 Requested convergence on             energy=1.00D-06.
 No special actions if energy rises.
 SCF Done:  E(RM062X) =  -1610.84503636     A.U. after   10 cycles
            NFock= 10  Conv=0.68D-08     -V/T= 2.0035
 Calling FoFJK, ICntrl=      2127 FMM=F ISym2X=0 I1Cent= 0 IOpClX= 0 NMat=1 NMatS=1 NMatT=0.
 ***** Axes restored to original set *****
 -------------------------------------------------------------------
 Center     Atomic                   Forces (Hartrees/Bohr)
 Number     Number              X              Y              Z
 -------------------------------------------------------------------
      1        6           0.000012688    0.000007015   -0.000484415
      2        6           0.000173341   -0.000102252    0.000235430
      3        6          -0.000830793    0.000459973   -0.000046581
      4        6          -0.000028031   -0.000018097    0.000984358
      5        6           0.000831873   -0.000457814   -0.000017834
      6        6          -0.000183421    0.000094741    0.000232378
      7       17          -0.000234814    0.000126883    0.000081675
      8       17           0.000029075    0.000014259   -0.000924732
      9       17           0.000226634   -0.000127826    0.000089824
     10        1           0.000000904    0.000000789   -0.000034177
     11        1           0.000053083   -0.000027436   -0.000055938
     12        1          -0.000050540    0.000029765   -0.000059988
 -------------------------------------------------------------------
 Cartesian Forces:  Max     0.000984358 RMS     0.000342707

 GradGradGradGradGradGradGradGradGradGradGradGradGradGradGradGradGradGrad
 Berny optimization.
 Using GEDIIS/GDIIS optimizer.
 FormGI is forming the generalized inverse of G from B-inverse, IUseBI=4.
 Internal  Forces:  Max     0.000925299 RMS     0.000189881
 Search for a local minimum.
 Step number   3 out of a maximum of   64
 All quantities printed in internal units (Hartrees-Bohrs-Radians)
 Mixed Optimization -- En-DIIS/RFO-DIIS
 Swapping is turned off.
 Update second derivatives using D2CorX and points    1    2    3
 DE= -7.78D-05 DEPred=-7.37D-05 R= 1.06D+00
 TightC=F SS=  1.41D+00  RLast= 2.87D-02 DXNew= 5.0454D-01 8.6154D-02
 Trust test= 1.06D+00 RLast= 2.87D-02 DXMaxT set to 3.00D-01
 ITU=  1  1  0
     Eigenvalues ---    0.02156   0.02156   0.02156   0.02156   0.02156
     Eigenvalues ---    0.02156   0.02157   0.02157   0.02158   0.13031
     Eigenvalues ---    0.16000   0.16000   0.20684   0.22249   0.23480
     Eigenvalues ---    0.25000   0.25000   0.27430   0.30675   0.32435
     Eigenvalues ---    0.32473   0.35140   0.35235   0.35529   0.42386
     Eigenvalues ---    0.44151   0.46474   0.46487   0.46671   0.48137
 En-DIIS/RFO-DIIS IScMMF=        0 using points:     3    2
 RFO step:  Lambda=-3.60214843D-06.
 DidBck=F Rises=F RFO-DIIS coefs:    1.06831   -0.06831
 Iteration  1 RMS(Cart)=  0.00069432 RMS(Int)=  0.00000041
 Iteration  2 RMS(Cart)=  0.00000045 RMS(Int)=  0.00000023
 Variable       Old X    -DE/DX   Delta X   Delta X   Delta X     New X
                                 (Linear)    (Quad)   (Total)
    R1        2.62616   0.00018  -0.00016   0.00048   0.00031   2.62647
    R2        2.62616   0.00018  -0.00016   0.00047   0.00031   2.62647
    R3        2.05052   0.00003   0.00005   0.00006   0.00010   2.05063
    R4        2.62987   0.00009  -0.00004   0.00016   0.00012   2.62999
    R5        2.04935   0.00008   0.00001   0.00018   0.00020   2.04955
    R6        2.64794  -0.00040   0.00045  -0.00112  -0.00067   2.64727
    R7        3.27463   0.00027   0.00017   0.00083   0.00100   3.27563
    R8        2.64793  -0.00039   0.00045  -0.00111  -0.00066   2.64727
    R9        3.26382  -0.00093  -0.00056  -0.00298  -0.00354   3.26028
   R10        2.62988   0.00008  -0.00004   0.00015   0.00011   2.63000
   R11        3.27462   0.00027   0.00017   0.00084   0.00101   3.27563
   R12        2.04935   0.00008   0.00001   0.00019   0.00020   2.04955
    A1        2.10086  -0.00033   0.00000  -0.00122  -0.00123   2.09963
    A2        2.09116   0.00017   0.00000   0.00061   0.00062   2.09178
    A3        2.09117   0.00017   0.00000   0.00061   0.00061   2.09178
    A4        2.09055   0.00000   0.00002   0.00011   0.00013   2.09068
    A5        2.11508  -0.00002   0.00064  -0.00023   0.00041   2.11549
    A6        2.07755   0.00002  -0.00066   0.00012  -0.00054   2.07701
    A7        2.10715   0.00029   0.00035   0.00104   0.00139   2.10854
    A8        2.07113  -0.00023   0.00002  -0.00072  -0.00069   2.07044
    A9        2.10490  -0.00006  -0.00037  -0.00033  -0.00070   2.10420
   A10        2.07011  -0.00024  -0.00073  -0.00109  -0.00182   2.06829
   A11        2.10654   0.00012   0.00037   0.00054   0.00091   2.10744
   A12        2.10654   0.00012   0.00037   0.00055   0.00091   2.10745
   A13        2.10715   0.00029   0.00035   0.00104   0.00139   2.10854
   A14        2.10491  -0.00006  -0.00037  -0.00033  -0.00070   2.10421
   A15        2.07113  -0.00023   0.00002  -0.00071  -0.00069   2.07044
   A16        2.09055   0.00000   0.00002   0.00012   0.00013   2.09068
   A17        2.11509  -0.00002   0.00064  -0.00024   0.00040   2.11550
   A18        2.07755   0.00002  -0.00066   0.00012  -0.00054   2.07701
    D1       -0.00001   0.00000   0.00000   0.00002   0.00002   0.00001
    D2        3.14158   0.00000   0.00000   0.00002   0.00002  -3.14159
    D3       -3.14159   0.00000   0.00000   0.00000   0.00000  -3.14159
    D4        0.00000   0.00000   0.00000  -0.00001  -0.00001   0.00000
    D5        0.00001   0.00000   0.00000  -0.00002  -0.00002  -0.00001
    D6       -3.14158   0.00000   0.00000  -0.00002  -0.00001   3.14159
    D7        3.14159   0.00000   0.00000   0.00000   0.00000   3.14159
    D8       -0.00001   0.00000   0.00000   0.00001   0.00001   0.00000
    D9        0.00000   0.00000   0.00000   0.00000   0.00000   0.00000
   D10        3.14159   0.00000   0.00000   0.00000   0.00000   3.14159
   D11        3.14159   0.00000   0.00000   0.00000   0.00000  -3.14159
   D12        0.00000   0.00000   0.00000   0.00001   0.00001   0.00000
   D13        0.00001   0.00000   0.00000  -0.00002  -0.00001   0.00000
   D14        3.14158   0.00000   0.00000   0.00002   0.00002  -3.14159
   D15       -3.14158   0.00000   0.00000  -0.00002  -0.00002   3.14159
   D16       -0.00001   0.00000   0.00000   0.00002   0.00002   0.00001
   D17       -0.00001   0.00000   0.00000   0.00002   0.00002   0.00000
   D18        3.14158   0.00000   0.00000   0.00002   0.00001  -3.14159
   D19       -3.14158   0.00000   0.00000  -0.00002  -0.00002   3.14159
   D20        0.00001   0.00000   0.00000  -0.00002  -0.00002  -0.00001
   D21        0.00000   0.00000   0.00000   0.00000   0.00000   0.00000
   D22       -3.14159   0.00000   0.00000  -0.00001   0.00000   3.14159
   D23        3.14159   0.00000   0.00000   0.00000   0.00000   3.14159
   D24        0.00000   0.00000   0.00000   0.00000   0.00000   0.00000
         Item               Value     Threshold  Converged?
 Maximum Force            0.000925     0.000450     NO 
 RMS     Force            0.000190     0.000300     YES
 Maximum Displacement     0.001789     0.001800     YES
 RMS     Displacement     0.000694     0.001200     YES
 Predicted change in Energy=-3.477064D-06
 GradGradGradGradGradGradGradGradGradGradGradGradGradGradGradGradGradGrad

                          Input orientation:                          
 ---------------------------------------------------------------------
 Center     Atomic      Atomic             Coordinates (Angstroms)
 Number     Number       Type             X           Y           Z
 ---------------------------------------------------------------------
      1          6           0        1.885389   -1.036218   -0.120381
      2          6           0        2.919218   -1.629409    0.594496
      3          6           0        2.875246   -1.649773    1.985384
      4          6           0        1.799615   -1.078665    2.677705
      5          6           0        0.767873   -0.485835    1.938442
      6          6           0        0.809175   -0.463997    0.547492
      7         17           0       -0.588416    0.236573    2.740464
      8         17           0        1.746766   -1.104816    4.401964
      9         17           0        4.180549   -2.397406    2.846701
     10          1           0        1.918634   -1.019766   -1.204892
     11          1           0        3.765968   -2.080243    0.088466
     12          1           0       -0.005416    0.002755    0.004459
 ---------------------------------------------------------------------
                    Distance matrix (angstroms):
                    1          2          3          4          5
     1  C    0.000000
     2  C    1.389866   0.000000
     3  C    2.406349   1.391731   0.000000
     4  C    2.799722   2.428289   1.400876   0.000000
     5  C    2.406349   2.782488   2.407899   1.400875   0.000000
     6  C    1.389866   2.410949   2.782490   2.428291   1.391734
     7  Cl   3.990506   4.515591   4.015645   2.726992   1.733388
     8  Cl   4.524989   4.018290   2.722188   1.725267   2.722189
     9  Cl   3.990509   2.693176   1.733389   2.726991   4.015644
    10  H    1.085145   2.147238   3.389672   3.884867   3.389672
    11  H    2.161060   1.084575   2.139389   3.402037   3.866926
    12  H    2.161063   3.400822   3.866928   3.402037   2.139389
                    6          7          8          9         10
     6  C    0.000000
     7  Cl   2.693174   0.000000
     8  Cl   4.018293   3.164330   0.000000
     9  Cl   4.515594   5.449051   3.164322   0.000000
    10  H    2.147237   4.840405   5.610134   4.840408   0.000000
    11  H    3.400820   5.600124   4.861574   2.807192   2.491993
    12  H    1.084574   2.807184   4.861575   5.600126   2.491996
                   11         12
    11  H    0.000000
    12  H    4.309208   0.000000
 Stoichiometry    C6H3Cl3
 Framework group  C1[X(C6H3Cl3)]
 Deg. of freedom    30
 Full point group                 C1      NOp   1
 Largest Abelian subgroup         C1      NOp   1
 Largest concise Abelian subgroup C1      NOp   1
                         Standard orientation:                         
 ---------------------------------------------------------------------
 Center     Atomic      Atomic             Coordinates (Angstroms)
 Number     Number       Type             X           Y           Z
 ---------------------------------------------------------------------
      1          6           0       -0.000008   -2.504534    0.000001
      2          6           0        1.205469   -1.812757   -0.000001
      3          6           0        1.203949   -0.421026    0.000002
      4          6           0        0.000001    0.295188    0.000006
      5          6           0       -1.203951   -0.421019    0.000002
      6          6           0       -1.205480   -1.812752   -0.000001
      7         17           0       -2.724525    0.411138   -0.000001
      8         17           0        0.000008    2.020455    0.000000
      9         17           0        2.724526    0.411128   -0.000001
     10          1           0       -0.000010   -3.589679    0.000000
     11          1           0        2.154596   -2.337600   -0.000004
     12          1           0       -2.154612   -2.337586   -0.000003
 ---------------------------------------------------------------------
 Rotational constants (GHZ):      1.4981082      0.8448729      0.5402139
 Standard basis: 6-31+G(d) (6D, 7F)
 There are   189 symmetry adapted cartesian basis functions of A   symmetry.
 There are   189 symmetry adapted basis functions of A   symmetry.
   189 basis functions,   372 primitive gaussians,   189 cartesian basis functions
    45 alpha electrons       45 beta electrons
       nuclear repulsion energy       648.9761254102 Hartrees.
 NAtoms=   12 NActive=   12 NUniq=   12 SFac= 1.00D+00 NAtFMM=   60 NAOKFM=F Big=F
 Integral buffers will be    131072 words long.
 Raffenetti 2 integral format.
 Two-electron integral symmetry is turned on.
 One-electron integrals computed using PRISM.
 NBasis=   189 RedAO= T EigKep=  1.60D-06  NBF=   189
 NBsUse=   189 1.00D-06 EigRej= -1.00D+00 NBFU=   189
 Initial guess from the checkpoint file:  "/srv/scratch/z5358697/gauss/Gau-3627019.chk"
 B after Tr=     0.000000    0.000000    0.000000
         Rot=    1.000000    0.000000    0.000000    0.000001 Ang=   0.00 deg.
 Requested convergence on RMS density matrix=1.00D-08 within 128 cycles.
 Requested convergence on MAX density matrix=1.00D-06.
 Requested convergence on             energy=1.00D-06.
 No special actions if energy rises.
 SCF Done:  E(RM062X) =  -1610.84504048     A.U. after    9 cycles
            NFock=  9  Conv=0.86D-08     -V/T= 2.0035
 Calling FoFJK, ICntrl=      2127 FMM=F ISym2X=0 I1Cent= 0 IOpClX= 0 NMat=1 NMatS=1 NMatT=0.
 ***** Axes restored to original set *****
 -------------------------------------------------------------------
 Center     Atomic                   Forces (Hartrees/Bohr)
 Number     Number              X              Y              Z
 -------------------------------------------------------------------
      1        6           0.000005399    0.000003513   -0.000183124
      2        6           0.000147020   -0.000087171    0.000173637
      3        6          -0.000261102    0.000146277   -0.000072603
      4        6          -0.000004732   -0.000002255    0.000181096
      5        6           0.000264643   -0.000144138   -0.000063083
      6        6          -0.000156781    0.000080697    0.000169087
      7       17          -0.000135687    0.000074822    0.000000375
      8       17           0.000003386    0.000001854   -0.000125893
      9       17           0.000135394   -0.000074887    0.000005584
     10        1          -0.000000681   -0.000000413    0.000023425
     11        1          -0.000020559    0.000013084   -0.000054484
     12        1           0.000023701   -0.000011382   -0.000054019
 -------------------------------------------------------------------
 Cartesian Forces:  Max     0.000264643 RMS     0.000111386

 GradGradGradGradGradGradGradGradGradGradGradGradGradGradGradGradGradGrad
 Berny optimization.
 Using GEDIIS/GDIIS optimizer.
 FormGI is forming the generalized inverse of G from B-inverse, IUseBI=4.
 Internal  Forces:  Max     0.000154282 RMS     0.000055600
 Search for a local minimum.
 Step number   4 out of a maximum of   64
 All quantities printed in internal units (Hartrees-Bohrs-Radians)
 Mixed Optimization -- En-DIIS/RFO-DIIS
 Swapping is turned off.
 Update second derivatives using D2CorX and points    1    2    3    4
 DE= -4.11D-06 DEPred=-3.48D-06 R= 1.18D+00
 TightC=F SS=  1.41D+00  RLast= 5.45D-03 DXNew= 5.0454D-01 1.6352D-02
 Trust test= 1.18D+00 RLast= 5.45D-03 DXMaxT set to 3.00D-01
 ITU=  1  1  1  0
     Eigenvalues ---    0.02156   0.02156   0.02156   0.02156   0.02156
     Eigenvalues ---    0.02156   0.02157   0.02157   0.02158   0.13814
     Eigenvalues ---    0.16000   0.16000   0.17519   0.22267   0.23481
     Eigenvalues ---    0.25000   0.25000   0.25726   0.29318   0.32473
     Eigenvalues ---    0.32794   0.35140   0.35200   0.35522   0.42379
     Eigenvalues ---    0.43485   0.46474   0.46487   0.47025   0.49570
 En-DIIS/RFO-DIIS IScMMF=        0 using points:     4    3    2
 RFO step:  Lambda=-3.57780028D-07.
 DidBck=F Rises=F RFO-DIIS coefs:    1.24331   -0.25537    0.01205
 Iteration  1 RMS(Cart)=  0.00031484 RMS(Int)=  0.00000010
 Iteration  2 RMS(Cart)=  0.00000012 RMS(Int)=  0.00000005
 Variable       Old X    -DE/DX   Delta X   Delta X   Delta X     New X
                                 (Linear)    (Quad)   (Total)
    R1        2.62647   0.00007   0.00010   0.00008   0.00019   2.62666
    R2        2.62647   0.00007   0.00010   0.00009   0.00019   2.62666
    R3        2.05063  -0.00002   0.00002  -0.00010  -0.00009   2.05054
    R4        2.62999  -0.00004   0.00004  -0.00015  -0.00011   2.62988
    R5        2.04955   0.00000   0.00005  -0.00004   0.00000   2.04955
    R6        2.64727  -0.00001  -0.00024   0.00017  -0.00007   2.64720
    R7        3.27563   0.00014   0.00021   0.00037   0.00059   3.27622
    R8        2.64727  -0.00001  -0.00024   0.00017  -0.00007   2.64720
    R9        3.26028  -0.00013  -0.00076   0.00001  -0.00075   3.25953
   R10        2.63000  -0.00004   0.00003  -0.00015  -0.00012   2.62988
   R11        3.27563   0.00014   0.00022   0.00037   0.00059   3.27622
   R12        2.04955   0.00000   0.00005  -0.00004   0.00001   2.04955
    A1        2.09963  -0.00006  -0.00030   0.00000  -0.00030   2.09933
    A2        2.09178   0.00003   0.00015   0.00000   0.00015   2.09193
    A3        2.09178   0.00003   0.00015   0.00000   0.00015   2.09193
    A4        2.09068  -0.00001   0.00003  -0.00004  -0.00001   2.09067
    A5        2.11549  -0.00006  -0.00001  -0.00032  -0.00033   2.11516
    A6        2.07701   0.00006  -0.00002   0.00036   0.00034   2.07735
    A7        2.10854   0.00007   0.00028   0.00017   0.00045   2.10899
    A8        2.07044  -0.00015  -0.00017  -0.00053  -0.00070   2.06974
    A9        2.10420   0.00008  -0.00010   0.00035   0.00025   2.10445
   A10        2.06829  -0.00008  -0.00031  -0.00027  -0.00058   2.06771
   A11        2.10744   0.00004   0.00016   0.00014   0.00029   2.10774
   A12        2.10745   0.00004   0.00016   0.00013   0.00029   2.10773
   A13        2.10854   0.00007   0.00028   0.00017   0.00045   2.10899
   A14        2.10421   0.00008  -0.00010   0.00035   0.00024   2.10445
   A15        2.07044  -0.00015  -0.00017  -0.00052  -0.00069   2.06974
   A16        2.09068  -0.00001   0.00003  -0.00004  -0.00001   2.09067
   A17        2.11550  -0.00006  -0.00001  -0.00032  -0.00033   2.11516
   A18        2.07701   0.00006  -0.00001   0.00036   0.00034   2.07735
    D1        0.00001   0.00000   0.00001  -0.00001  -0.00001   0.00000
    D2       -3.14159   0.00000   0.00000  -0.00001  -0.00001   3.14159
    D3       -3.14159   0.00000   0.00000   0.00000   0.00000  -3.14159
    D4        0.00000   0.00000   0.00000   0.00000   0.00000   0.00000
    D5       -0.00001   0.00000  -0.00001   0.00001   0.00001   0.00000
    D6        3.14159   0.00000   0.00000   0.00001   0.00001  -3.14159
    D7        3.14159   0.00000   0.00000   0.00000   0.00000   3.14159
    D8        0.00000   0.00000   0.00000   0.00000   0.00000   0.00000
    D9        0.00000   0.00000   0.00000   0.00000   0.00000   0.00000
   D10        3.14159   0.00000   0.00000   0.00000   0.00000   3.14159
   D11       -3.14159   0.00000   0.00000   0.00000   0.00000   3.14159
   D12        0.00000   0.00000   0.00000   0.00000   0.00000   0.00000
   D13        0.00000   0.00000   0.00000   0.00001   0.00001   0.00000
   D14       -3.14159   0.00000   0.00001  -0.00002  -0.00001   3.14159
   D15        3.14159   0.00000   0.00000   0.00001   0.00001  -3.14159
   D16        0.00001   0.00000   0.00000  -0.00001  -0.00001   0.00000
   D17        0.00000   0.00000   0.00000  -0.00001  -0.00001   0.00000
   D18       -3.14159   0.00000   0.00000  -0.00001  -0.00001   3.14159
   D19        3.14159   0.00000   0.00000   0.00001   0.00001  -3.14159
   D20       -0.00001   0.00000   0.00000   0.00001   0.00001   0.00000
   D21        0.00000   0.00000   0.00000   0.00000   0.00000   0.00000
   D22        3.14159   0.00000   0.00000   0.00000   0.00000  -3.14159
   D23        3.14159   0.00000   0.00000   0.00000   0.00000  -3.14159
   D24        0.00000   0.00000   0.00000   0.00000   0.00000   0.00000
         Item               Value     Threshold  Converged?
 Maximum Force            0.000154     0.000450     YES
 RMS     Force            0.000056     0.000300     YES
 Maximum Displacement     0.001039     0.001800     YES
 RMS     Displacement     0.000315     0.001200     YES
 Predicted change in Energy=-3.899951D-07
 Optimization completed.
    -- Stationary point found.
                           ----------------------------
                           !   Optimized Parameters   !
                           ! (Angstroms and Degrees)  !
 --------------------------                            --------------------------
 ! Name  Definition              Value          Derivative Info.                !
 --------------------------------------------------------------------------------
 ! R1    R(1,2)                  1.3899         -DE/DX =    0.0001              !
 ! R2    R(1,6)                  1.3899         -DE/DX =    0.0001              !
 ! R3    R(1,10)                 1.0851         -DE/DX =    0.0                 !
 ! R4    R(2,3)                  1.3917         -DE/DX =    0.0                 !
 ! R5    R(2,11)                 1.0846         -DE/DX =    0.0                 !
 ! R6    R(3,4)                  1.4009         -DE/DX =    0.0                 !
 ! R7    R(3,9)                  1.7334         -DE/DX =    0.0001              !
 ! R8    R(4,5)                  1.4009         -DE/DX =    0.0                 !
 ! R9    R(4,8)                  1.7253         -DE/DX =   -0.0001              !
 ! R10   R(5,6)                  1.3917         -DE/DX =    0.0                 !
 ! R11   R(5,7)                  1.7334         -DE/DX =    0.0001              !
 ! R12   R(6,12)                 1.0846         -DE/DX =    0.0                 !
 ! A1    A(2,1,6)              120.3            -DE/DX =   -0.0001              !
 ! A2    A(2,1,10)             119.85           -DE/DX =    0.0                 !
 ! A3    A(6,1,10)             119.85           -DE/DX =    0.0                 !
 ! A4    A(1,2,3)              119.7873         -DE/DX =    0.0                 !
 ! A5    A(1,2,11)             121.2086         -DE/DX =   -0.0001              !
 ! A6    A(3,2,11)             119.0041         -DE/DX =    0.0001              !
 ! A7    A(2,3,4)              120.8105         -DE/DX =    0.0001              !
 ! A8    A(2,3,9)              118.6276         -DE/DX =   -0.0002              !
 ! A9    A(4,3,9)              120.5619         -DE/DX =    0.0001              !
 ! A10   A(3,4,5)              118.5045         -DE/DX =   -0.0001              !
 ! A11   A(3,4,8)              120.7477         -DE/DX =    0.0                 !
 ! A12   A(5,4,8)              120.7478         -DE/DX =    0.0                 !
 ! A13   A(4,5,6)              120.8106         -DE/DX =    0.0001              !
 ! A14   A(4,5,7)              120.5621         -DE/DX =    0.0001              !
 ! A15   A(6,5,7)              118.6273         -DE/DX =   -0.0002              !
 ! A16   A(1,6,5)              119.7871         -DE/DX =    0.0                 !
 ! A17   A(1,6,12)             121.2089         -DE/DX =   -0.0001              !
 ! A18   A(5,6,12)             119.0039         -DE/DX =    0.0001              !
 ! D1    D(6,1,2,3)              0.0004         -DE/DX =    0.0                 !
 ! D2    D(6,1,2,11)           180.0002         -DE/DX =    0.0                 !
 ! D3    D(10,1,2,3)          -180.0            -DE/DX =    0.0                 !
 ! D4    D(10,1,2,11)           -0.0001         -DE/DX =    0.0                 !
 ! D5    D(2,1,6,5)             -0.0003         -DE/DX =    0.0                 !
 ! D6    D(2,1,6,12)          -180.0003         -DE/DX =    0.0                 !
 ! D7    D(10,1,6,5)           180.0            -DE/DX =    0.0                 !
 ! D8    D(10,1,6,12)            0.0            -DE/DX =    0.0                 !
 ! D9    D(1,2,3,4)             -0.0001         -DE/DX =    0.0                 !
 ! D10   D(1,2,3,9)            180.0            -DE/DX =    0.0                 !
 ! D11   D(11,2,3,4)           180.0            -DE/DX =    0.0                 !
 ! D12   D(11,2,3,9)             0.0001         -DE/DX =    0.0                 !
 ! D13   D(2,3,4,5)             -0.0002         -DE/DX =    0.0                 !
 ! D14   D(2,3,4,8)            180.0004         -DE/DX =    0.0                 !
 ! D15   D(9,3,4,5)           -180.0003         -DE/DX =    0.0                 !
 ! D16   D(9,3,4,8)              0.0003         -DE/DX =    0.0                 !
 ! D17   D(3,4,5,6)              0.0003         -DE/DX =    0.0                 !
 ! D18   D(3,4,5,7)            180.0003         -DE/DX =    0.0                 !
 ! D19   D(8,4,5,6)           -180.0004         -DE/DX =    0.0                 !
 ! D20   D(8,4,5,7)             -0.0003         -DE/DX =    0.0                 !
 ! D21   D(4,5,6,1)              0.0            -DE/DX =    0.0                 !
 ! D22   D(4,5,6,12)          -180.0            -DE/DX =    0.0                 !
 ! D23   D(7,5,6,1)           -180.0            -DE/DX =    0.0                 !
 ! D24   D(7,5,6,12)            -0.0001         -DE/DX =    0.0                 !
 --------------------------------------------------------------------------------
 GradGradGradGradGradGradGradGradGradGradGradGradGradGradGradGradGradGrad

                          Input orientation:                          
 ---------------------------------------------------------------------
 Center     Atomic      Atomic             Coordinates (Angstroms)
 Number     Number       Type             X           Y           Z
 ---------------------------------------------------------------------
      1          6           0        1.885389   -1.036218   -0.120381
      2          6           0        2.919218   -1.629409    0.594496
      3          6           0        2.875246   -1.649773    1.985384
      4          6           0        1.799615   -1.078665    2.677705
      5          6           0        0.767873   -0.485835    1.938442
      6          6           0        0.809175   -0.463997    0.547492
      7         17           0       -0.588416    0.236573    2.740464
      8         17           0        1.746766   -1.104816    4.401964
      9         17           0        4.180549   -2.397406    2.846701
     10          1           0        1.918634   -1.019766   -1.204892
     11          1           0        3.765968   -2.080243    0.088466
     12          1           0       -0.005416    0.002755    0.004459
 ---------------------------------------------------------------------
                    Distance matrix (angstroms):
                    1          2          3          4          5
     1  C    0.000000
     2  C    1.389866   0.000000
     3  C    2.406349   1.391731   0.000000
     4  C    2.799722   2.428289   1.400876   0.000000
     5  C    2.406349   2.782488   2.407899   1.400875   0.000000
     6  C    1.389866   2.410949   2.782490   2.428291   1.391734
     7  Cl   3.990506   4.515591   4.015645   2.726992   1.733388
     8  Cl   4.524989   4.018290   2.722188   1.725267   2.722189
     9  Cl   3.990509   2.693176   1.733389   2.726991   4.015644
    10  H    1.085145   2.147238   3.389672   3.884867   3.389672
    11  H    2.161060   1.084575   2.139389   3.402037   3.866926
    12  H    2.161063   3.400822   3.866928   3.402037   2.139389
                    6          7          8          9         10
     6  C    0.000000
     7  Cl   2.693174   0.000000
     8  Cl   4.018293   3.164330   0.000000
     9  Cl   4.515594   5.449051   3.164322   0.000000
    10  H    2.147237   4.840405   5.610134   4.840408   0.000000
    11  H    3.400820   5.600124   4.861574   2.807192   2.491993
    12  H    1.084574   2.807184   4.861575   5.600126   2.491996
                   11         12
    11  H    0.000000
    12  H    4.309208   0.000000
 Stoichiometry    C6H3Cl3
 Framework group  C1[X(C6H3Cl3)]
 Deg. of freedom    30
 Full point group                 C1      NOp   1
 Largest Abelian subgroup         C1      NOp   1
 Largest concise Abelian subgroup C1      NOp   1
                         Standard orientation:                         
 ---------------------------------------------------------------------
 Center     Atomic      Atomic             Coordinates (Angstroms)
 Number     Number       Type             X           Y           Z
 ---------------------------------------------------------------------
      1          6           0       -0.000008   -2.504534    0.000001
      2          6           0        1.205469   -1.812757   -0.000001
      3          6           0        1.203949   -0.421026    0.000002
      4          6           0        0.000001    0.295188    0.000006
      5          6           0       -1.203951   -0.421019    0.000002
      6          6           0       -1.205480   -1.812752   -0.000001
      7         17           0       -2.724525    0.411138   -0.000001
      8         17           0        0.000008    2.020455    0.000000
      9         17           0        2.724526    0.411128   -0.000001
     10          1           0       -0.000010   -3.589679    0.000000
     11          1           0        2.154596   -2.337600   -0.000004
     12          1           0       -2.154612   -2.337586   -0.000003
 ---------------------------------------------------------------------
 Rotational constants (GHZ):      1.4981082      0.8448729      0.5402139

 **********************************************************************

            Population analysis using the SCF density.

 **********************************************************************

 Orbital symmetries:
       Occupied  (A) (A) (A) (A) (A) (A) (A) (A) (A) (A) (A) (A)
                 (A) (A) (A) (A) (A) (A) (A) (A) (A) (A) (A) (A)
                 (A) (A) (A) (A) (A) (A) (A) (A) (A) (A) (A) (A)
                 (A) (A) (A) (A) (A) (A) (A) (A) (A)
[...]
    R5        2.04955   0.00000   0.00000  -0.00001  -0.00001   2.04954
    R6        2.64727  -0.00001   0.00000  -0.00011  -0.00011   2.64716
    R7        3.27563   0.00014   0.00000   0.00073   0.00073   3.27636
    R8        2.64727  -0.00001   0.00000  -0.00011  -0.00011   2.64716
    R9        3.26028  -0.00013   0.00000  -0.00068  -0.00068   3.25960
   R10        2.63000  -0.00004   0.00000  -0.00015  -0.00015   2.62985
   R11        3.27563   0.00014   0.00000   0.00073   0.00073   3.27636
   R12        2.04955   0.00000   0.00000  -0.00001  -0.00001   2.04954
    A1        2.09963  -0.00006   0.00000  -0.00026  -0.00026   2.09937
    A2        2.09178   0.00003   0.00000   0.00013   0.00013   2.09191
    A3        2.09178   0.00003   0.00000   0.00013   0.00013   2.09191
    A4        2.09068  -0.00001   0.00000  -0.00007  -0.00007   2.09062
    A5        2.11549  -0.00006   0.00000  -0.00046  -0.00046   2.11503
    A6        2.07701   0.00006   0.00000   0.00052   0.00052   2.07754
    A7        2.10854   0.00007   0.00000   0.00050   0.00050   2.10904
    A8        2.07044  -0.00015   0.00000  -0.00073  -0.00073   2.06971
    A9        2.10420   0.00008   0.00000   0.00023   0.00023   2.10443
   A10        2.06829  -0.00008   0.00000  -0.00061  -0.00061   2.06769
   A11        2.10744   0.00004   0.00000   0.00030   0.00030   2.10775
   A12        2.10745   0.00004   0.00000   0.00030   0.00030   2.10775
   A13        2.10854   0.00007   0.00000   0.00050   0.00050   2.10904
   A14        2.10421   0.00008   0.00000   0.00023   0.00023   2.10443
   A15        2.07044  -0.00015   0.00000  -0.00073  -0.00073   2.06971
   A16        2.09068  -0.00001   0.00000  -0.00006  -0.00006   2.09062
   A17        2.11550  -0.00006   0.00000  -0.00046  -0.00046   2.11503
   A18        2.07701   0.00006   0.00000   0.00053   0.00053   2.07754
    D1        0.00001   0.00000   0.00000  -0.00001  -0.00001   0.00000
    D2       -3.14159   0.00000   0.00000   0.00000   0.00000   3.14159
    D3       -3.14159   0.00000   0.00000   0.00000   0.00000  -3.14159
    D4        0.00000   0.00000   0.00000   0.00000   0.00000   0.00000
    D5       -0.00001   0.00000   0.00000   0.00001   0.00001   0.00000
    D6        3.14159   0.00000   0.00000   0.00001   0.00001  -3.14159
    D7        3.14159   0.00000   0.00000   0.00000   0.00000   3.14159
    D8        0.00000   0.00000   0.00000   0.00000   0.00000   0.00000
    D9        0.00000   0.00000   0.00000   0.00000   0.00000   0.00000
   D10        3.14159   0.00000   0.00000   0.00000   0.00000   3.14159
   D11       -3.14159   0.00000   0.00000   0.00000   0.00000  -3.14159
   D12        0.00000   0.00000   0.00000   0.00000   0.00000   0.00000
   D13        0.00000   0.00000   0.00000   0.00000   0.00000   0.00000
   D14       -3.14159   0.00000   0.00000  -0.00001  -0.00001   3.14159
   D15        3.14159   0.00000   0.00000   0.00001   0.00001  -3.14159
   D16        0.00001   0.00000   0.00000  -0.00001  -0.00001   0.00000
   D17        0.00000   0.00000   0.00000   0.00000   0.00000   0.00000
   D18       -3.14159   0.00000   0.00000  -0.00001  -0.00001   3.14159
   D19        3.14159   0.00000   0.00000   0.00001   0.00001  -3.14159
   D20       -0.00001   0.00000   0.00000   0.00001   0.00001   0.00000
   D21        0.00000   0.00000   0.00000   0.00000   0.00000   0.00000
   D22        3.14159   0.00000   0.00000   0.00000   0.00000   3.14159
   D23        3.14159   0.00000   0.00000   0.00000   0.00000  -3.14159
   D24        0.00000   0.00000   0.00000   0.00000   0.00000   0.00000
         Item               Value     Threshold  Converged?
 Maximum Force            0.000154     0.000450     YES
 RMS     Force            0.000056     0.000300     YES
 Maximum Displacement     0.000958     0.001800     YES
 RMS     Displacement     0.000324     0.001200     YES
 Predicted change in Energy=-4.407379D-07
 Optimization completed.
    -- Stationary point found.
                           ----------------------------
                           !   Optimized Parameters   !
                           ! (Angstroms and Degrees)  !
 --------------------------                            --------------------------
 ! Name  Definition              Value          Derivative Info.                !
 --------------------------------------------------------------------------------
 ! R1    R(1,2)                  1.3899         -DE/DX =    0.0001              !
 ! R2    R(1,6)                  1.3899         -DE/DX =    0.0001              !
 ! R3    R(1,10)                 1.0851         -DE/DX =    0.0                 !
 ! R4    R(2,3)                  1.3917         -DE/DX =    0.0                 !
 ! R5    R(2,11)                 1.0846         -DE/DX =    0.0                 !
 ! R6    R(3,4)                  1.4009         -DE/DX =    0.0                 !
 ! R7    R(3,9)                  1.7334         -DE/DX =    0.0001              !
 ! R8    R(4,5)                  1.4009         -DE/DX =    0.0                 !
 ! R9    R(4,8)                  1.7253         -DE/DX =   -0.0001              !
 ! R10   R(5,6)                  1.3917         -DE/DX =    0.0                 !
 ! R11   R(5,7)                  1.7334         -DE/DX =    0.0001              !
 ! R12   R(6,12)                 1.0846         -DE/DX =    0.0                 !
 ! A1    A(2,1,6)              120.3            -DE/DX =   -0.0001              !
 ! A2    A(2,1,10)             119.85           -DE/DX =    0.0                 !
 ! A3    A(6,1,10)             119.85           -DE/DX =    0.0                 !
 ! A4    A(1,2,3)              119.7873         -DE/DX =    0.0                 !
 ! A5    A(1,2,11)             121.2086         -DE/DX =   -0.0001              !
 ! A6    A(3,2,11)             119.0041         -DE/DX =    0.0001              !
 ! A7    A(2,3,4)              120.8105         -DE/DX =    0.0001              !
 ! A8    A(2,3,9)              118.6276         -DE/DX =   -0.0002              !
 ! A9    A(4,3,9)              120.5619         -DE/DX =    0.0001              !
 ! A10   A(3,4,5)              118.5045         -DE/DX =   -0.0001              !
 ! A11   A(3,4,8)              120.7477         -DE/DX =    0.0                 !
 ! A12   A(5,4,8)              120.7478         -DE/DX =    0.0                 !
 ! A13   A(4,5,6)              120.8106         -DE/DX =    0.0001              !
 ! A14   A(4,5,7)              120.5621         -DE/DX =    0.0001              !
 ! A15   A(6,5,7)              118.6273         -DE/DX =   -0.0002              !
 ! A16   A(1,6,5)              119.7871         -DE/DX =    0.0                 !
 ! A17   A(1,6,12)             121.2089         -DE/DX =   -0.0001              !
 ! A18   A(5,6,12)             119.0039         -DE/DX =    0.0001              !
 ! D1    D(6,1,2,3)              0.0004         -DE/DX =    0.0                 !
 ! D2    D(6,1,2,11)           180.0002         -DE/DX =    0.0                 !
 ! D3    D(10,1,2,3)          -180.0            -DE/DX =    0.0                 !
 ! D4    D(10,1,2,11)           -0.0001         -DE/DX =    0.0                 !
 ! D5    D(2,1,6,5)             -0.0003         -DE/DX =    0.0                 !
 ! D6    D(2,1,6,12)          -180.0003         -DE/DX =    0.0                 !
 ! D7    D(10,1,6,5)           180.0            -DE/DX =    0.0                 !
 ! D8    D(10,1,6,12)            0.0            -DE/DX =    0.0                 !
 ! D9    D(1,2,3,4)             -0.0001         -DE/DX =    0.0                 !
 ! D10   D(1,2,3,9)            180.0            -DE/DX =    0.0                 !
 ! D11   D(11,2,3,4)          -180.0            -DE/DX =    0.0                 !
 ! D12   D(11,2,3,9)             0.0001         -DE/DX =    0.0                 !
 ! D13   D(2,3,4,5)             -0.0002         -DE/DX =    0.0                 !
 ! D14   D(2,3,4,8)            180.0004         -DE/DX =    0.0                 !
 ! D15   D(9,3,4,5)           -180.0003         -DE/DX =    0.0                 !
 ! D16   D(9,3,4,8)              0.0003         -DE/DX =    0.0                 !
 ! D17   D(3,4,5,6)              0.0003         -DE/DX =    0.0                 !
 ! D18   D(3,4,5,7)            180.0003         -DE/DX =    0.0                 !
 ! D19   D(8,4,5,6)           -180.0004         -DE/DX =    0.0                 !
 ! D20   D(8,4,5,7)             -0.0003         -DE/DX =    0.0                 !
 ! D21   D(4,5,6,1)              0.0            -DE/DX =    0.0                 !
 ! D22   D(4,5,6,12)           180.0            -DE/DX =    0.0                 !
 ! D23   D(7,5,6,1)           -180.0            -DE/DX =    0.0                 !
 ! D24   D(7,5,6,12)            -0.0001         -DE/DX =    0.0                 !
 --------------------------------------------------------------------------------
 GradGradGradGradGradGradGradGradGradGradGradGradGradGradGradGradGradGrad

 1\1\GINC-KATANA2\Freq\RM062X\6-31+G(d)\C6H3Cl3\Z5358697\16-Mar-2025\0\
 \#N Geom=AllCheck Guess=TCheck SCRF=Check GenChk RM062X/6-31+G(d) Freq
 \\1,2,3-trichlorobenzene\\0,1\C,1.8853887216,-1.0362178594,-0.12038093
 91\C,2.9192181027,-1.6294087756,0.5944963013\C,2.8752461169,-1.6497732
 284,1.9853839002\C,1.7996153019,-1.0786653624,2.6777049796\C,0.7678726
 025,-0.4858352479,1.9384418342\C,0.809174877,-0.4639970662,0.547492194
 1\Cl,-0.5884162332,0.2365734072,2.7404638212\Cl,1.7467661895,-1.104815
 9522,4.4019642619\Cl,4.1805485895,-2.3974063271,2.8467005225\H,1.91863
 4046,-1.0197659533,-1.2048916879\H,3.765967659,-2.0802428623,0.0884660
 843\H,-0.0054159756,0.0027552288,0.0044587277\\Version=ES64L-G09RevD.0
 1\State=1-A\HF=-1610.8450405\RMSD=2.855e-09\RMSF=1.114e-04\ZeroPoint=0
 .0725327\Thermal=0.0803698\Dipole=0.033316,0.0164877,-1.086843\DipoleD
 eriv=0.0319385,-0.0758158,-0.0021453,-0.0758157,-0.0636758,-0.0042688,
 -0.0021445,-0.0042668,0.0642703,-0.1486575,0.0236474,-0.0588487,0.0258
 032,-0.1244957,0.0327757,-0.1260981,0.0698681,-0.1189617,0.6708988,-0.
 3914663,0.3367517,-0.3942828,0.2043582,-0.1896054,0.4245396,-0.2380236
 ,0.1007122,-0.2970561,0.17613,-0.0342902,0.1761298,-0.0765915,-0.00954
 08,-0.0342953,-0.0095509,0.90777,0.7160432,-0.3955826,-0.3113338,-0.39
 27655,0.1920217,0.1689326,-0.3991174,0.21736,0.0679016,-0.1599029,0.02
 6127,0.0571869,0.0239705,-0.1214224,-0.0314923,0.1244349,-0.0685887,-0
 .110788,-0.5055905,0.2514292,0.2160968,0.2507221,-0.171802,-0.1155116,
 0.2381614,-0.1276831,-0.1521632,0.0058966,-0.0135232,0.0200846,-0.0135
 23,-0.0102931,0.0093773,0.020086,0.0093824,-0.6553387,-0.4769514,0.249
 8975,-0.2286503,0.2506043,-0.1796276,0.1304795,-0.2507146,0.1426497,-0
 .1729761,0.07473,0.0379847,0.004394,0.0379846,0.1227742,0.0037829,0.00
 43932,0.0037819,-0.0496002,0.0428315,0.0555812,0.0262126,0.0556773,0.1
 14785,-0.0117503,0.0232412,-0.010111,0.0606721,0.0458199,0.0555909,-0.
 0254583,0.0554951,0.1139687,0.0168213,-0.0224863,0.015182,0.0585016\Po
 lar=110.8080803,-30.4795211,72.3742919,-0.7415464,-1.6555345,119.87159
 3\PG=C01 [X(C6H3Cl3)]\NImag=0\\0.57383691,-0.24174379,0.26885380,-0.00
 945373,-0.01490005,0.76209345,-0.24684576,0.10624945,-0.12229400,0.619
 16722,0.10405621,-0.12103341,0.07167636,-0.26941164,0.27787021,-0.0539
 2634,0.03396465,-0.19286224,-0.02735846,-0.00329225,0.70221943,0.03486
 521,-0.01531996,-0.02118159,-0.10370270,0.02412896,-0.01572089,0.45986
 740,-0.01344314,0.01286479,0.01278782,0.02190070,-0.07352443,0.0177907
 6,-0.18715263,0.22080439,-0.07968591,0.04505904,-0.02855921,0.05374008
 ,-0.02052389,-0.34513873,-0.04667918,0.00905979,0.63809485,-0.06340387
 ,0.03357586,-0.00143310,0.02898522,-0.01509801,0.07697420,-0.21921704,
 0.08603087,0.04911946,0.51784043,0.03357588,-0.02116075,0.00070886,-0.
 01330139,0.01476083,-0.04156411,0.08386499,-0.10587984,-0.02412748,-0.
 22145201,0.23863667,-0.00143303,0.00070883,-0.00007245,0.02096853,-0.0
 1067125,-0.02180787,0.11664366,-0.06137390,-0.15287519,-0.00442646,-0.
 01155356,0.55240340,0.02848547,-0.01325997,0.02430189,-0.01460703,0.00
 731948,-0.02909064,-0.04370646,0.02603188,0.02794587,-0.20899007,0.085
 73874,-0.11759555,0.45517636,-0.01513679,0.01460863,-0.01244968,0.0073
 4478,-0.00765877,0.01802255,0.02803528,-0.00978439,-0.01770912,0.08357
 286,-0.10867664,0.06807146,-0.18702045,0.22208960,0.08280617,-0.044720
 66,-0.02392318,-0.02987732,0.01845630,-0.06462674,-0.03450964,0.016741
 46,0.07662553,-0.05007134,0.03082489,-0.16030868,0.02980231,-0.0332366
 3,0.64149823,-0.25761455,0.10436661,0.12161221,-0.04230081,0.02818267,
 -0.02747389,-0.01841441,0.00742879,0.03297039,0.03481030,-0.01526539,-
 0.01797647,-0.10232678,0.02408947,-0.03814871,0.61663426,0.10655986,-0
 .11809128,-0.06311380,0.02662139,-0.00790855,0.01302346,0.00745411,-0.
 00661809,-0.01629940,-0.01346876,0.01316867,0.01094670,0.02186120,-0.0
 7390118,0.03019384,-0.26934156,0.27856562,0.05324480,-0.02540215,-0.18
 503641,0.02119138,-0.01382041,0.07363125,0.03218378,-0.01586530,-0.061
 85986,-0.07398210,0.04183949,-0.02604072,0.03131224,-0.00812116,-0.346
 13170,0.01393384,-0.02612794,0.70405235,0.00451255,0.00009251,0.000729
 89,-0.00196686,0.00064846,0.00036491,0.00188763,0.00130351,-0.00389786
 ,-0.02848154,0.01726059,0.01741944,-0.11935765,0.05241061,0.05042457,-
 0.01404804,0.00997047,0.01286302,0.16350262,0.00025493,0.00458639,-0.0
 0013393,0.00060513,-0.00109556,-0.00025764,0.00120235,0.00328541,0.002
 35102,0.01792860,-0.00576141,-0.00951325,0.05228906,-0.04941103,-0.026
 27337,0.00926652,-0.00013306,-0.00632818,-0.08274694,0.05343055,-0.004
 33318,0.00265888,-0.00365284,0.00171615,-0.00100297,0.00098659,-0.0007
 4441,0.00061154,-0.00223951,-0.00340493,0.00197357,0.00084765,0.054213
 50,-0.02836330,-0.06945689,0.03480741,-0.01843283,-0.01913828,-0.07633
 202,0.03946242,0.09143987,0.00018579,-0.00042818,0.00006490,-0.0021051
 5,0.00337762,-0.00024119,0.00049449,0.00118396,0.02116929,-0.03663768,
 0.00713202,0.00465409,0.00173995,0.00177634,-0.01871831,-0.00188437,0.
 00324725,0.00002728,-0.00413584,0.00186499,-0.00799416,0.04640829,-0.0
 0042817,-0.00035094,0.00001406,0.00325356,0.00220437,0.00015844,0.0018
 1214,0.00320412,-0.01034578,0.00713202,-0.02745511,0.00260743,0.001148
 15,0.00286371,0.01168534,0.00337131,0.00214403,0.00001550,0.00164993,-
 0.00226969,0.00436225,-0.01930823,0.02179381,0.00006492,0.00001407,-0.
 00214163,0.00362524,-0.00197431,0.00321221,0.00158297,0.00045800,-0.03
 762972,0.00465427,0.00260754,-0.18478566,0.00086802,0.00088140,-0.0385
 3464,-0.00383916,0.00214821,0.00305186,-0.00128975,0.00066407,0.000257
 14,-0.00679773,-0.00418400,0.25836760,0.00426122,0.00026217,-0.0002365
 7,-0.01116975,0.00918368,-0.01210672,-0.11286892,0.05210176,-0.0515543
 7,-0.02754749,0.01790167,-0.01863549,0.00158587,0.00121100,0.00417348,
 -0.00182967,0.00060118,-0.00051993,-0.00149894,0.00084087,-0.00024612,
 -0.00469040,0.00188101,0.00104441,0.15405067,0.00009976,0.00465511,0.0
 0039332,0.00988763,-0.00091967,0.00751228,0.05222330,-0.05118371,0.030
 12969,0.01723367,-0.00601659,0.01039652,0.00131215,0.00336787,-0.00210
 818,0.00064451,-0.00113304,0.00023364,0.00082822,-0.00044954,0.0001195
 8,0.00166595,-0.00211813,-0.00063638,-0.08247434,0.05601299,0.00482645
 ,-0.00239945,-0.00347015,-0.03405110,0.01961676,-0.02122964,-0.0553433
 8,0.03221978,-0.07417247,0.00218876,-0.00109014,0.00016854,0.00102000,
 -0.00036875,-0.00202021,-0.00187115,0.00097899,0.00088686,0.00014785,-
 0.00009773,0.00051558,0.00774902,-0.00433464,0.00066004,0.07774178,-0.
 04574536,0.09830894,-0.05468311,0.00898739,0.00914440,0.00520452,-0.00
 004128,-0.02423614,-0.00099405,0.00445048,-0.00183922,-0.00142006,0.00
 038694,-0.00005525,-0.00122727,0.00446070,0.00185437,0.00380701,-0.000
 85429,0.02513798,-0.00057147,0.00028143,0.00118364,0.00000247,-0.00028
 566,-0.00000496,-0.00048538,0.00030952,-0.00117242,0.05101963,0.008987
 39,-0.04297305,0.00491091,-0.00089442,0.00376962,0.01383819,0.00445396
 ,0.00447158,0.00121345,0.00038693,-0.00093488,-0.00001102,0.00445723,0
 .00453534,-0.00082938,-0.00000114,0.00415166,-0.01342925,0.00031200,-0
 .00014414,-0.00063554,-0.00028565,-0.00035765,-0.00001453,0.00027896,-
 0.00016766,0.00066607,-0.01340388,0.03371360,0.00914432,0.00491082,-0.
 34818159,0.00235847,-0.00083138,-0.01091703,-0.00194800,0.00127345,0.0
 0076565,-0.00005525,-0.00001103,0.00057195,0.00196314,-0.00088938,0.00
 093517,-0.00145657,0.00124043,-0.00990149,0.00023081,-0.00010996,-0.00
 053361,-0.00000496,-0.00001453,0.00002266,-0.00021959,0.00014049,-0.00
 059616,-0.00988821,-0.00546603,0.36656740,-0.01178249,0.00819475,0.011
 98463,-0.22984768,0.10357247,0.10953431,0.00190007,0.00058630,-0.00218
 834,0.00208304,0.00206589,-0.00027040,-0.00001054,-0.00042202,-0.00084
 519,-0.00043028,0.00407674,-0.00312712,-0.00005619,-0.00020454,0.00009
 351,0.00029527,-0.00009391,-0.00027607,0.00024364,-0.00152958,-0.00112
 003,-0.00033714,-0.00213921,-0.00007437,0.23850513,0.00902224,-0.00098
 444,-0.00690322,0.10365709,-0.09103860,-0.05763504,-0.00028337,0.00293
 813,0.00167947,0.00208913,0.00464528,0.00046678,-0.00042537,-0.0006054
 9,0.00047810,0.00407040,0.00446981,0.00198223,-0.00020062,-0.00030861,
 -0.00007187,-0.00013125,0.00017511,0.00019519,-0.00158324,-0.00173756,
 0.00051078,-0.00215151,-0.00302920,-0.00011492,-0.11446081,0.08556629,
 -0.01381092,0.00732557,0.01289036,0.10689728,-0.05618038,-0.12250149,0
 .02492032,-0.01327373,-0.01188709,-0.00099191,0.00086472,-0.00408834,-
 0.00074168,0.00042108,-0.00119741,-0.00293001,0.00187350,-0.00124262,-
 0.00002865,-0.00000448,0.00021077,0.00088781,-0.00044682,-0.00122833,0
 .00055275,-0.00041192,0.00074181,0.00030896,-0.00032637,0.00064153,-0.
 11436013,0.05978331,0.12714746,-0.01181737,0.00902315,-0.01323894,-0.0
 0081123,0.00408139,0.00328085,-0.00011122,-0.00042247,0.00089979,0.001
 97875,0.00209209,0.00070691,0.00323815,-0.00032176,0.00310962,-0.21640
 267,0.10327240,-0.11226516,0.00021373,-0.00158239,0.00104061,0.0003271
 7,-0.00013216,0.00036785,-0.00005085,-0.00020078,-0.00011577,-0.000315
 16,-0.00215216,-0.00004980,-0.00056281,0.00039730,-0.00070382,0.224313
 51,0.00819563,-0.00097485,0.00700934,0.00408773,0.00457395,-0.00156129
 ,-0.00041912,-0.00057798,-0.00048679,0.00206885,0.00467376,-0.00007475
 ,0.00054790,0.00257234,-0.00121172,0.10318781,-0.09471459,0.06502352,-
 0.00152872,-0.00172933,-0.00068173,-0.00009482,0.00016638,-0.00015926,
 -0.00020470,-0.00031006,0.00004370,-0.00213985,-0.00303522,-0.00012796
 ,0.00035391,-0.00009073,0.00037551,-0.11405461,0.08944632,0.01255644,-
 0.00721954,0.01291591,0.00308374,-0.00145257,-0.00096574,0.00079636,-0
 .00042966,-0.00112423,0.00142840,-0.00047275,-0.00401262,-0.02399909,0
 .01374152,-0.01285947,-0.10962788,0.06356885,-0.13227124,-0.00063222,0
 .00024102,0.00076353,-0.00079604,0.00048274,-0.00125152,0.00000638,-0.
 00002368,0.00020688,-0.00043315,0.00008350,0.00062553,0.00064920,-0.00
 037082,0.00051336,0.11696787,-0.06814859,0.13745960\\-0.00000540,-0.00
 000351,0.00018312,-0.00014702,0.00008717,-0.00017364,0.00026110,-0.000
 14628,0.00007260,0.00000473,0.00000226,-0.00018109,-0.00026464,0.00014
 414,0.00006309,0.00015678,-0.00008070,-0.00016909,0.00013569,-0.000074
 82,-0.00000037,-0.00000339,-0.00000185,0.00012589,-0.00013540,0.000074
 89,-0.00000558,0.00000068,0.00000041,-0.00002343,0.00002056,-0.0000130
 8,0.00005448,-0.00002370,0.00001138,0.00005402\\\@


 THE MORE PROGRESS PHYSICAL SCIENCES MAKE, THE MORE THEY TEND TO ENTER
 THE DOMAIN OF MATHEMATICS, WHICH IS A KIND OF CENTRE TO WHICH THEY ALL
 CONVERGE.  WE MAY EVEN JUDGE THE DEGREE OF PERFECTION TO WHICH A 
 SCIENCE HAS ARRIVED BY THE FACILITY WITH WHICH IT MAY BE SUBMITTED
 TO CALCULATION.

                               -- ADOLPHE QUETELET, 1796-1874
 Job cpu time:       0 days  0 hours  5 minutes 54.4 seconds.
 File lengths (MBytes):  RWF=    134 Int=      0 D2E=      0 Chk=      4 Scr=      2
 Normal termination of Gaussian 09 at Sun Mar 16 20:42:21 2025.
