 Entering Gaussian System, Link 0=g09
 Initial command:
 /apps/z_install_tree/linux-rocky8-ivybridge/gcc-12.2.0/gaussian-09-D.01-wczn3gur5lpur3omlkzwa2l5ecyxp5ef/g09/l1.exe "/srv/scratch/z5358697/gauss/Gau-2427616.inp" -scrdir="/srv/scratch/z5358697/gauss/"
 Entering Link 1 = /apps/z_install_tree/linux-rocky8-ivybridge/gcc-12.2.0/gaussian-09-D.01-wczn3gur5lpur3omlkzwa2l5ecyxp5ef/g09/l1.exe PID=   2427618.
  
 Copyright (c) 1988,1990,1992,1993,1995,1998,2003,2009,2013,
            Gaussian, Inc.  All Rights Reserved.
  
 This is part of the Gaussian(R) 09 program.  It is based on
 the Gaussian(R) 03 system (copyright 2003, Gaussian, Inc.),
 the Gaussian(R) 98 system (copyright 1998, Gaussian, Inc.),
 the Gaussian(R) 94 system (copyright 1995, Gaussian, Inc.),
 the Gaussian 92(TM) system (copyright 1992, Gaussian, Inc.),
 the Gaussian 90(TM) system (copyright 1990, Gaussian, Inc.),
 the Gaussian 88(TM) system (copyright 1988, Gaussian, Inc.),
 the Gaussian 86(TM) system (copyright 1986, Carnegie Mellon
 University), and the Gaussian 82(TM) system (copyright 1983,
 Carnegie Mellon University). Gaussian is a federally registered
 trademark of Gaussian, Inc.
  
 This software contains proprietary and confidential information,
 including trade secrets, belonging to Gaussian, Inc.
  
 This software is provided under written license and may be
 used, copied, transmitted, or stored only in accord with that
 written license.
  
 The following legend is applicable only to US Government
 contracts under FAR:
  
                    RESTRICTED RIGHTS LEGEND
  
 Use, reproduction and disclosure by the US Government is
 subject to restrictions as set forth in subparagraphs (a)
 and (c) of the Commercial Computer Software - Restricted
 Rights clause in FAR 52.227-19.
  
 Gaussian, Inc.
 340 Quinnipiac St., Bldg. 40, Wallingford CT 06492
  
  
 ---------------------------------------------------------------
 Warning -- This program may not be used in any manner that
 competes with the business of Gaussian, Inc. or will provide
 assistance to any competitor of Gaussian, Inc.  The licensee
 of this program is prohibited from giving any competitor of
 Gaussian, Inc. access to this program.  By using this program,
 the user acknowledges that Gaussian, Inc. is engaged in the
 business of creating and licensing software in the field of
 computational chemistry and represents and warrants to the
 licensee that it is not a competitor of Gaussian, Inc. and that
 it will not use this program in any manner prohibited above.
 ---------------------------------------------------------------
  

 Cite this work as:
 Gaussian 09, Revision D.01,
 M. J. Frisch, G. W. Trucks, H. B. Schlegel, G. E. Scuseria, 
 M. A. Robb, J. R. Cheeseman, G. Scalmani, V. Barone, B. Mennucci, 
 G. A. Petersson, H. Nakatsuji, M. Caricato, X. Li, H. P. Hratchian, 
 A. F. Izmaylov, J. Bloino, G. Zheng, J. L. Sonnenberg, M. Hada, 
 M. Ehara, K. Toyota, R. Fukuda, J. Hasegawa, M. Ishida, T. Nakajima, 
 Y. Honda, O. Kitao, H. Nakai, T. Vreven, J. A. Montgomery, Jr., 
 J. E. Peralta, F. Ogliaro, M. Bearpark, J. J. Heyd, E. Brothers, 
 K. N. Kudin, V. N. Staroverov, T. Keith, R. Kobayashi, J. Normand, 
 K. Raghavachari, A. Rendell, J. C. Burant, S. S. Iyengar, J. Tomasi, 
 M. Cossi, N. Rega, J. M. Millam, M. Klene, J. E. Knox, J. B. Cross, 
 V. Bakken, C. Adamo, J. Jaramillo, R. Gomperts, R. E. Stratmann, 
 O. Yazyev, A. J. Austin, R. Cammi, C. Pomelli, J. W. Ochterski, 
 R. L. Martin, K. Morokuma, V. G. Zakrzewski, G. A. Voth, 
 P. Salvador, J. J. Dannenberg, S. Dapprich, A. D. Daniels, 
 O. Farkas, J. B. Foresman, J. V. Ortiz, J. Cioslowski, 
 and D. J. Fox, Gaussian, Inc., Wallingford CT, 2013.
 
 ******************************************
 Gaussian 09:  ES64L-G09RevD.01 24-Apr-2013
                16-Mar-2025 
 ******************************************
 ---------------------------------
 #m062X/6-31+G(d) OPT Freq=noraman
 ---------------------------------
 1/14=-1,18=20,19=15,26=3,38=1/1,3;
 2/9=110,12=2,17=6,18=5,40=1/2;
 3/5=1,6=6,7=11,11=2,16=1,25=1,30=1,71=1,74=-55/1,2,3;
 4//1;
 5/5=2,38=5/2;
 6/7=2,8=2,9=2,10=2,28=1/1;
 7//1,2,3,16;
 1/14=-1,18=20,19=15,26=3/3(2);
 2/9=110/2;
 99//99;
 2/9=110/2;
 3/5=1,6=6,7=11,11=2,16=1,25=1,30=1,71=1,74=-55/1,2,3;
 4/5=5,16=3,69=1/1;
 5/5=2,38=5/2;
 7//1,2,3,16;
 1/14=-1,18=20,19=15,26=3/3(-5);
 2/9=110/2;
 6/7=2,8=2,9=2,10=2,19=2,28=1/1;
 99/9=1/99;
 --------------------------
 1,2,3,4-tetrachlorobenzene
 --------------------------
 Symbolic Z-matrix:
 Charge =  0 Multiplicity = 1
 C                     1.8851   -1.0363   -0.1124 
 C                     2.921    -1.6309    0.6081 
 C                     2.8783   -1.652     2.0022 
 C                     1.7997   -1.0786    2.6757 
 C                     0.7638   -0.4841    1.9551 
 C                     0.8066   -0.463     0.561 
 Cl                   -0.4385    0.2554   -0.4029 
 Cl                   -0.5863    0.2364    2.7836 
 Cl                    1.7591   -1.1115    4.4155 
 Cl                    4.2004   -2.4091    2.8236 
 H                     1.9348   -1.0287   -1.1984 
 H                     3.7536   -2.0728    0.0661 
 

 GradGradGradGradGradGradGradGradGradGradGradGradGradGradGradGradGradGrad
 Berny optimization.
 Initialization pass.
                           ----------------------------
                           !    Initial Parameters    !
                           ! (Angstroms and Degrees)  !
 --------------------------                            --------------------------
 ! Name  Definition              Value          Derivative Info.                !
 --------------------------------------------------------------------------------
 ! R1    R(1,2)                  1.3949         estimate D2E/DX2                !
 ! R2    R(1,6)                  1.3947         estimate D2E/DX2                !
 ! R3    R(1,11)                 1.0872         estimate D2E/DX2                !
 ! R4    R(2,3)                  1.3949         estimate D2E/DX2                !
 ! R5    R(2,12)                 1.0873         estimate D2E/DX2                !
 ! R6    R(3,4)                  1.3949         estimate D2E/DX2                !
 ! R7    R(3,10)                 1.7309         estimate D2E/DX2                !
 ! R8    R(4,5)                  1.3949         estimate D2E/DX2                !
 ! R9    R(4,9)                  1.7406         estimate D2E/DX2                !
 ! R10   R(5,6)                  1.3949         estimate D2E/DX2                !
 ! R11   R(5,8)                  1.7402         estimate D2E/DX2                !
 ! R12   R(6,7)                  1.7307         estimate D2E/DX2                !
 ! A1    A(2,1,6)              120.0052         estimate D2E/DX2                !
 ! A2    A(2,1,11)             119.0125         estimate D2E/DX2                !
 ! A3    A(6,1,11)             120.9823         estimate D2E/DX2                !
 ! A4    A(1,2,3)              119.9958         estimate D2E/DX2                !
 ! A5    A(1,2,12)             118.9749         estimate D2E/DX2                !
 ! A6    A(3,2,12)             121.0293         estimate D2E/DX2                !
 ! A7    A(2,3,4)              119.9999         estimate D2E/DX2                !
 ! A8    A(2,3,10)             117.2273         estimate D2E/DX2                !
 ! A9    A(4,3,10)             122.7728         estimate D2E/DX2                !
 ! A10   A(3,4,5)              119.9999         estimate D2E/DX2                !
 ! A11   A(3,4,9)              119.5298         estimate D2E/DX2                !
 ! A12   A(5,4,9)              120.4703         estimate D2E/DX2                !
 ! A13   A(4,5,6)              119.9967         estimate D2E/DX2                !
 ! A14   A(4,5,8)              120.4418         estimate D2E/DX2                !
 ! A15   A(6,5,8)              119.5615         estimate D2E/DX2                !
 ! A16   A(1,6,5)              120.0026         estimate D2E/DX2                !
 ! A17   A(1,6,7)              117.2588         estimate D2E/DX2                !
 ! A18   A(5,6,7)              122.7386         estimate D2E/DX2                !
 ! D1    D(6,1,2,3)             -0.0063         estimate D2E/DX2                !
 ! D2    D(6,1,2,12)           179.9987         estimate D2E/DX2                !
 ! D3    D(11,1,2,3)           179.9878         estimate D2E/DX2                !
 ! D4    D(11,1,2,12)           -0.0072         estimate D2E/DX2                !
 ! D5    D(2,1,6,5)              0.004          estimate D2E/DX2                !
 ! D6    D(2,1,6,7)            179.9813         estimate D2E/DX2                !
 ! D7    D(11,1,6,5)          -179.99           estimate D2E/DX2                !
 ! D8    D(11,1,6,7)            -0.0127         estimate D2E/DX2                !
 ! D9    D(1,2,3,4)              0.0043         estimate D2E/DX2                !
 ! D10   D(1,2,3,10)           179.9554         estimate D2E/DX2                !
 ! D11   D(12,2,3,4)           179.9992         estimate D2E/DX2                !
 ! D12   D(12,2,3,10)           -0.0496         estimate D2E/DX2                !
 ! D13   D(2,3,4,5)              0.0            estimate D2E/DX2                !
 ! D14   D(2,3,4,9)           -179.9857         estimate D2E/DX2                !
 ! D15   D(10,3,4,5)          -179.9483         estimate D2E/DX2                !
 ! D16   D(10,3,4,9)             0.0659         estimate D2E/DX2                !
 ! D17   D(3,4,5,6)             -0.0023         estimate D2E/DX2                !
 ! D18   D(3,4,5,8)           -179.9231         estimate D2E/DX2                !
 ! D19   D(9,4,5,6)            179.9833         estimate D2E/DX2                !
 ! D20   D(9,4,5,8)              0.0625         estimate D2E/DX2                !
 ! D21   D(4,5,6,1)              0.0003         estimate D2E/DX2                !
 ! D22   D(4,5,6,7)           -179.9757         estimate D2E/DX2                !
 ! D23   D(8,5,6,1)            179.9218         estimate D2E/DX2                !
 ! D24   D(8,5,6,7)             -0.0542         estimate D2E/DX2                !
 --------------------------------------------------------------------------------
 Trust Radius=3.00D-01 FncErr=1.00D-07 GrdErr=1.00D-06
 Number of steps in this run=     64 maximum allowed number of steps=    100.
 GradGradGradGradGradGradGradGradGradGradGradGradGradGradGradGradGradGrad

                          Input orientation:                          
 ---------------------------------------------------------------------
 Center     Atomic      Atomic             Coordinates (Angstroms)
 Number     Number       Type             X           Y           Z
 ---------------------------------------------------------------------
      1          6           0        1.885100   -1.036300   -0.112400
      2          6           0        2.921000   -1.630900    0.608100
      3          6           0        2.878300   -1.652000    2.002200
      4          6           0        1.799700   -1.078600    2.675700
      5          6           0        0.763800   -0.484100    1.955100
      6          6           0        0.806600   -0.463000    0.561000
      7         17           0       -0.438500    0.255400   -0.402900
      8         17           0       -0.586300    0.236400    2.783600
      9         17           0        1.759100   -1.111500    4.415500
     10         17           0        4.200400   -2.409100    2.823600
     11          1           0        1.934800   -1.028700   -1.198400
     12          1           0        3.753600   -2.072800    0.066100
 ---------------------------------------------------------------------
                    Distance matrix (angstroms):
                    1          2          3          4          5
     1  C    0.000000
     2  C    1.394904   0.000000
     3  C    2.416002   1.394913   0.000000
     4  C    2.789728   2.416054   1.394908   0.000000
     5  C    2.415946   2.789816   2.416054   1.394913   0.000000
     6  C    1.394741   2.415967   2.789753   2.416023   1.394916
     7  Cl   2.674322   3.983276   4.519275   4.033221   2.748190
     8  Cl   4.014274   4.529985   4.022449   2.726511   1.740202
     9  Cl   4.530277   4.014484   2.714547   1.740585   2.727237
    10  Cl   3.983126   2.674117   1.730851   2.748721   4.033626
    11  H    1.087163   2.144453   3.394486   3.876776   3.407696
    12  H    2.144175   1.087319   2.166035   3.408250   3.877008
                    6          7          8          9         10
     6  C    0.000000
     7  Cl   1.730744   0.000000
     8  Cl   2.714642   3.189982   0.000000
     9  Cl   4.023056   5.469446   3.159246   0.000000
    10  Cl   4.519352   6.247340   5.469257   3.190275   0.000000
    11  H    2.165258   2.813234   4.879831   5.617259   4.818188
    12  H    3.394288   4.818109   5.617112   4.880513   2.813634
                   11         12
    11  H    0.000000
    12  H    2.448906   0.000000
 Stoichiometry    C6H2Cl4
 Framework group  C1[X(C6H2Cl4)]
 Deg. of freedom    30
 Full point group                 C1      NOp   1
 Largest Abelian subgroup         C1      NOp   1
 Largest concise Abelian subgroup C1      NOp   1
                         Standard orientation:                         
 ---------------------------------------------------------------------
 Center     Atomic      Atomic             Coordinates (Angstroms)
 Number     Number       Type             X           Y           Z
 ---------------------------------------------------------------------
      1          6           0        0.697444   -2.009228    0.000325
      2          6           0       -0.697460   -2.009210    0.000695
      3          6           0       -1.394813   -0.801120    0.000471
      4          6           0       -0.697253    0.406844   -0.000214
      5          6           0        0.697660    0.406718   -0.000675
      6          6           0        1.394939   -0.801419   -0.000402
      7         17           0        3.123694   -0.884370   -0.000322
      8         17           0        1.579492    1.906942    0.000484
      9         17           0       -1.579753    1.907120   -0.000109
     10         17           0       -3.123646   -0.884699   -0.000238
     11          1           0        1.224706   -2.959974    0.000709
     12          1           0       -1.224199   -2.960424    0.001240
 ---------------------------------------------------------------------
 Rotational constants (GHZ):      1.1415629      0.5434294      0.3681672
 Standard basis: 6-31+G(d) (6D, 7F)
 There are   210 symmetry adapted cartesian basis functions of A   symmetry.
 There are   210 symmetry adapted basis functions of A   symmetry.
   210 basis functions,   424 primitive gaussians,   210 cartesian basis functions
    53 alpha electrons       53 beta electrons
       nuclear repulsion energy       847.4800065319 Hartrees.
 NAtoms=   12 NActive=   12 NUniq=   12 SFac= 1.00D+00 NAtFMM=   60 NAOKFM=F Big=F
 Integral buffers will be    131072 words long.
 Raffenetti 2 integral format.
 Two-electron integral symmetry is turned on.
 One-electron integrals computed using PRISM.
 NBasis=   210 RedAO= T EigKep=  4.50D-06  NBF=   210
 NBsUse=   208 1.00D-06 EigRej=  9.35D-07 NBFU=   208
 ExpMin= 4.38D-02 ExpMax= 2.52D+04 ExpMxC= 3.78D+03 IAcc=2 IRadAn=         4 AccDes= 0.00D+00
 Harris functional with IExCor= 1009 and IRadAn=       4 diagonalized for initial guess.
 HarFok:  IExCor= 1009 AccDes= 0.00D+00 IRadAn=         4 IDoV= 1 UseB2=F ITyADJ=14
 ICtDFT=  3500011 ScaDFX=  1.000000  1.000000  1.000000  1.000000
 FoFCou: FMM=F IPFlag=           0 FMFlag=      100000 FMFlg1=           0
         NFxFlg=           0 DoJE=T BraDBF=F KetDBF=T FulRan=T
         wScrn=  0.000000 ICntrl=     500 IOpCl=  0 I1Cent=   200000004 NGrid=           0
         NMat0=    1 NMatS0=      1 NMatT0=    0 NMatD0=    1 NMtDS0=    0 NMtDT0=    0
 Petite list used in FoFCou.
 Requested convergence on RMS density matrix=1.00D-08 within 128 cycles.
 Requested convergence on MAX density matrix=1.00D-06.
 Requested convergence on             energy=1.00D-06.
 No special actions if energy rises.
 SCF Done:  E(RM062X) =  -2070.40781640     A.U. after   14 cycles
            NFock= 14  Conv=0.35D-08     -V/T= 2.0034

 **********************************************************************

            Population analysis using the SCF density.

 **********************************************************************

 Orbital symmetries:
       Occupied  (A) (A) (A) (A) (A) (A) (A) (A) (A) (A) (A) (A)
                 (A) (A) (A) (A) (A) (A) (A) (A) (A) (A) (A) (A)
                 (A) (A) (A) (A) (A) (A) (A) (A) (A) (A) (A) (A)
                 (A) (A) (A) (A) (A) (A) (A) (A) (A) (A) (A) (A)
                 (A) (A) (A) (A) (A)
       Virtual   (A) (A) (A) (A) (A) (A) (A) (A) (A) (A) (A) (A)
                 (A) (A) (A) (A) (A) (A) (A) (A) (A) (A) (A) (A)
                 (A) (A) (A) (A) (A) (A) (A) (A) (A) (A) (A) (A)
                 (A) (A) (A) (A) (A) (A) (A) (A) (A) (A) (A) (A)
                 (A) (A) (A) (A) (A) (A) (A) (A) (A) (A) (A) (A)
                 (A) (A) (A) (A) (A) (A) (A) (A) (A) (A) (A) (A)
                 (A) (A) (A) (A) (A) (A) (A) (A) (A) (A) (A) (A)
                 (A) (A) (A) (A) (A) (A) (A) (A) (A) (A) (A) (A)
                 (A) (A) (A) (A) (A) (A) (A) (A) (A) (A) (A) (A)
                 (A) (A) (A) (A) (A) (A) (A) (A) (A) (A) (A) (A)
                 (A) (A) (A) (A) (A) (A) (A) (A) (A) (A) (A) (A)
                 (A) (A) (A) (A) (A) (A) (A) (A) (A) (A) (A) (A)
                 (A) (A) (A) (A) (A) (A) (A) (A) (A) (A) (A)
 The electronic state is 1-A.
 Alpha  occ. eigenvalues -- -102.69663-102.69662-102.69559-102.69558 -10.66081
 Alpha  occ. eigenvalues --  -10.66006 -10.65391 -10.65388 -10.60158 -10.60082
 Alpha  occ. eigenvalues --   -9.84258  -9.84256  -9.84199  -9.84198  -7.56696
 Alpha  occ. eigenvalues --   -7.56693  -7.56627  -7.56626  -7.55988  -7.55986
 Alpha  occ. eigenvalues --   -7.55946  -7.55944  -7.55929  -7.55928  -7.55900
 Alpha  occ. eigenvalues --   -7.55899  -1.06441  -1.01513  -0.99160  -0.96102
 Alpha  occ. eigenvalues --   -0.94062  -0.85863  -0.83547  -0.72680  -0.70957
 Alpha  occ. eigenvalues --   -0.61141  -0.60608  -0.55982  -0.53361  -0.53079
 Alpha  occ. eigenvalues --   -0.52830  -0.47950  -0.47565  -0.46812  -0.44356
 Alpha  occ. eigenvalues --   -0.41651  -0.41579  -0.41036  -0.39537  -0.39532
 Alpha  occ. eigenvalues --   -0.37903  -0.32737  -0.31435
 Alpha virt. eigenvalues --   -0.02131  -0.02125  -0.00984   0.00997   0.02056
 Alpha virt. eigenvalues --    0.03126   0.04003   0.04049   0.05375   0.05819
 Alpha virt. eigenvalues --    0.06826   0.07636   0.07983   0.08069   0.08642
 Alpha virt. eigenvalues --    0.09489   0.10329   0.10762   0.11130   0.11750
 Alpha virt. eigenvalues --    0.11999   0.12429   0.12892   0.14788   0.15365
 Alpha virt. eigenvalues --    0.15417   0.16556   0.16632   0.17196   0.17265
 Alpha virt. eigenvalues --    0.18299   0.18391   0.19650   0.19989   0.20059
 Alpha virt. eigenvalues --    0.22034   0.22567   0.23173   0.23187   0.23546
 Alpha virt. eigenvalues --    0.24650   0.24814   0.26798   0.26836   0.28264
 Alpha virt. eigenvalues --    0.28593   0.29763   0.33094   0.33224   0.33408
 Alpha virt. eigenvalues --    0.34472   0.47945   0.52712   0.53136   0.55900
 Alpha virt. eigenvalues --    0.58965   0.59442   0.60139   0.62827   0.62869
 Alpha virt. eigenvalues --    0.65644   0.65993   0.67148   0.67310   0.67491
 Alpha virt. eigenvalues --    0.68439   0.68448   0.72493   0.72837   0.72930
 Alpha virt. eigenvalues --    0.73066   0.74079   0.74738   0.75154   0.75278
 Alpha virt. eigenvalues --    0.77347   0.78882   0.83336   0.85749   0.85782
 Alpha virt. eigenvalues --    0.86730   0.87038   0.91254   0.91293   0.91488
 Alpha virt. eigenvalues --    0.91632   0.91930   0.93891   0.94348   0.94665
 Alpha virt. eigenvalues --    0.95592   0.96689   0.97928   0.98694   1.01755
 Alpha virt. eigenvalues --    1.02514   1.08389   1.09200   1.10577   1.11306
 Alpha virt. eigenvalues --    1.13183   1.13203   1.15772   1.16143   1.21339
 Alpha virt. eigenvalues --    1.22187   1.24058   1.24875   1.26960   1.34342
 Alpha virt. eigenvalues --    1.41122   1.46208   1.48613   1.48907   1.49278
 Alpha virt. eigenvalues --    1.51489   1.54692   1.57143   1.58932   1.61773
 Alpha virt. eigenvalues --    1.77412   1.81916   1.84233   1.94766   1.98521
 Alpha virt. eigenvalues --    1.99028   2.09388   2.10681   2.13183   2.13364
 Alpha virt. eigenvalues --    2.19308   2.20242   2.26337   2.27056   2.30512
 Alpha virt. eigenvalues --    2.52150   2.56774   2.60194   2.64964   2.68719
 Alpha virt. eigenvalues --    2.71106   2.72054   2.85147   3.01360   3.27168
 Alpha virt. eigenvalues --    4.15736   4.26010   4.26319   4.33556   4.34467
 Alpha virt. eigenvalues --    4.40954   4.43048   4.46743   4.47537   4.65992
          Condensed to atoms (all electrons):
               1          2          3          4          5          6
     1  C    6.230554   0.370356  -0.295221   0.256240  -0.568968   0.221420
     2  C    0.370356   6.229074   0.222828  -0.568255   0.255020  -0.294967
     3  C   -0.295221   0.222828   6.790828  -0.351427  -0.716780   0.797491
     4  C    0.256240  -0.568255  -0.351427   6.859183   0.564831  -0.716701
     5  C   -0.568968   0.255020  -0.716780   0.564831   6.859985  -0.349977
     6  C    0.221420  -0.294967   0.797491  -0.716701  -0.349977   6.789965
     7  Cl  -0.144813   0.026596   0.025377  -0.028312  -0.110825   0.088677
     8  Cl   0.024615   0.014276  -0.028373  -0.123107   0.173761  -0.182989
     9  Cl   0.014413   0.024675  -0.182804   0.173928  -0.123236  -0.028430
    10  Cl   0.026426  -0.144687   0.088433  -0.110783  -0.028225   0.025466
    11  H    0.270186  -0.004818   0.011096  -0.009502   0.031852   0.010443
    12  H   -0.004795   0.270088   0.010428   0.031864  -0.009488   0.011165
               7          8          9         10         11         12
     1  C   -0.144813   0.024615   0.014413   0.026426   0.270186  -0.004795
     2  C    0.026596   0.014276   0.024675  -0.144687  -0.004818   0.270088
     3  C    0.025377  -0.028373  -0.182804   0.088433   0.011096   0.010428
     4  C   -0.028312  -0.123107   0.173928  -0.110783  -0.009502   0.031864
     5  C   -0.110825   0.173761  -0.123236  -0.028225   0.031852  -0.009488
     6  C    0.088677  -0.182989  -0.028430   0.025466   0.010443   0.011165
     7  Cl  16.867115   0.031184  -0.003061  -0.000055   0.000722   0.000890
     8  Cl   0.031184  16.810127   0.024692  -0.003057   0.000660   0.000173
     9  Cl  -0.003061   0.024692  16.810077   0.031158   0.000173   0.000659
    10  Cl  -0.000055  -0.003057   0.031158  16.867152   0.000890   0.000703
    11  H    0.000722   0.000660   0.000173   0.000890   0.446839  -0.004055
    12  H    0.000890   0.000173   0.000659   0.000703  -0.004055   0.446811
 Mulliken charges:
               1
     1  C   -0.400413
     2  C   -0.400185
     3  C   -0.371875
     4  C    0.022040
     5  C    0.022049
     6  C   -0.371565
     7  Cl   0.246505
     8  Cl   0.258038
     9  Cl   0.257755
    10  Cl   0.246579
    11  H    0.245514
    12  H    0.245557
 Sum of Mulliken charges =   0.00000
 Mulliken charges with hydrogens summed into heavy atoms:
               1
     1  C   -0.154899
     2  C   -0.154627
     3  C   -0.371875
     4  C    0.022040
     5  C    0.022049
     6  C   -0.371565
     7  Cl   0.246505
     8  Cl   0.258038
     9  Cl   0.257755
    10  Cl   0.246579
 Electronic spatial extent (au):  <R**2>=           2617.2331
 Charge=              0.0000 electrons
 Dipole moment (field-independent basis, Debye):
    X=              0.0011    Y=             -2.1881    Z=              0.0009  Tot=              2.1881
 Quadrupole moment (field-independent basis, Debye-Ang):
   XX=            -87.3598   YY=            -77.7621   ZZ=            -86.4790
   XY=              0.0009   XZ=              0.0012   YZ=             -0.0023
 Traceless Quadrupole moment (field-independent basis, Debye-Ang):
   XX=             -3.4929   YY=              6.1049   ZZ=             -2.6120
   XY=              0.0009   XZ=              0.0012   YZ=             -0.0023
 Octapole moment (field-independent basis, Debye-Ang**2):
  XXX=              0.0036  YYY=             -6.2458  ZZZ=             -0.0011  XYY=              0.0016
  XXY=              5.0298  XXZ=              0.0002  XZZ=              0.0019  YZZ=              6.0029
  YYZ=              0.0171  XYZ=              0.0026
 Hexadecapole moment (field-independent basis, Debye-Ang**3):
 XXXX=          -2082.0616 YYYY=          -1029.8673 ZZZZ=            -98.6997 XXXY=              0.0146
 XXXZ=              0.0439 YYYX=              0.0093 YYYZ=             -0.0153 ZZZX=              0.0088
 ZZZY=              0.0106 XXYY=           -526.5045 XXZZ=           -383.9358 YYZZ=           -216.0085
 XXYZ=              0.0094 YYXZ=              0.0108 ZZXY=              0.0011
 N-N= 8.474800065319D+02 E-N=-6.600589155881D+03  KE= 2.063447414285D+03
 Calling FoFJK, ICntrl=      2127 FMM=F ISym2X=0 I1Cent= 0 IOpClX= 0 NMat=1 NMatS=1 NMatT=0.
 ***** Axes restored to original set *****
 -------------------------------------------------------------------
 Center     Atomic                   Forces (Hartrees/Bohr)
 Number     Number              X              Y              Z
 -------------------------------------------------------------------
      1        6           0.006860915   -0.003973112    0.005660731
      2        6          -0.007566212    0.004330901   -0.004386627
      3        6           0.004583491   -0.002303705   -0.009940722
      4        6           0.005027215   -0.003202173    0.013668480
      5        6          -0.012822328    0.007151487    0.001188612
      6        6           0.005607162   -0.002797568   -0.008955644
      7       17          -0.001895525    0.000930176    0.003333386
      8       17           0.005724549   -0.003124398   -0.002764533
      9       17          -0.000475882    0.000484535   -0.007231605
     10       17          -0.001822074    0.000930118    0.003450269
     11        1          -0.002975620    0.001572925    0.001956923
     12        1          -0.000245690    0.000000816    0.004020729
 -------------------------------------------------------------------
 Cartesian Forces:  Max     0.013668480 RMS     0.005374970

 GradGradGradGradGradGradGradGradGradGradGradGradGradGradGradGradGradGrad
 Berny optimization.
 FormGI is forming the generalized inverse of G from B-inverse, IUseBI=4.
 Internal  Forces:  Max     0.007226406 RMS     0.002759775
 Search for a local minimum.
 Step number   1 out of a maximum of   64
 All quantities printed in internal units (Hartrees-Bohrs-Radians)
 Mixed Optimization -- RFO/linear search
 Second derivative matrix not updated -- first step.
 ITU=  0
     Eigenvalues ---    0.02156   0.02156   0.02156   0.02156   0.02156
     Eigenvalues ---    0.02156   0.02157   0.02157   0.02158   0.16000
     Eigenvalues ---    0.16000   0.22489   0.24493   0.25000   0.25000
     Eigenvalues ---    0.25000   0.25000   0.25000   0.31417   0.31456
     Eigenvalues ---    0.32419   0.32430   0.35124   0.35143   0.42405
     Eigenvalues ---    0.42590   0.46474   0.46474   0.46475   0.46494
 RFO step:  Lambda=-1.51849090D-03 EMin= 2.15602439D-02
 Linear search not attempted -- first point.
 Iteration  1 RMS(Cart)=  0.01416697 RMS(Int)=  0.00017736
 Iteration  2 RMS(Cart)=  0.00018059 RMS(Int)=  0.00000465
 Iteration  3 RMS(Cart)=  0.00000000 RMS(Int)=  0.00000465
 Variable       Old X    -DE/DX   Delta X   Delta X   Delta X     New X
                                 (Linear)    (Quad)   (Total)
    R1        2.63599  -0.00540   0.00000  -0.01248  -0.01248   2.62350
    R2        2.63568  -0.00237   0.00000  -0.00553  -0.00553   2.63015
    R3        2.05444  -0.00208   0.00000  -0.00589  -0.00589   2.04855
    R4        2.63600  -0.00252   0.00000  -0.00587  -0.00587   2.63014
    R5        2.05473  -0.00219   0.00000  -0.00622  -0.00622   2.04852
    R6        2.63599   0.00087   0.00000   0.00232   0.00232   2.63831
    R7        3.27084  -0.00016   0.00000  -0.00050  -0.00050   3.27034
    R8        2.63600   0.00471   0.00000   0.01100   0.01100   2.64701
    R9        3.28923  -0.00723   0.00000  -0.02289  -0.02289   3.26634
   R10        2.63601   0.00089   0.00000   0.00236   0.00236   2.63837
   R11        3.28850  -0.00705   0.00000  -0.02231  -0.02231   3.26620
   R12        3.27063  -0.00011   0.00000  -0.00033  -0.00033   3.27031
    A1        2.09449   0.00124   0.00000   0.00259   0.00259   2.09707
    A2        2.07716   0.00276   0.00000   0.01964   0.01964   2.09680
    A3        2.11154  -0.00400   0.00000  -0.02223  -0.02223   2.08931
    A4        2.09432   0.00127   0.00000   0.00269   0.00269   2.09701
    A5        2.07650   0.00284   0.00000   0.02015   0.02015   2.09665
    A6        2.11236  -0.00411   0.00000  -0.02284  -0.02284   2.08952
    A7        2.09439   0.00045   0.00000   0.00164   0.00164   2.09603
    A8        2.04600   0.00633   0.00000   0.02524   0.02524   2.07124
    A9        2.14279  -0.00678   0.00000  -0.02688  -0.02688   2.11591
   A10        2.09439  -0.00167   0.00000  -0.00421  -0.00421   2.09018
   A11        2.08619   0.00204   0.00000   0.00689   0.00689   2.09308
   A12        2.10260  -0.00037   0.00000  -0.00268  -0.00268   2.09992
   A13        2.09434  -0.00171   0.00000  -0.00433  -0.00432   2.09001
   A14        2.10211  -0.00026   0.00000  -0.00225  -0.00225   2.09985
   A15        2.08674   0.00196   0.00000   0.00658   0.00658   2.09332
   A16        2.09444   0.00043   0.00000   0.00162   0.00162   2.09606
   A17        2.04655   0.00624   0.00000   0.02484   0.02484   2.07139
   A18        2.14219  -0.00666   0.00000  -0.02646  -0.02646   2.11574
    D1       -0.00011   0.00001   0.00000   0.00026   0.00026   0.00015
    D2        3.14157   0.00000   0.00000   0.00009   0.00009  -3.14153
    D3        3.14138   0.00001   0.00000   0.00041   0.00041  -3.14139
    D4       -0.00013   0.00000   0.00000   0.00024   0.00024   0.00012
    D5        0.00007   0.00000   0.00000   0.00005   0.00004   0.00011
    D6        3.14127   0.00001   0.00000   0.00056   0.00057  -3.14135
    D7       -3.14142   0.00000   0.00000  -0.00011  -0.00011  -3.14153
    D8       -0.00022   0.00001   0.00000   0.00041   0.00042   0.00020
    D9        0.00007  -0.00001   0.00000  -0.00034  -0.00034  -0.00027
   D10        3.14081   0.00001   0.00000   0.00067   0.00068   3.14150
   D11        3.14158   0.00000   0.00000  -0.00016  -0.00017   3.14141
   D12       -0.00087   0.00002   0.00000   0.00084   0.00085  -0.00001
   D13        0.00000   0.00000   0.00000   0.00012   0.00011   0.00011
   D14       -3.14134   0.00000   0.00000  -0.00023  -0.00023  -3.14157
   D15       -3.14069  -0.00003   0.00000  -0.00097  -0.00096   3.14153
   D16        0.00115  -0.00003   0.00000  -0.00132  -0.00131  -0.00015
   D17       -0.00004   0.00000   0.00000   0.00019   0.00019   0.00015
   D18       -3.14025  -0.00004   0.00000  -0.00152  -0.00151   3.14142
   D19        3.14130   0.00001   0.00000   0.00053   0.00054  -3.14135
   D20        0.00109  -0.00003   0.00000  -0.00117  -0.00117  -0.00008
   D21        0.00001  -0.00001   0.00000  -0.00027  -0.00027  -0.00026
   D22       -3.14117  -0.00002   0.00000  -0.00083  -0.00082   3.14120
   D23        3.14023   0.00003   0.00000   0.00142   0.00142  -3.14154
   D24       -0.00095   0.00002   0.00000   0.00086   0.00087  -0.00008
         Item               Value     Threshold  Converged?
 Maximum Force            0.007226     0.000450     NO 
 RMS     Force            0.002760     0.000300     NO 
 Maximum Displacement     0.046502     0.001800     NO 
 RMS     Displacement     0.014167     0.001200     NO 
 Predicted change in Energy=-7.638755D-04
 GradGradGradGradGradGradGradGradGradGradGradGradGradGradGradGradGradGrad

                          Input orientation:                          
 ---------------------------------------------------------------------
 Center     Atomic      Atomic             Coordinates (Angstroms)
 Number     Number       Type             X           Y           Z
 ---------------------------------------------------------------------
      1          6           0        1.890193   -1.038896   -0.115602
      2          6           0        2.921076   -1.630927    0.601440
      3          6           0        2.881724   -1.653921    1.992501
      4          6           0        1.804955   -1.081084    2.671928
      5          6           0        0.764897   -0.483576    1.948514
      6          6           0        0.812720   -0.465490    0.553282
      7         17           0       -0.451455    0.261769   -0.378292
      8         17           0       -0.575114    0.229621    2.774997
      9         17           0        1.760559   -1.112081    4.399552
     10         17           0        4.186969   -2.401995    2.847872
     11          1           0        1.920954   -1.021261   -1.199067
     12          1           0        3.760122   -2.077359    0.080075
 ---------------------------------------------------------------------
                    Distance matrix (angstroms):
                    1          2          3          4          5
     1  C    0.000000
     2  C    1.388298   0.000000
     3  C    2.409458   1.391808   0.000000
     4  C    2.789153   2.415570   1.396135   0.000000
     5  C    2.415625   2.789288   2.419214   1.400737   0.000000
     6  C    1.391815   2.409508   2.786484   2.419121   1.396168
     7  Cl   2.691478   3.989504   4.516703   4.024734   2.729300
     8  Cl   4.005302   4.517670   4.013696   2.719062   1.728397
     9  Cl   4.517607   4.005203   2.710072   1.728471   2.719181
    10  Cl   3.989411   2.691372   1.730589   2.729424   4.024892
    11  H    1.084045   2.147968   3.392557   3.873195   3.396003
    12  H    2.147866   1.084030   2.146686   3.396019   3.873316
                    6          7          8          9         10
     6  C    0.000000
     7  Cl   1.730571   0.000000
     8  Cl   2.710218   3.155877   0.000000
     9  Cl   4.013759   5.441347   3.145586   0.000000
    10  Cl   4.516719   6.246499   5.441337   3.155797   0.000000
    11  H    2.146577   2.819249   4.856774   5.601652   4.839314
    12  H    3.392525   4.839318   5.601699   4.856737   2.819270
                   11         12
    11  H    0.000000
    12  H    2.476709   0.000000
 Stoichiometry    C6H2Cl4
 Framework group  C1[X(C6H2Cl4)]
 Deg. of freedom    30
 Full point group                 C1      NOp   1
 Largest Abelian subgroup         C1      NOp   1
 Largest concise Abelian subgroup C1      NOp   1
                         Standard orientation:                         
 ---------------------------------------------------------------------
 Center     Atomic      Atomic             Coordinates (Angstroms)
 Number     Number       Type             X           Y           Z
 ---------------------------------------------------------------------
      1          6           0        0.694092   -2.017192    0.000180
      2          6           0       -0.694207   -2.017162    0.000203
      3          6           0       -1.393233   -0.813630    0.000005
      4          6           0       -0.700285    0.398400    0.000104
      5          6           0        0.700452    0.398425    0.000263
      6          6           0        1.393251   -0.813728    0.000142
      7         17           0        3.123250   -0.858209   -0.000255
      8         17           0        1.572781    1.890537    0.000130
      9         17           0       -1.572805    1.890487   -0.000113
     10         17           0       -3.123249   -0.858182   -0.000104
     11          1           0        1.238349   -2.954709    0.000147
     12          1           0       -1.238360   -2.954721    0.000296
 ---------------------------------------------------------------------
 Rotational constants (GHZ):      1.1587739      0.5444495      0.3704117
 Standard basis: 6-31+G(d) (6D, 7F)
 There are   210 symmetry adapted cartesian basis functions of A   symmetry.
 There are   210 symmetry adapted basis functions of A   symmetry.
   210 basis functions,   424 primitive gaussians,   210 cartesian basis functions
    53 alpha electrons       53 beta electrons
       nuclear repulsion energy       849.9917954558 Hartrees.
 NAtoms=   12 NActive=   12 NUniq=   12 SFac= 1.00D+00 NAtFMM=   60 NAOKFM=F Big=F
 Integral buffers will be    131072 words long.
 Raffenetti 2 integral format.
 Two-electron integral symmetry is turned on.
 One-electron integrals computed using PRISM.
 NBasis=   210 RedAO= T EigKep=  4.38D-06  NBF=   210
 NBsUse=   208 1.00D-06 EigRej=  9.38D-07 NBFU=   208
 Initial guess from the checkpoint file:  "/srv/scratch/z5358697/gauss/Gau-2427618.chk"
 B after Tr=     0.000000    0.000000    0.000000
         Rot=    1.000000   -0.000001    0.000000    0.000016 Ang=   0.00 deg.
 ExpMin= 4.38D-02 ExpMax= 2.52D+04 ExpMxC= 3.78D+03 IAcc=2 IRadAn=         4 AccDes= 0.00D+00
 Harris functional with IExCor= 1009 and IRadAn=       4 diagonalized for initial guess.
 HarFok:  IExCor= 1009 AccDes= 0.00D+00 IRadAn=         4 IDoV= 1 UseB2=F ITyADJ=14
 ICtDFT=  3500011 ScaDFX=  1.000000  1.000000  1.000000  1.000000
 FoFCou: FMM=F IPFlag=           0 FMFlag=      100000 FMFlg1=           0
         NFxFlg=           0 DoJE=T BraDBF=F KetDBF=T FulRan=T
         wScrn=  0.000000 ICntrl=     500 IOpCl=  0 I1Cent=   200000004 NGrid=           0
         NMat0=    1 NMatS0=      1 NMatT0=    0 NMatD0=    1 NMtDS0=    0 NMtDT0=    0
 Petite list used in FoFCou.
 Requested convergence on RMS density matrix=1.00D-08 within 128 cycles.
 Requested convergence on MAX density matrix=1.00D-06.
 Requested convergence on             energy=1.00D-06.
 No special actions if energy rises.
 SCF Done:  E(RM062X) =  -2070.40871745     A.U. after   12 cycles
            NFock= 12  Conv=0.41D-08     -V/T= 2.0033
 Calling FoFJK, ICntrl=      2127 FMM=F ISym2X=0 I1Cent= 0 IOpClX= 0 NMat=1 NMatS=1 NMatT=0.
 ***** Axes restored to original set *****
 -------------------------------------------------------------------
 Center     Atomic                   Forces (Hartrees/Bohr)
 Number     Number              X              Y              Z
 -------------------------------------------------------------------
      1        6           0.001490207   -0.000857053    0.001143530
      2        6          -0.001610144    0.000912936   -0.001013979
      3        6           0.001143332   -0.000513813   -0.002913957
      4        6           0.001017625   -0.000732633    0.005240342
      5        6          -0.004532643    0.002433202    0.001318291
      6        6           0.001761568   -0.000897120   -0.002407944
      7       17          -0.000125799    0.000074192    0.000127137
      8       17           0.001709738   -0.000931184   -0.000207118
      9       17          -0.000625347    0.000407373   -0.001840065
     10       17          -0.000056384    0.000022487    0.000198335
     11        1          -0.000779827    0.000442000   -0.000306366
     12        1           0.000607674   -0.000360387    0.000661794
 -------------------------------------------------------------------
 Cartesian Forces:  Max     0.005240342 RMS     0.001627996

 GradGradGradGradGradGradGradGradGradGradGradGradGradGradGradGradGradGrad
 Berny optimization.
 Using GEDIIS/GDIIS optimizer.
 FormGI is forming the generalized inverse of G from B-inverse, IUseBI=4.
 Internal  Forces:  Max     0.002117755 RMS     0.000811567
 Search for a local minimum.
 Step number   2 out of a maximum of   64
 All quantities printed in internal units (Hartrees-Bohrs-Radians)
 Mixed Optimization -- En-DIIS/RFO-DIIS
 Update second derivatives using D2CorX and points    1    2
 DE= -9.01D-04 DEPred=-7.64D-04 R= 1.18D+00
 TightC=F SS=  1.41D+00  RLast= 7.81D-02 DXNew= 5.0454D-01 2.3436D-01
 Trust test= 1.18D+00 RLast= 7.81D-02 DXMaxT set to 3.00D-01
 ITU=  1  0
 Use linear search instead of GDIIS.
     Eigenvalues ---    0.02156   0.02156   0.02156   0.02156   0.02156
     Eigenvalues ---    0.02156   0.02157   0.02157   0.02158   0.14090
     Eigenvalues ---    0.16000   0.22013   0.22485   0.24652   0.25000
     Eigenvalues ---    0.25000   0.25000   0.27743   0.29770   0.31437
     Eigenvalues ---    0.32421   0.32433   0.35134   0.35528   0.40675
     Eigenvalues ---    0.42582   0.46472   0.46475   0.46489   0.47956
 RFO step:  Lambda=-9.84510173D-05 EMin= 2.15602470D-02
 Quartic linear search produced a step of  0.22229.
 Iteration  1 RMS(Cart)=  0.00431193 RMS(Int)=  0.00001631
 Iteration  2 RMS(Cart)=  0.00001805 RMS(Int)=  0.00000227
 Iteration  3 RMS(Cart)=  0.00000000 RMS(Int)=  0.00000227
 Variable       Old X    -DE/DX   Delta X   Delta X   Delta X     New X
                                 (Linear)    (Quad)   (Total)
    R1        2.62350  -0.00118  -0.00278  -0.00153  -0.00431   2.61919
    R2        2.63015  -0.00027  -0.00123  -0.00005  -0.00128   2.62887
    R3        2.04855   0.00029  -0.00131   0.00195   0.00065   2.04919
    R4        2.63014  -0.00026  -0.00130   0.00004  -0.00127   2.62887
    R5        2.04852   0.00030  -0.00138   0.00204   0.00066   2.04918
    R6        2.63831   0.00212   0.00052   0.00541   0.00592   2.64424
    R7        3.27034   0.00005  -0.00011   0.00025   0.00014   3.27048
    R8        2.64701   0.00182   0.00245   0.00345   0.00590   2.65290
    R9        3.26634  -0.00183  -0.00509  -0.00345  -0.00854   3.25780
   R10        2.63837   0.00210   0.00053   0.00534   0.00586   2.64424
   R11        3.26620  -0.00181  -0.00496  -0.00345  -0.00841   3.25779
   R12        3.27031   0.00005  -0.00007   0.00026   0.00019   3.27049
    A1        2.09707   0.00018   0.00058  -0.00075  -0.00018   2.09690
    A2        2.09680   0.00083   0.00437   0.00401   0.00838   2.10518
    A3        2.08931  -0.00101  -0.00494  -0.00326  -0.00820   2.08111
    A4        2.09701   0.00019   0.00060  -0.00070  -0.00011   2.09690
    A5        2.09665   0.00085   0.00448   0.00404   0.00853   2.10518
    A6        2.08952  -0.00104  -0.00508  -0.00334  -0.00841   2.08111
    A7        2.09603   0.00081   0.00036   0.00370   0.00407   2.10010
    A8        2.07124  -0.00007   0.00561  -0.00443   0.00118   2.07242
    A9        2.11591  -0.00073  -0.00597   0.00073  -0.00525   2.11067
   A10        2.09018  -0.00101  -0.00094  -0.00305  -0.00398   2.08620
   A11        2.09308   0.00176   0.00153   0.00690   0.00843   2.10151
   A12        2.09992  -0.00075  -0.00060  -0.00385  -0.00445   2.09548
   A13        2.09001  -0.00097  -0.00096  -0.00289  -0.00385   2.08617
   A14        2.09985  -0.00074  -0.00050  -0.00382  -0.00433   2.09552
   A15        2.09332   0.00171   0.00146   0.00671   0.00817   2.10149
   A16        2.09606   0.00081   0.00036   0.00369   0.00405   2.10011
   A17        2.07139  -0.00010   0.00552  -0.00449   0.00103   2.07242
   A18        2.11574  -0.00071  -0.00588   0.00080  -0.00508   2.11065
    D1        0.00015   0.00000   0.00006  -0.00030  -0.00024  -0.00009
    D2       -3.14153   0.00000   0.00002  -0.00007  -0.00005  -3.14157
    D3       -3.14139  -0.00001   0.00009  -0.00041  -0.00032   3.14147
    D4        0.00012   0.00000   0.00005  -0.00019  -0.00013  -0.00001
    D5        0.00011   0.00000   0.00001  -0.00014  -0.00013  -0.00002
    D6       -3.14135  -0.00001   0.00013  -0.00047  -0.00035   3.14149
    D7       -3.14153   0.00000  -0.00002  -0.00003  -0.00005  -3.14158
    D8        0.00020   0.00000   0.00009  -0.00036  -0.00027  -0.00007
    D9       -0.00027   0.00001  -0.00008   0.00047   0.00039   0.00012
   D10        3.14150   0.00000   0.00015  -0.00001   0.00014  -3.14154
   D11        3.14141   0.00000  -0.00004   0.00024   0.00020  -3.14157
   D12       -0.00001   0.00000   0.00019  -0.00024  -0.00004  -0.00006
   D13        0.00011   0.00000   0.00003  -0.00019  -0.00017  -0.00005
   D14       -3.14157   0.00000  -0.00005   0.00004  -0.00001  -3.14158
   D15        3.14153   0.00000  -0.00021   0.00029   0.00008  -3.14157
   D16       -0.00015   0.00000  -0.00029   0.00053   0.00024   0.00009
   D17        0.00015   0.00000   0.00004  -0.00024  -0.00020  -0.00005
   D18        3.14142   0.00001  -0.00034   0.00069   0.00035  -3.14142
   D19       -3.14135  -0.00001   0.00012  -0.00048  -0.00036   3.14148
   D20       -0.00008   0.00000  -0.00026   0.00045   0.00019   0.00011
   D21       -0.00026   0.00001  -0.00006   0.00041   0.00035   0.00009
   D22        3.14120   0.00001  -0.00018   0.00075   0.00057  -3.14142
   D23       -3.14154   0.00000   0.00032  -0.00051  -0.00020   3.14145
   D24       -0.00008   0.00000   0.00019  -0.00017   0.00002  -0.00005
         Item               Value     Threshold  Converged?
 Maximum Force            0.002118     0.000450     NO 
 RMS     Force            0.000812     0.000300     NO 
 Maximum Displacement     0.012155     0.001800     NO 
 RMS     Displacement     0.004308     0.001200     NO 
 Predicted change in Energy=-8.090664D-05
 GradGradGradGradGradGradGradGradGradGradGradGradGradGradGradGradGradGrad

                          Input orientation:                          
 ---------------------------------------------------------------------
 Center     Atomic      Atomic             Coordinates (Angstroms)
 Number     Number       Type             X           Y           Z
 ---------------------------------------------------------------------
      1          6           0        1.892144   -1.040017   -0.117218
      2          6           0        2.921328   -1.631113    0.598624
      3          6           0        2.881985   -1.653838    1.989019
      4          6           0        1.805006   -1.081334    2.674812
      5          6           0        0.762527   -0.482703    1.949766
      6          6           0        0.815288   -0.466988    0.551579
      7         17           0       -0.449705    0.261321   -0.378245
      8         17           0       -0.570871    0.226992    2.780653
      9         17           0        1.754127   -1.108309    4.397803
     10         17           0        4.186385   -2.401318    2.846349
     11          1           0        1.915008   -1.017861   -1.201137
     12          1           0        3.764379   -2.080032    0.085194
 ---------------------------------------------------------------------
                    Distance matrix (angstroms):
                    1          2          3          4          5
     1  C    0.000000
     2  C    1.386017   0.000000
     3  C    2.406823   1.391137   0.000000
     4  C    2.793696   2.420535   1.399270   0.000000
     5  C    2.420549   2.793716   2.421817   1.403857   0.000000
     6  C    1.391140   2.406824   2.783179   2.421793   1.399270
     7  Cl   2.691816   3.987411   4.513528   4.025867   2.728134
     8  Cl   4.008667   4.517660   4.010787   2.714352   1.723946
     9  Cl   4.517646   4.008670   2.715125   1.723952   2.714321
    10  Cl   3.987407   2.691812   1.730664   2.728140   4.025884
    11  H    1.084386   2.151255   3.393613   3.878029   3.397469
    12  H    2.151248   1.084378   2.141217   3.397450   3.878041
                    6          7          8          9         10
     6  C    0.000000
     7  Cl   1.730669   0.000000
     8  Cl   2.715109   3.161408   0.000000
     9  Cl   4.010754   5.435384   3.131104   0.000000
    10  Cl   4.513524   6.243476   5.435421   3.161449   0.000000
    11  H    2.141228   2.811641   4.856326   5.601981   4.843062
    12  H    3.393606   4.843059   5.601986   4.856331   2.811635
                   11         12
    11  H    0.000000
    12  H    2.490588   0.000000
 Stoichiometry    C6H2Cl4
 Framework group  C1[X(C6H2Cl4)]
 Deg. of freedom    30
 Full point group                 C1      NOp   1
 Largest Abelian subgroup         C1      NOp   1
 Largest concise Abelian subgroup C1      NOp   1
                         Standard orientation:                         
 ---------------------------------------------------------------------
 Center     Atomic      Atomic             Coordinates (Angstroms)
 Number     Number       Type             X           Y           Z
 ---------------------------------------------------------------------
      1          6           0        0.692985   -2.019868   -0.000055
      2          6           0       -0.693032   -2.019859   -0.000064
      3          6           0       -1.391606   -0.816839   -0.000002
      4          6           0       -0.701928    0.400659   -0.000080
      5          6           0        0.701929    0.400664   -0.000157
      6          6           0        1.391573   -0.816853   -0.000090
      7         17           0        3.121723   -0.859220    0.000079
      8         17           0        1.565582    1.892674    0.000010
      9         17           0       -1.565522    1.892710    0.000011
     10         17           0       -3.121752   -0.859181    0.000060
     11          1           0        1.245266   -2.953077    0.000010
     12          1           0       -1.245322   -2.953053   -0.000020
 ---------------------------------------------------------------------
 Rotational constants (GHZ):      1.1558444      0.5458083      0.3707393
 Standard basis: 6-31+G(d) (6D, 7F)
 There are   210 symmetry adapted cartesian basis functions of A   symmetry.
 There are   210 symmetry adapted basis functions of A   symmetry.
   210 basis functions,   424 primitive gaussians,   210 cartesian basis functions
    53 alpha electrons       53 beta electrons
       nuclear repulsion energy       850.2174748037 Hartrees.
 NAtoms=   12 NActive=   12 NUniq=   12 SFac= 1.00D+00 NAtFMM=   60 NAOKFM=F Big=F
 Integral buffers will be    131072 words long.
 Raffenetti 2 integral format.
 Two-electron integral symmetry is turned on.
 One-electron integrals computed using PRISM.
 NBasis=   210 RedAO= T EigKep=  4.38D-06  NBF=   210
 NBsUse=   208 1.00D-06 EigRej=  9.56D-07 NBFU=   208
 Initial guess from the checkpoint file:  "/srv/scratch/z5358697/gauss/Gau-2427618.chk"
 B after Tr=     0.000000    0.000000    0.000000
         Rot=    1.000000    0.000000    0.000000    0.000003 Ang=   0.00 deg.
 Requested convergence on RMS density matrix=1.00D-08 within 128 cycles.
 Requested convergence on MAX density matrix=1.00D-06.
 Requested convergence on             energy=1.00D-06.
 No special actions if energy rises.
 SCF Done:  E(RM062X) =  -2070.40878935     A.U. after   12 cycles
            NFock= 12  Conv=0.32D-08     -V/T= 2.0033
 Calling FoFJK, ICntrl=      2127 FMM=F ISym2X=0 I1Cent= 0 IOpClX= 0 NMat=1 NMatS=1 NMatT=0.
 ***** Axes restored to original set *****
 -------------------------------------------------------------------
 Center     Atomic                   Forces (Hartrees/Bohr)
 Number     Number              X              Y              Z
 -------------------------------------------------------------------
      1        6          -0.000395780    0.000227798   -0.000389177
      2        6           0.000484989   -0.000265601    0.000222815
      3        6          -0.000803306    0.000422938    0.000221711
      4        6           0.000424035   -0.000233311    0.000013998
      5        6          -0.000188670    0.000135035   -0.000432929
      6        6           0.000184260   -0.000129108    0.000901997
      7       17          -0.000182478    0.000098981   -0.000058826
      8       17          -0.000107824    0.000068339   -0.000457882
      9       17           0.000411596   -0.000225385   -0.000100905
     10       17           0.000128567   -0.000074765    0.000158330
     11        1          -0.000034761    0.000019874   -0.000075929
     12        1           0.000079371   -0.000044792   -0.000003202
 -------------------------------------------------------------------
 Cartesian Forces:  Max     0.000901997 RMS     0.000311556

 GradGradGradGradGradGradGradGradGradGradGradGradGradGradGradGradGradGrad
 Berny optimization.
 Using GEDIIS/GDIIS optimizer.
 FormGI is forming the generalized inverse of G from B-inverse, IUseBI=4.
 Internal  Forces:  Max     0.000798030 RMS     0.000276938
 Search for a local minimum.
 Step number   3 out of a maximum of   64
 All quantities printed in internal units (Hartrees-Bohrs-Radians)
 Mixed Optimization -- En-DIIS/RFO-DIIS
 Swapping is turned off.
 Update second derivatives using D2CorX and points    1    2    3
 DE= -7.19D-05 DEPred=-8.09D-05 R= 8.89D-01
 TightC=F SS=  1.41D+00  RLast= 2.91D-02 DXNew= 5.0454D-01 8.7406D-02
 Trust test= 8.89D-01 RLast= 2.91D-02 DXMaxT set to 3.00D-01
 ITU=  1  1  0
     Eigenvalues ---    0.02156   0.02156   0.02156   0.02156   0.02156
     Eigenvalues ---    0.02156   0.02157   0.02157   0.02158   0.13056
     Eigenvalues ---    0.16000   0.21418   0.22484   0.25000   0.25000
     Eigenvalues ---    0.25000   0.26782   0.28329   0.29779   0.31437
     Eigenvalues ---    0.32425   0.32563   0.35134   0.35560   0.41343
     Eigenvalues ---    0.42570   0.46470   0.46487   0.46870   0.50108
 En-DIIS/RFO-DIIS IScMMF=        0 using points:     3    2
 RFO step:  Lambda=-6.95772395D-06.
 DidBck=F Rises=F RFO-DIIS coefs:    0.90519    0.09481
 Iteration  1 RMS(Cart)=  0.00190086 RMS(Int)=  0.00000238
 Iteration  2 RMS(Cart)=  0.00000240 RMS(Int)=  0.00000024
 Iteration  3 RMS(Cart)=  0.00000000 RMS(Int)=  0.00000024
 Variable       Old X    -DE/DX   Delta X   Delta X   Delta X     New X
                                 (Linear)    (Quad)   (Total)
    R1        2.61919   0.00048   0.00041   0.00041   0.00082   2.62001
    R2        2.62887   0.00003   0.00012  -0.00008   0.00004   2.62891
    R3        2.04919   0.00008  -0.00006   0.00032   0.00026   2.04945
    R4        2.62887   0.00003   0.00012  -0.00007   0.00005   2.62892
    R5        2.04918   0.00008  -0.00006   0.00034   0.00028   2.04945
    R6        2.64424  -0.00063  -0.00056  -0.00039  -0.00095   2.64328
    R7        3.27048   0.00021  -0.00001   0.00061   0.00060   3.27108
    R8        2.65290   0.00050  -0.00056   0.00178   0.00122   2.65412
    R9        3.25780  -0.00011   0.00081  -0.00151  -0.00070   3.25709
   R10        2.64424  -0.00063  -0.00056  -0.00039  -0.00095   2.64329
   R11        3.25779  -0.00011   0.00080  -0.00150  -0.00070   3.25709
   R12        3.27049   0.00021  -0.00002   0.00062   0.00060   3.27109
    A1        2.09690  -0.00021   0.00002  -0.00073  -0.00071   2.09618
    A2        2.10518   0.00015  -0.00079   0.00177   0.00098   2.10616
    A3        2.08111   0.00006   0.00078  -0.00104  -0.00026   2.08085
    A4        2.09690  -0.00021   0.00001  -0.00072  -0.00071   2.09618
    A5        2.10518   0.00015  -0.00081   0.00179   0.00098   2.10616
    A6        2.08111   0.00007   0.00080  -0.00107  -0.00027   2.08084
    A7        2.10010   0.00028  -0.00039   0.00168   0.00130   2.10140
    A8        2.07242  -0.00004  -0.00011  -0.00008  -0.00020   2.07223
    A9        2.11067  -0.00025   0.00050  -0.00160  -0.00110   2.10956
   A10        2.08620  -0.00007   0.00038  -0.00097  -0.00059   2.08561
   A11        2.10151  -0.00072  -0.00080  -0.00136  -0.00216   2.09935
   A12        2.09548   0.00080   0.00042   0.00233   0.00275   2.09823
   A13        2.08617  -0.00007   0.00036  -0.00093  -0.00056   2.08560
   A14        2.09552   0.00079   0.00041   0.00231   0.00272   2.09824
   A15        2.10149  -0.00072  -0.00077  -0.00138  -0.00215   2.09934
   A16        2.10011   0.00028  -0.00038   0.00167   0.00129   2.10140
   A17        2.07242  -0.00004  -0.00010  -0.00011  -0.00021   2.07221
   A18        2.11065  -0.00024   0.00048  -0.00156  -0.00108   2.10957
    D1       -0.00009   0.00000   0.00002   0.00008   0.00010   0.00001
    D2       -3.14157   0.00000   0.00000  -0.00003  -0.00003   3.14158
    D3        3.14147   0.00000   0.00003   0.00011   0.00014  -3.14157
    D4       -0.00001   0.00000   0.00001   0.00000   0.00001  -0.00001
    D5       -0.00002   0.00000   0.00001   0.00000   0.00001  -0.00001
    D6        3.14149   0.00000   0.00003   0.00008   0.00011  -3.14158
    D7       -3.14158   0.00000   0.00000  -0.00003  -0.00003   3.14158
    D8       -0.00007   0.00000   0.00003   0.00005   0.00008   0.00001
    D9        0.00012   0.00000  -0.00004  -0.00010  -0.00013  -0.00001
   D10       -3.14154   0.00000  -0.00001  -0.00005  -0.00007   3.14158
   D11       -3.14157   0.00000  -0.00002   0.00002   0.00000  -3.14158
   D12       -0.00006   0.00000   0.00000   0.00006   0.00006   0.00001
   D13       -0.00005   0.00000   0.00002   0.00003   0.00005   0.00000
   D14       -3.14158   0.00000   0.00000  -0.00003  -0.00003   3.14157
   D15       -3.14157   0.00000  -0.00001  -0.00001  -0.00002  -3.14159
   D16        0.00009   0.00000  -0.00002  -0.00007  -0.00010  -0.00001
   D17       -0.00005   0.00000   0.00002   0.00004   0.00006   0.00001
   D18       -3.14142  -0.00001  -0.00003  -0.00017  -0.00020   3.14157
   D19        3.14148   0.00000   0.00003   0.00011   0.00014  -3.14157
   D20        0.00011   0.00000  -0.00002  -0.00011  -0.00013  -0.00001
   D21        0.00009   0.00000  -0.00003  -0.00006  -0.00009  -0.00001
   D22       -3.14142  -0.00001  -0.00005  -0.00014  -0.00020   3.14157
   D23        3.14145   0.00000   0.00002   0.00015   0.00017  -3.14156
   D24       -0.00005   0.00000   0.00000   0.00007   0.00007   0.00002
         Item               Value     Threshold  Converged?
 Maximum Force            0.000798     0.000450     NO 
 RMS     Force            0.000277     0.000300     YES
 Maximum Displacement     0.007910     0.001800     NO 
 RMS     Displacement     0.001901     0.001200     NO 
 Predicted change in Energy=-6.016491D-06
 GradGradGradGradGradGradGradGradGradGradGradGradGradGradGradGradGradGrad

                          Input orientation:                          
 ---------------------------------------------------------------------
 Center     Atomic      Atomic             Coordinates (Angstroms)
 Number     Number       Type             X           Y           Z
 ---------------------------------------------------------------------
      1          6           0        1.892042   -1.039916   -0.117420
      2          6           0        2.921556   -1.631180    0.598649
      3          6           0        2.881313   -1.653481    1.989051
      4          6           0        1.805101   -1.081326    2.675311
      5          6           0        0.762189   -0.482350    1.949923
      6          6           0        0.815597   -0.467093    0.552259
      7         17           0       -0.450145    0.261386   -0.377002
      8         17           0       -0.572945    0.228206    2.776508
      9         17           0        1.758313   -1.110685    4.398006
     10         17           0        4.185515   -2.400966    2.847315
     11          1           0        1.913942   -1.017317   -1.201486
     12          1           0        3.765122   -2.080480    0.086087
 ---------------------------------------------------------------------
                    Distance matrix (angstroms):
                    1          2          3          4          5
     1  C    0.000000
     2  C    1.386451   0.000000
     3  C    2.406727   1.391163   0.000000
     4  C    2.794390   2.421020   1.398766   0.000000
     5  C    2.421023   2.794391   2.421521   1.404502   0.000000
     6  C    1.391161   2.406723   2.781918   2.421519   1.398768
     7  Cl   2.691953   3.987740   4.512597   4.025622   2.727174
     8  Cl   4.007382   4.517956   4.011575   2.716656   1.723577
     9  Cl   4.517959   4.007389   2.712715   1.723580   2.716648
    10  Cl   3.987747   2.691962   1.730981   2.727161   4.025613
    11  H    1.084524   2.152348   3.394118   3.878853   3.397662
    12  H    2.152352   1.084525   2.141196   3.397657   3.878854
                    6          7          8          9         10
     6  C    0.000000
     7  Cl   1.730985   0.000000
     8  Cl   2.712706   3.156075   0.000000
     9  Cl   4.011570   5.436963   3.139530   0.000000
    10  Cl   4.512593   6.242891   5.436958   3.156070   0.000000
    11  H    2.141198   2.811363   4.853903   5.602433   4.844308
    12  H    3.394118   4.844303   5.602431   4.853909   2.811373
                   11         12
    11  H    0.000000
    12  H    2.492996   0.000000
 Stoichiometry    C6H2Cl4
 Framework group  C1[X(C6H2Cl4)]
 Deg. of freedom    30
 Full point group                 C1      NOp   1
 Largest Abelian subgroup         C1      NOp   1
 Largest concise Abelian subgroup C1      NOp   1
                         Standard orientation:                         
 ---------------------------------------------------------------------
 Center     Atomic      Atomic             Coordinates (Angstroms)
 Number     Number       Type             X           Y           Z
 ---------------------------------------------------------------------
      1          6           0        0.693233   -2.019722    0.000000
      2          6           0       -0.693218   -2.019727    0.000006
      3          6           0       -1.390959   -0.816194    0.000010
      4          6           0       -0.702255    0.401276    0.000018
      5          6           0        0.702246    0.401285    0.000027
      6          6           0        1.390959   -0.816182    0.000015
      7         17           0        3.121448   -0.857662   -0.000009
      8         17           0        1.569761    1.890625   -0.000003
      9         17           0       -1.569769    1.890621   -0.000005
     10         17           0       -3.121443   -0.857667   -0.000008
     11          1           0        1.246506   -2.952502   -0.000021
     12          1           0       -1.246490   -2.952510   -0.000015
 ---------------------------------------------------------------------
 Rotational constants (GHZ):      1.1578725      0.5453499      0.3707359
 Standard basis: 6-31+G(d) (6D, 7F)
 There are   210 symmetry adapted cartesian basis functions of A   symmetry.
 There are   210 symmetry adapted basis functions of A   symmetry.
   210 basis functions,   424 primitive gaussians,   210 cartesian basis functions
    53 alpha electrons       53 beta electrons
       nuclear repulsion energy       850.2541252317 Hartrees.
 NAtoms=   12 NActive=   12 NUniq=   12 SFac= 1.00D+00 NAtFMM=   60 NAOKFM=F Big=F
 Integral buffers will be    131072 words long.
 Raffenetti 2 integral format.
 Two-electron integral symmetry is turned on.
 One-electron integrals computed using PRISM.
 GSVD:  received Info=                   1 from GESDD.
 NBasis=   210 RedAO= T EigKep=  4.40D-06  NBF=   210
 NBsUse=   208 1.00D-06 EigRej=  9.53D-07 NBFU=   208
 Initial guess from the checkpoint file:  "/srv/scratch/z5358697/gauss/Gau-2427618.chk"
 B after Tr=     0.000000    0.000000    0.000000
         Rot=    1.000000    0.000000    0.000000   -0.000006 Ang=   0.00 deg.
 Requested convergence on RMS density matrix=1.00D-08 within 128 cycles.
 Requested convergence on MAX density matrix=1.00D-06.
 Requested convergence on             energy=1.00D-06.
 No special actions if energy rises.
 SCF Done:  E(RM062X) =  -2070.40879379     A.U. after   10 cycles
            NFock= 10  Conv=0.95D-08     -V/T= 2.0033
 Calling FoFJK, ICntrl=      2127 FMM=F ISym2X=0 I1Cent= 0 IOpClX= 0 NMat=1 NMatS=1 NMatT=0.
 ***** Axes restored to original set *****
 -------------------------------------------------------------------
 Center     Atomic                   Forces (Hartrees/Bohr)
 Number     Number              X              Y              Z
 -------------------------------------------------------------------
      1        6          -0.000067592    0.000044813   -0.000204427
      2        6           0.000193618   -0.000107762   -0.000021902
      3        6          -0.000351882    0.000191808    0.000089954
      4        6          -0.000060915    0.000040251   -0.000204525
      5        6           0.000187915   -0.000105078   -0.000035938
      6        6           0.000086760   -0.000061031    0.000394769
      7       17          -0.000069410    0.000044828   -0.000188904
      8       17           0.000061400   -0.000037905    0.000156745
      9       17          -0.000149718    0.000082835    0.000008272
     10       17           0.000182207   -0.000099863   -0.000015886
     11        1           0.000029330   -0.000016978    0.000035560
     12        1          -0.000041713    0.000024082   -0.000013718
 -------------------------------------------------------------------
 Cartesian Forces:  Max     0.000394769 RMS     0.000137288

 GradGradGradGradGradGradGradGradGradGradGradGradGradGradGradGradGradGrad
 Berny optimization.
 Using GEDIIS/GDIIS optimizer.
 FormGI is forming the generalized inverse of G from B-inverse, IUseBI=4.
 Internal  Forces:  Max     0.000352517 RMS     0.000112603
 Search for a local minimum.
 Step number   4 out of a maximum of   64
 All quantities printed in internal units (Hartrees-Bohrs-Radians)
 Mixed Optimization -- En-DIIS/RFO-DIIS
 Swapping is turned off.
 Update second derivatives using D2CorX and points    1    2    3    4
 DE= -4.44D-06 DEPred=-6.02D-06 R= 7.38D-01
 TightC=F SS=  1.41D+00  RLast= 6.32D-03 DXNew= 5.0454D-01 1.8945D-02
 Trust test= 7.38D-01 RLast= 6.32D-03 DXMaxT set to 3.00D-01
 ITU=  1  1  1  0
     Eigenvalues ---    0.02156   0.02156   0.02156   0.02156   0.02156
     Eigenvalues ---    0.02156   0.02157   0.02157   0.02158   0.13404
     Eigenvalues ---    0.16000   0.21103   0.22485   0.24992   0.25000
     Eigenvalues ---    0.25000   0.25031   0.29181   0.31437   0.31752
     Eigenvalues ---    0.32425   0.35134   0.35443   0.37206   0.41535
     Eigenvalues ---    0.42567   0.46470   0.46487   0.47468   0.54001
 En-DIIS/RFO-DIIS IScMMF=        0 using points:     4    3    2
 RFO step:  Lambda=-1.03273069D-06.
 DidBck=T Rises=F RFO-DIIS coefs:    0.76726    0.20960    0.02314
 Iteration  1 RMS(Cart)=  0.00049685 RMS(Int)=  0.00000014
 Iteration  2 RMS(Cart)=  0.00000014 RMS(Int)=  0.00000005
 Variable       Old X    -DE/DX   Delta X   Delta X   Delta X     New X
                                 (Linear)    (Quad)   (Total)
    R1        2.62001   0.00005  -0.00009   0.00030   0.00021   2.62022
    R2        2.62891   0.00006   0.00002   0.00011   0.00013   2.62904
    R3        2.04945  -0.00004  -0.00008  -0.00001  -0.00008   2.04937
    R4        2.62892   0.00006   0.00002   0.00011   0.00013   2.62904
    R5        2.04945  -0.00004  -0.00008  -0.00001  -0.00009   2.04937
    R6        2.64328  -0.00006   0.00008  -0.00036  -0.00028   2.64301
    R7        3.27108   0.00017  -0.00014   0.00058   0.00044   3.27152
    R8        2.65412  -0.00035  -0.00042  -0.00019  -0.00061   2.65352
    R9        3.25709   0.00001   0.00036  -0.00028   0.00008   3.25718
   R10        2.64329  -0.00006   0.00009  -0.00036  -0.00028   2.64301
   R11        3.25709   0.00001   0.00036  -0.00027   0.00008   3.25717
   R12        3.27109   0.00017  -0.00014   0.00058   0.00044   3.27153
    A1        2.09618  -0.00006   0.00017  -0.00034  -0.00017   2.09601
    A2        2.10616   0.00000  -0.00042   0.00028  -0.00014   2.10601
    A3        2.08085   0.00007   0.00025   0.00006   0.00031   2.08116
    A4        2.09618  -0.00007   0.00017  -0.00034  -0.00017   2.09601
    A5        2.10616   0.00000  -0.00043   0.00028  -0.00015   2.10601
    A6        2.08084   0.00007   0.00026   0.00006   0.00032   2.08116
    A7        2.10140   0.00002  -0.00040   0.00047   0.00007   2.10147
    A8        2.07223  -0.00020   0.00002  -0.00061  -0.00059   2.07164
    A9        2.10956   0.00018   0.00038   0.00013   0.00051   2.11008
   A10        2.08561   0.00005   0.00023  -0.00013   0.00010   2.08570
   A11        2.09935   0.00025   0.00031   0.00022   0.00053   2.09988
   A12        2.09823  -0.00030  -0.00054  -0.00009  -0.00062   2.09760
   A13        2.08560   0.00005   0.00022  -0.00012   0.00010   2.08570
   A14        2.09824  -0.00030  -0.00053  -0.00010  -0.00063   2.09761
   A15        2.09934   0.00026   0.00031   0.00023   0.00054   2.09988
   A16        2.10140   0.00002  -0.00039   0.00047   0.00007   2.10147
   A17        2.07221  -0.00020   0.00002  -0.00060  -0.00058   2.07164
   A18        2.10957   0.00018   0.00037   0.00014   0.00050   2.11008
    D1        0.00001   0.00000  -0.00002   0.00002   0.00000   0.00001
    D2        3.14158   0.00000   0.00001   0.00000   0.00001   3.14159
    D3       -3.14157   0.00000  -0.00003   0.00002   0.00000  -3.14158
    D4       -0.00001   0.00000   0.00000   0.00001   0.00001   0.00000
    D5       -0.00001   0.00000   0.00000   0.00001   0.00001   0.00000
    D6       -3.14158   0.00000  -0.00002   0.00002   0.00000  -3.14158
    D7        3.14158   0.00000   0.00001   0.00000   0.00001   3.14159
    D8        0.00001   0.00000  -0.00001   0.00001   0.00000   0.00001
    D9       -0.00001   0.00000   0.00002  -0.00003  -0.00001  -0.00001
   D10        3.14158   0.00000   0.00001   0.00000   0.00002   3.14159
   D11       -3.14158   0.00000   0.00000  -0.00001  -0.00002   3.14159
   D12        0.00001   0.00000  -0.00001   0.00002   0.00000   0.00001
   D13        0.00000   0.00000  -0.00001   0.00002   0.00001   0.00001
   D14        3.14157   0.00000   0.00001   0.00001   0.00002   3.14159
   D15       -3.14159   0.00000   0.00000  -0.00002  -0.00001   3.14158
   D16       -0.00001   0.00000   0.00002  -0.00002  -0.00001  -0.00002
   D17        0.00001   0.00000  -0.00001   0.00001   0.00000   0.00001
   D18        3.14157   0.00000   0.00004  -0.00003   0.00001   3.14157
   D19       -3.14157   0.00000  -0.00002   0.00001  -0.00001  -3.14158
   D20       -0.00001   0.00000   0.00003  -0.00003   0.00000  -0.00001
   D21       -0.00001   0.00000   0.00001  -0.00002  -0.00001  -0.00001
   D22        3.14157   0.00000   0.00003  -0.00003   0.00000   3.14157
   D23       -3.14156   0.00000  -0.00004   0.00002  -0.00002  -3.14157
   D24        0.00002   0.00000  -0.00002   0.00001  -0.00001   0.00001
         Item               Value     Threshold  Converged?
 Maximum Force            0.000353     0.000450     YES
 RMS     Force            0.000113     0.000300     YES
 Maximum Displacement     0.001976     0.001800     NO 
 RMS     Displacement     0.000497     0.001200     YES
 Predicted change in Energy=-7.898759D-07
 GradGradGradGradGradGradGradGradGradGradGradGradGradGradGradGradGradGrad

                          Input orientation:                          
 ---------------------------------------------------------------------
 Center     Atomic      Atomic             Coordinates (Angstroms)
 Number     Number       Type             X           Y           Z
 ---------------------------------------------------------------------
      1          6           0        1.892014   -1.039899   -0.117468
      2          6           0        2.921607   -1.631214    0.598658
      3          6           0        2.881148   -1.653407    1.989123
      4          6           0        1.804994   -1.081272    2.675193
      5          6           0        0.762322   -0.482432    1.949968
      6          6           0        0.815608   -0.467112    0.552447
      7         17           0       -0.449958    0.261301   -0.377536
      8         17           0       -0.572394    0.227879    2.777532
      9         17           0        1.757268   -1.110095    4.397914
     10         17           0        4.185856   -2.401134    2.846880
     11          1           0        1.914055   -1.017368   -1.201489
     12          1           0        3.765080   -2.080445    0.085979
 ---------------------------------------------------------------------
                    Distance matrix (angstroms):
                    1          2          3          4          5
     1  C    0.000000
     2  C    1.386561   0.000000
     3  C    2.406762   1.391230   0.000000
     4  C    2.794322   2.421003   1.398620   0.000000
     5  C    2.421005   2.794324   2.421185   1.404181   0.000000
     6  C    1.391230   2.406761   2.781688   2.421183   1.398621
     7  Cl   2.691764   3.987734   4.512588   4.025725   2.727643
     8  Cl   4.007691   4.517937   4.010957   2.715939   1.723621
     9  Cl   4.517937   4.007692   2.713037   1.723623   2.715937
    10  Cl   3.987735   2.691766   1.731215   2.727639   4.025723
    11  H    1.084479   2.152323   3.394085   3.878742   3.397694
    12  H    2.152325   1.084479   2.141414   3.397692   3.878744
                    6          7          8          9         10
     6  C    0.000000
     7  Cl   1.731217   0.000000
     8  Cl   2.713036   3.157619   0.000000
     9  Cl   4.010956   5.436681   3.137377   0.000000
    10  Cl   4.512586   6.243091   5.436677   3.157614   0.000000
    11  H    2.141415   2.811130   4.854449   5.602365   4.844087
    12  H    3.394086   4.844086   5.602365   4.854449   2.811133
                   11         12
    11  H    0.000000
    12  H    2.492789   0.000000
 Stoichiometry    C6H2Cl4
 Framework group  C1[X(C6H2Cl4)]
 Deg. of freedom    30
 Full point group                 C1      NOp   1
 Largest Abelian subgroup         C1      NOp   1
 Largest concise Abelian subgroup C1      NOp   1
                         Standard orientation:                         
 ---------------------------------------------------------------------
 Center     Atomic      Atomic             Coordinates (Angstroms)
 Number     Number       Type             X           Y           Z
 ---------------------------------------------------------------------
      1          6           0        0.693283   -2.019749    0.000003
      2          6           0       -0.693278   -2.019751    0.000004
      3          6           0       -1.390843   -0.816039   -0.000003
      4          6           0       -0.702091    0.401236    0.000008
      5          6           0        0.702090    0.401240    0.000019
      6          6           0        1.390845   -0.816034    0.000009
      7         17           0        3.121547   -0.858230   -0.000007
      8         17           0        1.568686    1.891166    0.000000
      9         17           0       -1.568691    1.891163   -0.000003
     10         17           0       -3.121544   -0.858233   -0.000003
     11          1           0        1.246398   -2.952572   -0.000005
     12          1           0       -1.246392   -2.952575   -0.000002
 ---------------------------------------------------------------------
 Rotational constants (GHZ):      1.1573213      0.5454702      0.3707349
 Standard basis: 6-31+G(d) (6D, 7F)
 There are   210 symmetry adapted cartesian basis functions of A   symmetry.
 There are   210 symmetry adapted basis functions of A   symmetry.
   210 basis functions,   424 primitive gaussians,   210 cartesian basis functions
    53 alpha electrons       53 beta electrons
       nuclear repulsion energy       850.2423913032 Hartrees.
 NAtoms=   12 NActive=   12 NUniq=   12 SFac= 1.00D+00 NAtFMM=   60 NAOKFM=F Big=F
 Integral buffers will be    131072 words long.
 Raffenetti 2 integral format.
 Two-electron integral symmetry is turned on.
 One-electron integrals computed using PRISM.
 GSVD:  received Info=                   1 from GESDD.
 NBasis=   210 RedAO= T EigKep=  4.39D-06  NBF=   210
 NBsUse=   208 1.00D-06 EigRej=  9.52D-07 NBFU=   208
 Initial guess from the checkpoint file:  "/srv/scratch/z5358697/gauss/Gau-2427618.chk"
 B after Tr=     0.000000    0.000000    0.000000
         Rot=    1.000000    0.000000    0.000000    0.000000 Ang=   0.00 deg.
 Requested convergence on RMS density matrix=1.00D-08 within 128 cycles.
 Requested convergence on MAX density matrix=1.00D-06.
 Requested convergence on             energy=1.00D-06.
 No special actions if energy rises.
 SCF Done:  E(RM062X) =  -2070.40879468     A.U. after    9 cycles
            NFock=  9  Conv=0.61D-08     -V/T= 2.0033
 Calling FoFJK, ICntrl=      2127 FMM=F ISym2X=0 I1Cent= 0 IOpClX= 0 NMat=1 NMatS=1 NMatT=0.
 ***** Axes restored to original set *****
 -------------------------------------------------------------------
 Center     Atomic                   Forces (Hartrees/Bohr)
 Number     Number              X              Y              Z
 -------------------------------------------------------------------
      1        6           0.000007844   -0.000002654   -0.000042875
      2        6           0.000030569   -0.000017188   -0.000026981
      3        6          -0.000126818    0.000072147   -0.000002638
      4        6           0.000057265   -0.000031783    0.000000419
      5        6          -0.000026306    0.000014134   -0.000059823
      6        6           0.000059267   -0.000036813    0.000127376
      7       17          -0.000038261    0.000023199   -0.000053147
      8       17          -0.000005385    0.000003116    0.000018891
      9       17          -0.000012109    0.000006444    0.000013649
     10       17           0.000059865   -0.000033906    0.000014613
     11        1           0.000004315   -0.000002481    0.000010229
     12        1          -0.000010245    0.000005785    0.000000286
 -------------------------------------------------------------------
 Cartesian Forces:  Max     0.000127376 RMS     0.000042760

 GradGradGradGradGradGradGradGradGradGradGradGradGradGradGradGradGradGrad
 Berny optimization.
 Using GEDIIS/GDIIS optimizer.
 FormGI is forming the generalized inverse of G from B-inverse, IUseBI=4.
 Internal  Forces:  Max     0.000067001 RMS     0.000020863
 Search for a local minimum.
 Step number   5 out of a maximum of   64
 All quantities printed in internal units (Hartrees-Bohrs-Radians)
 Mixed Optimization -- En-DIIS/RFO-DIIS
 Swapping is turned off.
 Update second derivatives using D2CorX and points    1    2    3    4    5
 DE= -8.91D-07 DEPred=-7.90D-07 R= 1.13D+00
 Trust test= 1.13D+00 RLast= 1.97D-03 DXMaxT set to 3.00D-01
 ITU=  0  1  1  1  0
     Eigenvalues ---    0.02156   0.02156   0.02156   0.02156   0.02156
     Eigenvalues ---    0.02157   0.02157   0.02157   0.02158   0.13368
     Eigenvalues ---    0.16000   0.19048   0.22485   0.23071   0.25000
     Eigenvalues ---    0.25000   0.25000   0.29206   0.30574   0.31437
     Eigenvalues ---    0.32425   0.34995   0.35134   0.35517   0.42564
     Eigenvalues ---    0.42965   0.46481   0.46577   0.47842   0.55225
 En-DIIS/RFO-DIIS IScMMF=        0 using points:     5    4    3    2
 RFO step:  Lambda=-4.88555481D-08.
 DidBck=F Rises=F RFO-DIIS coefs:    1.31430   -0.24432   -0.06276   -0.00722
 Iteration  1 RMS(Cart)=  0.00010399 RMS(Int)=  0.00000001
 Iteration  2 RMS(Cart)=  0.00000002 RMS(Int)=  0.00000001
 Variable       Old X    -DE/DX   Delta X   Delta X   Delta X     New X
                                 (Linear)    (Quad)   (Total)
    R1        2.62022  -0.00002   0.00009  -0.00013  -0.00004   2.62018
    R2        2.62904   0.00002   0.00003   0.00001   0.00005   2.62909
    R3        2.04937  -0.00001   0.00000  -0.00004  -0.00004   2.04933
    R4        2.62904   0.00002   0.00003   0.00001   0.00005   2.62909
    R5        2.04937  -0.00001   0.00000  -0.00004  -0.00004   2.04933
    R6        2.64301  -0.00003  -0.00011  -0.00001  -0.00012   2.64289
    R7        3.27152   0.00007   0.00018   0.00012   0.00030   3.27183
    R8        2.65352   0.00002  -0.00006   0.00014   0.00007   2.65359
    R9        3.25718   0.00001  -0.00009   0.00011   0.00002   3.25720
[...]
    R2        2.62904   0.00002   0.00000   0.00008   0.00008   2.62912
    R3        2.04937  -0.00001   0.00000  -0.00004  -0.00004   2.04933
    R4        2.62904   0.00002   0.00000   0.00007   0.00007   2.62912
    R5        2.04937  -0.00001   0.00000  -0.00004  -0.00004   2.04933
    R6        2.64301  -0.00003   0.00000  -0.00017  -0.00017   2.64284
    R7        3.27152   0.00007   0.00000   0.00033   0.00033   3.27185
    R8        2.65352   0.00002   0.00000   0.00013   0.00013   2.65365
    R9        3.25718   0.00001   0.00000   0.00002   0.00002   3.25720
   R10        2.64301  -0.00003   0.00000  -0.00017  -0.00017   2.64284
   R11        3.25717   0.00001   0.00000   0.00002   0.00002   3.25720
   R12        3.27153   0.00007   0.00000   0.00032   0.00032   3.27185
    A1        2.09601  -0.00002   0.00000  -0.00011  -0.00011   2.09590
    A2        2.10601   0.00000   0.00000   0.00005   0.00005   2.10606
    A3        2.08116   0.00001   0.00000   0.00006   0.00006   2.08122
    A4        2.09601  -0.00002   0.00000  -0.00011  -0.00011   2.09590
    A5        2.10601   0.00000   0.00000   0.00005   0.00005   2.10606
    A6        2.08116   0.00001   0.00000   0.00006   0.00006   2.08122
    A7        2.10147   0.00003   0.00000   0.00021   0.00021   2.10168
    A8        2.07164  -0.00005   0.00000  -0.00027  -0.00027   2.07137
    A9        2.11008   0.00002   0.00000   0.00006   0.00006   2.11013
   A10        2.08570  -0.00001   0.00000  -0.00010  -0.00010   2.08560
   A11        2.09988   0.00003   0.00000   0.00013   0.00013   2.10001
   A12        2.09760  -0.00001   0.00000  -0.00003  -0.00003   2.09757
   A13        2.08570  -0.00001   0.00000  -0.00010  -0.00010   2.08560
   A14        2.09761  -0.00002   0.00000  -0.00004  -0.00004   2.09757
   A15        2.09988   0.00003   0.00000   0.00013   0.00013   2.10001
   A16        2.10147   0.00003   0.00000   0.00021   0.00021   2.10168
   A17        2.07164  -0.00005   0.00000  -0.00026  -0.00026   2.07137
   A18        2.11008   0.00002   0.00000   0.00005   0.00005   2.11013
    D1        0.00001   0.00000   0.00000  -0.00001  -0.00001   0.00000
    D2        3.14159   0.00000   0.00000   0.00000   0.00000  -3.14159
    D3       -3.14158   0.00000   0.00000  -0.00002  -0.00002   3.14159
    D4        0.00000   0.00000   0.00000   0.00000   0.00000   0.00000
    D5        0.00000   0.00000   0.00000   0.00000   0.00000   0.00000
    D6       -3.14158   0.00000   0.00000  -0.00001  -0.00001   3.14159
    D7        3.14159   0.00000   0.00000   0.00000   0.00000  -3.14159
    D8        0.00001   0.00000   0.00000  -0.00001  -0.00001   0.00000
    D9       -0.00001   0.00000   0.00000   0.00001   0.00001   0.00000
   D10        3.14159   0.00000   0.00000   0.00000   0.00000  -3.14159
   D11        3.14159   0.00000   0.00000   0.00000   0.00000   3.14159
   D12        0.00001   0.00000   0.00000  -0.00001  -0.00001   0.00000
   D13        0.00001   0.00000   0.00000  -0.00001  -0.00001   0.00000
   D14        3.14159   0.00000   0.00000   0.00000   0.00000  -3.14159
   D15        3.14158   0.00000   0.00000   0.00001   0.00001   3.14159
   D16       -0.00002   0.00000   0.00000   0.00002   0.00002   0.00000
   D17        0.00001   0.00000   0.00000  -0.00001  -0.00001   0.00000
   D18        3.14157   0.00000   0.00000   0.00002   0.00002  -3.14159
   D19       -3.14158   0.00000   0.00000  -0.00002  -0.00002   3.14159
   D20       -0.00001   0.00000   0.00000   0.00002   0.00002   0.00000
   D21       -0.00001   0.00000   0.00000   0.00001   0.00001   0.00000
   D22        3.14157   0.00000   0.00000   0.00002   0.00002  -3.14159
   D23       -3.14157   0.00000   0.00000  -0.00002  -0.00002   3.14159
   D24        0.00001   0.00000   0.00000  -0.00001  -0.00001   0.00000
         Item               Value     Threshold  Converged?
 Maximum Force            0.000067     0.000450     YES
 RMS     Force            0.000021     0.000300     YES
 Maximum Displacement     0.000348     0.001800     YES
 RMS     Displacement     0.000103     0.001200     YES
 Predicted change in Energy=-5.970685D-08
 Optimization completed.
    -- Stationary point found.
                           ----------------------------
                           !   Optimized Parameters   !
                           ! (Angstroms and Degrees)  !
 --------------------------                            --------------------------
 ! Name  Definition              Value          Derivative Info.                !
 --------------------------------------------------------------------------------
 ! R1    R(1,2)                  1.3866         -DE/DX =    0.0                 !
 ! R2    R(1,6)                  1.3912         -DE/DX =    0.0                 !
 ! R3    R(1,11)                 1.0845         -DE/DX =    0.0                 !
 ! R4    R(2,3)                  1.3912         -DE/DX =    0.0                 !
 ! R5    R(2,12)                 1.0845         -DE/DX =    0.0                 !
 ! R6    R(3,4)                  1.3986         -DE/DX =    0.0                 !
 ! R7    R(3,10)                 1.7312         -DE/DX =    0.0001              !
 ! R8    R(4,5)                  1.4042         -DE/DX =    0.0                 !
 ! R9    R(4,9)                  1.7236         -DE/DX =    0.0                 !
 ! R10   R(5,6)                  1.3986         -DE/DX =    0.0                 !
 ! R11   R(5,8)                  1.7236         -DE/DX =    0.0                 !
 ! R12   R(6,7)                  1.7312         -DE/DX =    0.0001              !
 ! A1    A(2,1,6)              120.0927         -DE/DX =    0.0                 !
 ! A2    A(2,1,11)             120.6656         -DE/DX =    0.0                 !
 ! A3    A(6,1,11)             119.2417         -DE/DX =    0.0                 !
 ! A4    A(1,2,3)              120.0927         -DE/DX =    0.0                 !
 ! A5    A(1,2,12)             120.6657         -DE/DX =    0.0                 !
 ! A6    A(3,2,12)             119.2416         -DE/DX =    0.0                 !
 ! A7    A(2,3,4)              120.4054         -DE/DX =    0.0                 !
 ! A8    A(2,3,10)             118.6962         -DE/DX =   -0.0001              !
 ! A9    A(4,3,10)             120.8984         -DE/DX =    0.0                 !
 ! A10   A(3,4,5)              119.502          -DE/DX =    0.0                 !
 ! A11   A(3,4,9)              120.3142         -DE/DX =    0.0                 !
 ! A12   A(5,4,9)              120.1838         -DE/DX =    0.0                 !
 ! A13   A(4,5,6)              119.5018         -DE/DX =    0.0                 !
 ! A14   A(4,5,8)              120.184          -DE/DX =    0.0                 !
 ! A15   A(6,5,8)              120.3142         -DE/DX =    0.0                 !
 ! A16   A(1,6,5)              120.4055         -DE/DX =    0.0                 !
 ! A17   A(1,6,7)              118.696          -DE/DX =    0.0                 !
 ! A18   A(5,6,7)              120.8986         -DE/DX =    0.0                 !
 ! D1    D(6,1,2,3)              0.0006         -DE/DX =    0.0                 !
 ! D2    D(6,1,2,12)          -180.0001         -DE/DX =    0.0                 !
 ! D3    D(11,1,2,3)           180.0008         -DE/DX =    0.0                 !
 ! D4    D(11,1,2,12)            0.0001         -DE/DX =    0.0                 !
 ! D5    D(2,1,6,5)              0.0001         -DE/DX =    0.0                 !
 ! D6    D(2,1,6,7)            180.0006         -DE/DX =    0.0                 !
 ! D7    D(11,1,6,5)          -180.0001         -DE/DX =    0.0                 !
 ! D8    D(11,1,6,7)             0.0004         -DE/DX =    0.0                 !
 ! D9    D(1,2,3,4)             -0.0009         -DE/DX =    0.0                 !
 ! D10   D(1,2,3,10)          -180.0            -DE/DX =    0.0                 !
 ! D11   D(12,2,3,4)           179.9998         -DE/DX =    0.0                 !
 ! D12   D(12,2,3,10)            0.0007         -DE/DX =    0.0                 !
 ! D13   D(2,3,4,5)              0.0003         -DE/DX =    0.0                 !
 ! D14   D(2,3,4,9)           -180.0001         -DE/DX =    0.0                 !
 ! D15   D(10,3,4,5)           179.9995         -DE/DX =    0.0                 !
 ! D16   D(10,3,4,9)            -0.0009         -DE/DX =    0.0                 !
 ! D17   D(3,4,5,6)              0.0004         -DE/DX =    0.0                 !
 ! D18   D(3,4,5,8)           -180.0012         -DE/DX =    0.0                 !
 ! D19   D(9,4,5,6)            180.0008         -DE/DX =    0.0                 !
 ! D20   D(9,4,5,8)             -0.0008         -DE/DX =    0.0                 !
 ! D21   D(4,5,6,1)             -0.0007         -DE/DX =    0.0                 !
 ! D22   D(4,5,6,7)           -180.0011         -DE/DX =    0.0                 !
 ! D23   D(8,5,6,1)            180.001          -DE/DX =    0.0                 !
 ! D24   D(8,5,6,7)              0.0005         -DE/DX =    0.0                 !
 --------------------------------------------------------------------------------
 GradGradGradGradGradGradGradGradGradGradGradGradGradGradGradGradGradGrad

 1\1\GINC-KATANA3\Freq\RM062X\6-31+G(d)\C6H2Cl4\Z5358697\16-Mar-2025\0\
 \#N Geom=AllCheck Guess=TCheck SCRF=Check GenChk RM062X/6-31+G(d) Freq
 \\1,2,3,4-tetrachlorobenzene\\0,1\C,1.8920140158,-1.0398993114,-0.1174
 680897\C,2.921606806,-1.6312143206,0.5986581096\C,2.881147789,-1.65340
 71608,1.9891227841\C,1.804994405,-1.081271729,2.6751926084\C,0.7623224
 225,-0.4824320239,1.9499680256\C,0.8156079489,-0.4671123481,0.55244685
 66\Cl,-0.4499584606,0.2613005643,-0.3775361137\Cl,-0.5723937643,0.2278
 78887,2.7775315396\Cl,1.7572677209,-1.1100952035,4.3979139153\Cl,4.185
 8557368,-2.4011342156,2.846879942\H,1.9140551541,-1.0173682058,-1.2014
 887145\H,3.7650802259,-2.0804449326,0.0859791368\\Version=ES64L-G09Rev
 D.01\State=1-A\HF=-2070.4087947\RMSD=1.307e-09\RMSF=4.276e-05\ZeroPoin
 t=0.062886\Thermal=0.0719405\Dipole=0.3783594,-0.1865275,-0.6979922\Di
 poleDeriv=-0.1232196,0.0200628,-0.0938534,0.018905,-0.1043714,0.050580
 2,-0.0577422,0.0306467,-0.053848,-0.1287905,0.0218816,-0.0545401,0.023
 0374,-0.1059518,0.0286481,-0.0906502,0.048582,-0.0466947,0.6584465,-0.
 3868576,0.3567188,-0.3893279,0.1997008,-0.1997493,0.4340816,-0.2424666
 ,0.0667978,-0.2266454,0.1300405,-0.0041237,0.1304606,-0.0624806,-0.026
 9624,-0.0173175,-0.019675,0.9216305,0.5187711,-0.2673277,-0.4456494,-0
 .2677394,0.1485605,0.2474005,-0.4324484,0.2401241,-0.0348258,0.4540354
 ,-0.2802419,0.5515479,-0.2777643,0.1418195,-0.3157016,0.4741797,-0.272
 9952,0.3290923,-0.3894389,0.21078,-0.3161473,0.2101316,-0.1478193,0.18
 30073,-0.2959897,0.1718833,-0.2909306,-0.4142165,0.2142279,0.2340133,0
 .2137904,-0.1265925,-0.1254581,0.2473495,-0.1328279,-0.1288011,0.00462
 69,-0.0097176,0.0066781,-0.0092882,-0.0080114,0.0172475,-0.0066638,0.0
 246083,-0.6662284,-0.4826135,0.2598612,-0.2424481,0.2605018,-0.1742022
 ,0.138496,-0.2626031,0.1496267,-0.1713698,0.0825435,0.0340788,-0.00803
 14,0.0339787,0.1247768,0.0085742,-0.0048755,0.0068325,0.0144657,0.0465
 011,0.053212,0.0158352,0.0533145,0.1145716,-0.0060822,0.0126797,-0.004
 339,0.0607121\Polar=126.6464444,-36.5310889,81.432438,9.4816535,-7.581
 5482,134.329776\PG=C01 [X(C6H2Cl4)]\NImag=0\\0.56988642,-0.24418892,0.
 26336714,0.00456848,-0.02312926,0.77156068,-0.24927262,0.10953507,-0.1
 2788777,0.62056316,0.10728423,-0.11990317,0.07503477,-0.27123337,0.277
 71647,-0.05758218,0.03622200,-0.19677499,-0.02455330,-0.00497506,0.706
 53301,0.03458073,-0.01588416,-0.02174507,-0.10307549,0.02506836,-0.015
 58632,0.46545725,-0.01406124,0.01189199,0.01302808,0.02285891,-0.07176
 080,0.01784688,-0.19211220,0.22041765,-0.07868185,0.04446062,-0.027431
 69,0.05342407,-0.02025071,-0.34717340,-0.04816747,0.00964023,0.6440457
 7,-0.06199218,0.03447449,0.00009653,0.02908013,-0.01614176,0.07714956,
 -0.22108941,0.08901048,0.05157207,0.51352218,0.03446728,-0.01856593,-0
 .00001879,-0.01433983,0.01356715,-0.04171154,0.08688352,-0.10401872,-0
 .02533520,-0.22250256,0.23294979,0.00033668,-0.00015132,-0.00061725,0.
 02086081,-0.01063701,-0.02315368,0.11799862,-0.06200663,-0.15479500,-0
 .01080241,-0.00817559,0.55138457,0.02726654,-0.01337143,0.02190332,-0.
 01283494,0.00823393,-0.02791039,-0.04359274,0.02417328,0.02682014,-0.2
 0490270,0.08687000,-0.11307466,0.45845685,-0.01517364,0.01305310,-0.01
 128660,0.00824161,-0.00464772,0.01746196,0.02609526,-0.01210698,-0.017
 14007,0.08476514,-0.10300318,0.06566763,-0.19311309,0.21735477,0.07819
 185,-0.04236118,-0.02082594,-0.02815040,0.01759460,-0.06369252,-0.0332
 0871,0.01599946,0.07463715,-0.04734909,0.02938363,-0.15541525,0.020841
 17,-0.02790508,0.62204351,-0.23308983,0.09224225,0.12813267,-0.0448972
 1,0.02835265,-0.03301193,-0.01986810,0.00976237,0.03565812,0.03537259,
 -0.01796742,-0.01855532,-0.09078055,0.01946934,-0.02330761,0.48028084,
 0.09445113,-0.10857236,-0.06683767,0.02652960,-0.01061092,0.01598352,0
 .00983363,-0.00498139,-0.01760273,-0.01604526,0.01025122,0.01115408,0.
 01734250,-0.06712280,0.02135396,-0.20001984,0.22461146,0.05912216,-0.0
 2874030,-0.18034796,0.02392493,-0.01544911,0.07454906,0.03343897,-0.01
 637739,-0.06516543,-0.07858432,0.04429348,-0.02668641,0.04311939,-0.01
 531651,-0.32199780,-0.05668309,0.01495510,0.62502587,-0.03078864,0.020
 06809,-0.02231339,0.00098525,0.00191458,0.00588717,0.00053594,-0.00086
 135,-0.00145303,0.00127681,0.00171580,0.00110668,-0.01034734,0.0076225
 0,-0.00749656,-0.11232296,0.05144613,-0.05876848,0.15052883,0.01936889
 ,-0.00681678,0.01231534,0.00205708,0.00375851,-0.00310079,-0.00090695,
 -0.00063242,0.00076018,0.00163259,0.00356077,-0.00040641,0.00827198,-0
 .00169754,0.00491179,0.05132814,-0.05197013,0.03429362,-0.07953445,0.0
 5669423,-0.00046524,0.00025418,0.00435237,0.00143696,-0.00064405,0.000
 13249,-0.00003145,-0.00002457,0.00020299,0.00370727,-0.00184214,-0.001
 93903,-0.02778395,0.01611135,-0.02113482,-0.05508903,0.03226238,-0.080
 37243,0.08240135,-0.04858821,0.10806156,0.00383373,0.00011999,0.000426
 49,-0.00187215,0.00045239,0.00069559,0.00238405,0.00131503,-0.00410348
 ,-0.03045646,0.01806103,0.01695397,-0.12391581,0.05521005,0.05526290,-
 0.01485632,0.00992058,0.01101227,0.00229939,-0.00178862,-0.00315997,0.
 16894476,0.00024607,0.00393911,0.00002776,0.00044234,-0.00124317,-0.00
 041859,0.00124066,0.00376516,0.00244645,0.01863001,-0.00674313,-0.0092
 9516,0.05521617,-0.05025387,-0.02887192,0.00931033,-0.00121470,-0.0053
 6108,-0.00201267,-0.00007644,0.00198569,-0.08605490,0.05484868,-0.0035
 1033,0.00220117,-0.00414813,0.00100627,-0.00059006,0.00006665,-0.00177
 762,0.00116233,-0.00112295,-0.00080421,0.00050812,0.00124049,0.0550554
 2,-0.02875762,-0.07175145,0.03007306,-0.01588326,-0.01867786,0.0038392
 3,-0.00187818,-0.00865927,-0.07678147,0.03936359,0.10299419,0.00008661
 ,-0.00060288,-0.00011928,-0.00216955,0.00344976,-0.00006062,0.00067422
 ,0.00102248,0.02114864,-0.03417551,0.00732898,0.00348990,0.00085692,0.
 00191958,-0.01879723,-0.00150807,0.00331775,0.00045882,-0.00000214,0.0
 0002179,-0.00102491,-0.00446409,0.00207931,-0.00822864,0.04523193,-0.0
 0059301,-0.00068857,0.00011178,0.00332372,0.00223933,0.00005025,0.0016
 3297,0.00318226,-0.01031899,0.00732215,-0.02484898,0.00339668,0.001350
 94,0.00212246,0.01172821,0.00339227,0.00266305,-0.00023243,0.00000899,
 -0.00004653,0.00060814,0.00183532,-0.00233270,0.00451511,-0.02003829,0
 .01982558,-0.00042993,0.00028327,-0.00244669,0.00387622,-0.00212317,0.
 00355493,0.00208820,0.00020366,-0.03860529,0.00369726,0.00328204,-0.18
 689550,-0.00103922,0.00192470,-0.03893864,-0.00186703,0.00105173,0.003
 87130,-0.00062474,0.00038719,-0.00134367,-0.00060866,0.00030850,-0.000
 31735,-0.00569478,-0.00496311,0.26172911,0.00373387,0.00059025,-0.0001
 4240,-0.01096703,0.00879116,-0.01185473,-0.11731439,0.05399393,-0.0522
 2027,-0.02725279,0.01729414,-0.01806949,0.00155478,0.00148408,0.003547
 46,-0.00048780,-0.00036053,0.00055681,-0.00113669,0.00051827,-0.000874
 63,-0.00142472,0.00078097,-0.00020747,-0.00485210,0.00202779,0.0009493
 9,0.15845774,0.00044777,0.00453675,0.00034090,0.00949076,-0.00120510,0
 .00735613,0.05411148,-0.05338525,0.03047494,0.01664484,-0.00648461,0.0
 1005442,0.00156742,0.00363960,-0.00174264,-0.00031514,-0.00092226,-0.0
 0039135,0.00051781,-0.00055000,0.00048739,0.00076818,-0.00044934,0.000
 09841,0.00180362,-0.00210115,-0.00057664,-0.08376836,0.05894185,0.0043
 0775,-0.00211591,-0.00339440,-0.03370285,0.01941739,-0.02108059,-0.055
 89983,0.03250629,-0.07396697,0.00221783,-0.00114530,0.00055731,0.00094
 692,-0.00030680,-0.00229578,-0.00086476,0.00039339,0.00151657,-0.00086
 031,0.00047948,-0.00039120,0.00019271,-0.00012253,0.00048172,0.0079486
 6,-0.00444062,0.00051688,0.07784409,-0.04574848,0.09788619,-0.05209546
 ,0.00855088,0.00548913,0.00511690,0.00006946,-0.02385931,-0.00094616,0
 .00448046,-0.00175511,-0.00140040,0.00022051,-0.00006638,-0.00162276,0
 .00393548,0.00115688,0.00180948,-0.00020542,0.02489623,-0.00022593,-0.
 00142442,0.00080672,-0.00048194,0.00026994,0.00131836,0.00004366,-0.00
 016542,-0.00003375,-0.00043817,0.00029209,-0.00109471,0.05062117,0.008
 46770,-0.04118902,0.00709002,-0.00074763,0.00383638,0.01360370,0.00448
 041,0.00455735,0.00116667,0.00021707,-0.00112426,-0.00001287,0.0039113
 8,0.00342913,-0.00047438,0.00065523,0.00294500,-0.01330182,-0.00137195
 ,-0.00198385,-0.00056810,0.00030818,-0.00006368,-0.00071733,-0.0001664
 2,-0.00016628,0.00000735,0.00026126,-0.00013668,0.00061971,-0.01378750
 ,0.03307368,0.00808036,0.00565964,-0.35244853,0.00166970,-0.00048986,-
 0.00963227,-0.00175010,0.00116398,0.00088668,0.00003457,-0.00006861,0.
 00054215,0.00191346,-0.00089229,0.00044883,-0.00198640,0.00153904,-0.0
 1094106,-0.00083256,0.00033684,0.00107615,0.00012382,-0.00005786,-0.00
 024450,-0.00000219,-0.00001008,0.00009471,-0.00013247,0.00008850,-0.00
 045264,-0.00709678,-0.00711933,0.37003283,-0.01214917,0.00846637,0.011
 59127,-0.23065645,0.10375860,0.11068646,0.00225409,0.00041786,-0.00224
 184,0.00201773,0.00196855,-0.00017840,-0.00013824,-0.00045630,-0.00069
 067,0.00034792,0.00378973,-0.00249369,-0.00080252,0.00045569,0.0000768
 8,0.00000957,-0.00014823,0.00001740,0.00027814,-0.00009744,-0.00031294
 ,0.00012730,-0.00156047,-0.00103552,-0.00038040,-0.00222773,-0.0000214
 2,0.23909203,0.00928373,-0.00105228,-0.00667633,0.10384174,-0.09174697
 ,-0.05831846,-0.00044298,0.00307115,0.00169862,0.00199281,0.00445988,0
 .00041218,-0.00045307,-0.00076699,0.00038354,0.00378981,0.00492382,0.0
 0162777,0.00048652,-0.00023984,-0.00004205,-0.00014723,-0.00017594,-0.
 00002229,-0.00013568,0.00015152,0.00021448,-0.00161297,-0.00188380,0.0
 0046338,-0.00223606,-0.00317777,-0.00014996,-0.11436663,0.08643721,-0.
 01393776,0.00741708,0.01252253,0.10809535,-0.05688773,-0.12332868,0.02
 464079,-0.01314231,-0.01151186,-0.00093508,0.00082990,-0.00422241,-0.0
 0079161,0.00043934,-0.00107729,-0.00249868,0.00163046,-0.00077386,-0.0
 0088535,0.00048916,0.00001486,-0.00001417,-0.00000487,0.00013846,0.000
 88161,-0.00044497,-0.00121979,0.00060370,-0.00044158,0.00062291,0.0002
 3872,-0.00029362,0.00063765,-0.11539753,0.06040914,0.12819749\\-0.0000
 0785,0.00000266,0.00004287,-0.00003056,0.00001718,0.00002699,0.0001268
 3,-0.00007216,0.00000264,-0.00005728,0.00003179,-0.00000041,0.00002631
 ,-0.00001413,0.00005984,-0.00005927,0.00003682,-0.00012739,0.00003826,
 -0.00002320,0.00005315,0.00000538,-0.00000312,-0.00001889,0.00001211,-
 0.00000644,-0.00001365,-0.00005987,0.00003391,-0.00001462,-0.00000431,
 0.00000248,-0.00001023,0.00001025,-0.00000579,-0.00000029\\\@


 LEARN FROM YESTERDAY,
 LIVE FOR TODAY,
 LOOK TO TOMORROW,
 REST THIS AFTERNOON.

           -- SNOOPY
 Job cpu time:       0 days  0 hours  7 minutes 13.0 seconds.
 File lengths (MBytes):  RWF=    203 Int=      0 D2E=      0 Chk=      5 Scr=      2
 Normal termination of Gaussian 09 at Sun Mar 16 21:07:39 2025.
