 Entering Gaussian System, Link 0=g09
 Initial command:
 /apps/z_install_tree/linux-rocky8-ivybridge/gcc-12.2.0/gaussian-09-D.01-wczn3gur5lpur3omlkzwa2l5ecyxp5ef/g09/l1.exe "/srv/scratch/z5358697/gauss/Gau-997259.inp" -scrdir="/srv/scratch/z5358697/gauss/"
 Entering Link 1 = /apps/z_install_tree/linux-rocky8-ivybridge/gcc-12.2.0/gaussian-09-D.01-wczn3gur5lpur3omlkzwa2l5ecyxp5ef/g09/l1.exe PID=    997260.
  
 Copyright (c) 1988,1990,1992,1993,1995,1998,2003,2009,2013,
            Gaussian, Inc.  All Rights Reserved.
  
 This is part of the Gaussian(R) 09 program.  It is based on
 the Gaussian(R) 03 system (copyright 2003, Gaussian, Inc.),
 the Gaussian(R) 98 system (copyright 1998, Gaussian, Inc.),
 the Gaussian(R) 94 system (copyright 1995, Gaussian, Inc.),
 the Gaussian 92(TM) system (copyright 1992, Gaussian, Inc.),
 the Gaussian 90(TM) system (copyright 1990, Gaussian, Inc.),
 the Gaussian 88(TM) system (copyright 1988, Gaussian, Inc.),
 the Gaussian 86(TM) system (copyright 1986, Carnegie Mellon
 University), and the Gaussian 82(TM) system (copyright 1983,
 Carnegie Mellon University). Gaussian is a federally registered
 trademark of Gaussian, Inc.
  
 This software contains proprietary and confidential information,
 including trade secrets, belonging to Gaussian, Inc.
  
 This software is provided under written license and may be
 used, copied, transmitted, or stored only in accord with that
 written license.
  
 The following legend is applicable only to US Government
 contracts under FAR:
  
                    RESTRICTED RIGHTS LEGEND
  
 Use, reproduction and disclosure by the US Government is
 subject to restrictions as set forth in subparagraphs (a)
 and (c) of the Commercial Computer Software - Restricted
 Rights clause in FAR 52.227-19.
  
 Gaussian, Inc.
 340 Quinnipiac St., Bldg. 40, Wallingford CT 06492
  
  
 ---------------------------------------------------------------
 Warning -- This program may not be used in any manner that
 competes with the business of Gaussian, Inc. or will provide
 assistance to any competitor of Gaussian, Inc.  The licensee
 of this program is prohibited from giving any competitor of
 Gaussian, Inc. access to this program.  By using this program,
 the user acknowledges that Gaussian, Inc. is engaged in the
 business of creating and licensing software in the field of
 computational chemistry and represents and warrants to the
 licensee that it is not a competitor of Gaussian, Inc. and that
 it will not use this program in any manner prohibited above.
 ---------------------------------------------------------------
  

 Cite this work as:
 Gaussian 09, Revision D.01,
 M. J. Frisch, G. W. Trucks, H. B. Schlegel, G. E. Scuseria, 
 M. A. Robb, J. R. Cheeseman, G. Scalmani, V. Barone, B. Mennucci, 
 G. A. Petersson, H. Nakatsuji, M. Caricato, X. Li, H. P. Hratchian, 
 A. F. Izmaylov, J. Bloino, G. Zheng, J. L. Sonnenberg, M. Hada, 
 M. Ehara, K. Toyota, R. Fukuda, J. Hasegawa, M. Ishida, T. Nakajima, 
 Y. Honda, O. Kitao, H. Nakai, T. Vreven, J. A. Montgomery, Jr., 
 J. E. Peralta, F. Ogliaro, M. Bearpark, J. J. Heyd, E. Brothers, 
 K. N. Kudin, V. N. Staroverov, T. Keith, R. Kobayashi, J. Normand, 
 K. Raghavachari, A. Rendell, J. C. Burant, S. S. Iyengar, J. Tomasi, 
 M. Cossi, N. Rega, J. M. Millam, M. Klene, J. E. Knox, J. B. Cross, 
 V. Bakken, C. Adamo, J. Jaramillo, R. Gomperts, R. E. Stratmann, 
 O. Yazyev, A. J. Austin, R. Cammi, C. Pomelli, J. W. Ochterski, 
 R. L. Martin, K. Morokuma, V. G. Zakrzewski, G. A. Voth, 
 P. Salvador, J. J. Dannenberg, S. Dapprich, A. D. Daniels, 
 O. Farkas, J. B. Foresman, J. V. Ortiz, J. Cioslowski, 
 and D. J. Fox, Gaussian, Inc., Wallingford CT, 2013.
 
 ******************************************
 Gaussian 09:  ES64L-G09RevD.01 24-Apr-2013
                15-Mar-2025 
 ******************************************
 ---------------------------------
 #m062X/6-31+G(d) OPT Freq=noraman
 ---------------------------------
 1/14=-1,18=20,19=15,26=3,38=1/1,3;
 2/9=110,12=2,17=6,18=5,40=1/2;
 3/5=1,6=6,7=11,11=2,16=1,25=1,30=1,71=1,74=-55/1,2,3;
 4//1;
 5/5=2,38=5/2;
 6/7=2,8=2,9=2,10=2,28=1/1;
 7//1,2,3,16;
 1/14=-1,18=20,19=15,26=3/3(2);
 2/9=110/2;
 99//99;
 2/9=110/2;
 3/5=1,6=6,7=11,11=2,16=1,25=1,30=1,71=1,74=-55/1,2,3;
 4/5=5,16=3,69=1/1;
 5/5=2,38=5/2;
 7//1,2,3,16;
 1/14=-1,18=20,19=15,26=3/3(-5);
 2/9=110/2;
 6/7=2,8=2,9=2,10=2,19=2,28=1/1;
 99/9=1/99;
 ----------------
 2-chloropyridine
 ----------------
 Symbolic Z-matrix:
 Charge =  0 Multiplicity = 1
 C                     1.3879   -0.0684    1.6522 
 C                     0.2265   -0.4197    0.9733 
 C                    -0.6317   -1.3224    1.5803 
 N                    -0.4092   -1.8816    2.7908 
 C                     0.7299   -1.5161    3.4206 
 C                     1.652    -0.6227    2.8997 
 Cl                    0.9732   -2.2488    4.9527 
 H                     2.0857    0.6366    1.2103 
 H                    -0.0002    0.0006    0.0001 
 H                    -1.551    -1.6287    1.0921 
 H                     2.5552   -0.3545    3.4378 
 

 GradGradGradGradGradGradGradGradGradGradGradGradGradGradGradGradGradGrad
 Berny optimization.
 Initialization pass.
                           ----------------------------
                           !    Initial Parameters    !
                           ! (Angstroms and Degrees)  !
 --------------------------                            --------------------------
 ! Name  Definition              Value          Derivative Info.                !
 --------------------------------------------------------------------------------
 ! R1    R(1,2)                  1.3904         estimate D2E/DX2                !
 ! R2    R(1,6)                  1.3904         estimate D2E/DX2                !
 ! R3    R(1,8)                  1.0859         estimate D2E/DX2                !
 ! R4    R(2,3)                  1.3856         estimate D2E/DX2                !
 ! R5    R(2,9)                  1.084          estimate D2E/DX2                !
 ! R6    R(3,4)                  1.3519         estimate D2E/DX2                !
 ! R7    R(3,10)                 1.085          estimate D2E/DX2                !
 ! R8    R(4,5)                  1.352          estimate D2E/DX2                !
 ! R9    R(5,6)                  1.3856         estimate D2E/DX2                !
 ! R10   R(5,7)                  1.7156         estimate D2E/DX2                !
 ! R11   R(6,11)                 1.085          estimate D2E/DX2                !
 ! A1    A(2,1,6)              119.7376         estimate D2E/DX2                !
 ! A2    A(2,1,8)              120.1386         estimate D2E/DX2                !
 ! A3    A(6,1,8)              120.1237         estimate D2E/DX2                !
 ! A4    A(1,2,3)              117.9094         estimate D2E/DX2                !
 ! A5    A(1,2,9)              121.0024         estimate D2E/DX2                !
 ! A6    A(3,2,9)              121.0881         estimate D2E/DX2                !
 ! A7    A(2,3,4)              124.0438         estimate D2E/DX2                !
 ! A8    A(2,3,10)             120.7693         estimate D2E/DX2                !
 ! A9    A(4,3,10)             115.1869         estimate D2E/DX2                !
 ! A10   A(3,4,5)              116.3579         estimate D2E/DX2                !
 ! A11   A(4,5,6)              124.0499         estimate D2E/DX2                !
 ! A12   A(4,5,7)              114.837          estimate D2E/DX2                !
 ! A13   A(6,5,7)              121.1132         estimate D2E/DX2                !
 ! A14   A(1,6,5)              117.9014         estimate D2E/DX2                !
 ! A15   A(1,6,11)             120.3005         estimate D2E/DX2                !
 ! A16   A(5,6,11)             121.7981         estimate D2E/DX2                !
 ! D1    D(6,1,2,3)              0.0032         estimate D2E/DX2                !
 ! D2    D(6,1,2,9)            179.9468         estimate D2E/DX2                !
 ! D3    D(8,1,2,3)           -179.9549         estimate D2E/DX2                !
 ! D4    D(8,1,2,9)             -0.0113         estimate D2E/DX2                !
 ! D5    D(2,1,6,5)             -0.0155         estimate D2E/DX2                !
 ! D6    D(2,1,6,11)          -179.9594         estimate D2E/DX2                !
 ! D7    D(8,1,6,5)            179.9426         estimate D2E/DX2                !
 ! D8    D(8,1,6,11)            -0.0013         estimate D2E/DX2                !
 ! D9    D(1,2,3,4)              0.0091         estimate D2E/DX2                !
 ! D10   D(1,2,3,10)           179.9862         estimate D2E/DX2                !
 ! D11   D(9,2,3,4)           -179.9343         estimate D2E/DX2                !
 ! D12   D(9,2,3,10)             0.0427         estimate D2E/DX2                !
 ! D13   D(2,3,4,5)             -0.008          estimate D2E/DX2                !
 ! D14   D(10,3,4,5)          -179.9862         estimate D2E/DX2                !
 ! D15   D(3,4,5,6)             -0.0057         estimate D2E/DX2                !
 ! D16   D(3,4,5,7)           -179.99           estimate D2E/DX2                !
 ! D17   D(4,5,6,1)              0.0174         estimate D2E/DX2                !
 ! D18   D(4,5,6,11)           179.9604         estimate D2E/DX2                !
 ! D19   D(7,5,6,1)           -179.9993         estimate D2E/DX2                !
 ! D20   D(7,5,6,11)            -0.0563         estimate D2E/DX2                !
 --------------------------------------------------------------------------------
 Trust Radius=3.00D-01 FncErr=1.00D-07 GrdErr=1.00D-06
 Number of steps in this run=     57 maximum allowed number of steps=    100.
 GradGradGradGradGradGradGradGradGradGradGradGradGradGradGradGradGradGrad

                          Input orientation:                          
 ---------------------------------------------------------------------
 Center     Atomic      Atomic             Coordinates (Angstroms)
 Number     Number       Type             X           Y           Z
 ---------------------------------------------------------------------
      1          6           0        1.387900   -0.068400    1.652200
      2          6           0        0.226500   -0.419700    0.973300
      3          6           0       -0.631700   -1.322400    1.580300
      4          7           0       -0.409200   -1.881600    2.790800
      5          6           0        0.729900   -1.516100    3.420600
      6          6           0        1.652000   -0.622700    2.899700
      7         17           0        0.973200   -2.248800    4.952700
      8          1           0        2.085700    0.636600    1.210300
      9          1           0       -0.000200    0.000600    0.000100
     10          1           0       -1.551000   -1.628700    1.092100
     11          1           0        2.555200   -0.354500    3.437800
 ---------------------------------------------------------------------
                    Distance matrix (angstroms):
                    1          2          3          4          5
     1  C    0.000000
     2  C    1.390384   0.000000
     3  C    2.378333   1.385577   0.000000
     4  N    2.795295   2.417555   1.351858   0.000000
     5  C    2.378243   2.728513   2.297429   1.351957   0.000000
     6  C    1.390415   2.405052   2.728678   2.417692   1.385557
     7  Cl   3.977364   4.442836   3.847987   2.592234   1.715627
     8  H    1.085921   2.151410   3.370288   3.881216   3.370124
     9  H    2.158939   1.084049   2.155494   3.390865   3.812249
    10  H    3.374223   2.152975   1.085021   2.062340   3.261456
    11  H    2.152396   3.391291   3.813590   3.396809   2.163638
                    6          7          8          9         10
     6  C    0.000000
     7  Cl   2.705509   0.000000
     8  H    2.151280   4.854765   0.000000
     9  H    3.394989   5.525899   2.494005   0.000000
    10  H    3.812960   4.654067   4.286157   2.500413   0.000000
    11  H    1.085013   2.895862   2.482834   4.298133   4.897629
                   11
    11  H    0.000000
 Stoichiometry    C5H4ClN
 Framework group  C1[X(C5H4ClN)]
 Deg. of freedom    27
 Full point group                 C1      NOp   1
 Largest Abelian subgroup         C1      NOp   1
 Largest concise Abelian subgroup C1      NOp   1
                         Standard orientation:                         
 ---------------------------------------------------------------------
 Center     Atomic      Atomic             Coordinates (Angstroms)
 Number     Number       Type             X           Y           Z
 ---------------------------------------------------------------------
      1          6           0       -1.588909    1.163505   -0.000113
      2          6           0       -2.232267   -0.069076   -0.000102
      3          6           0       -1.446913   -1.210585   -0.000105
      4          7           0       -0.095103   -1.199166    0.000061
      5          6           0        0.494880    0.017266    0.000069
      6          6           0       -0.199496    1.216271   -0.000195
      7         17           0        2.210225   -0.013780    0.000012
      8          1           0       -2.169151    2.081407    0.000628
      9          1           0       -3.314363   -0.134117    0.000824
     10          1           0       -1.900357   -2.196313    0.000129
     11          1           0        0.311987    2.173161    0.000460
 ---------------------------------------------------------------------
 Rotational constants (GHZ):      5.8931176      1.6387435      1.2821942
 Standard basis: 6-31+G(d) (6D, 7F)
 There are   145 symmetry adapted cartesian basis functions of A   symmetry.
 There are   145 symmetry adapted basis functions of A   symmetry.
   145 basis functions,   264 primitive gaussians,   145 cartesian basis functions
    29 alpha electrons       29 beta electrons
       nuclear repulsion energy       320.3982985225 Hartrees.
 NAtoms=   11 NActive=   11 NUniq=   11 SFac= 1.00D+00 NAtFMM=   60 NAOKFM=F Big=F
 Integral buffers will be    131072 words long.
 Raffenetti 2 integral format.
 Two-electron integral symmetry is turned on.
 One-electron integrals computed using PRISM.
 NBasis=   145 RedAO= T EigKep=  1.38D-05  NBF=   145
 NBsUse=   145 1.00D-06 EigRej= -1.00D+00 NBFU=   145
 ExpMin= 4.38D-02 ExpMax= 2.52D+04 ExpMxC= 3.78D+03 IAcc=2 IRadAn=         4 AccDes= 0.00D+00
 Harris functional with IExCor= 1009 and IRadAn=       4 diagonalized for initial guess.
 HarFok:  IExCor= 1009 AccDes= 0.00D+00 IRadAn=         4 IDoV= 1 UseB2=F ITyADJ=14
 ICtDFT=  3500011 ScaDFX=  1.000000  1.000000  1.000000  1.000000
 FoFCou: FMM=F IPFlag=           0 FMFlag=      100000 FMFlg1=           0
         NFxFlg=           0 DoJE=T BraDBF=F KetDBF=T FulRan=T
         wScrn=  0.000000 ICntrl=     500 IOpCl=  0 I1Cent=   200000004 NGrid=           0
         NMat0=    1 NMatS0=      1 NMatT0=    0 NMatD0=    1 NMtDS0=    0 NMtDT0=    0
 Petite list used in FoFCou.
 Requested convergence on RMS density matrix=1.00D-08 within 128 cycles.
 Requested convergence on MAX density matrix=1.00D-06.
 Requested convergence on             energy=1.00D-06.
 No special actions if energy rises.
 SCF Done:  E(RM062X) =  -707.750317574     A.U. after   15 cycles
            NFock= 15  Conv=0.19D-08     -V/T= 2.0048

 **********************************************************************

            Population analysis using the SCF density.

 **********************************************************************

 Orbital symmetries:
       Occupied  (A) (A) (A) (A) (A) (A) (A) (A) (A) (A) (A) (A)
                 (A) (A) (A) (A) (A) (A) (A) (A) (A) (A) (A) (A)
                 (A) (A) (A) (A) (A)
       Virtual   (A) (A) (A) (A) (A) (A) (A) (A) (A) (A) (A) (A)
                 (A) (A) (A) (A) (A) (A) (A) (A) (A) (A) (A) (A)
                 (A) (A) (A) (A) (A) (A) (A) (A) (A) (A) (A) (A)
                 (A) (A) (A) (A) (A) (A) (A) (A) (A) (A) (A) (A)
                 (A) (A) (A) (A) (A) (A) (A) (A) (A) (A) (A) (A)
                 (A) (A) (A) (A) (A) (A) (A) (A) (A) (A) (A) (A)
                 (A) (A) (A) (A) (A) (A) (A) (A) (A) (A) (A) (A)
                 (A) (A) (A) (A) (A) (A) (A) (A) (A) (A) (A) (A)
                 (A) (A) (A) (A) (A) (A) (A) (A) (A) (A) (A) (A)
                 (A) (A) (A) (A) (A) (A) (A) (A)
 The electronic state is 1-A.
 Alpha  occ. eigenvalues -- -102.67448 -14.78653 -10.65747 -10.60695 -10.59202
 Alpha  occ. eigenvalues --  -10.58425 -10.57778  -9.82209  -7.54613  -7.53953
 Alpha  occ. eigenvalues --   -7.53912  -1.08098  -0.96784  -0.92621  -0.85661
 Alpha  occ. eigenvalues --   -0.73938  -0.71529  -0.61525  -0.57730  -0.55691
 Alpha  occ. eigenvalues --   -0.51559  -0.50512  -0.48981  -0.44741  -0.41402
 Alpha  occ. eigenvalues --   -0.38465  -0.35993  -0.35055  -0.31831
 Alpha virt. eigenvalues --   -0.01559  -0.00195   0.01219   0.02713   0.03004
 Alpha virt. eigenvalues --    0.04505   0.05660   0.06081   0.06557   0.08084
 Alpha virt. eigenvalues --    0.08659   0.09805   0.10481   0.10930   0.11942
 Alpha virt. eigenvalues --    0.13927   0.14123   0.14262   0.14948   0.15365
 Alpha virt. eigenvalues --    0.15867   0.18503   0.18846   0.19173   0.20615
 Alpha virt. eigenvalues --    0.21337   0.21667   0.22565   0.24092   0.25511
 Alpha virt. eigenvalues --    0.26269   0.28040   0.28899   0.29918   0.31713
 Alpha virt. eigenvalues --    0.34910   0.35308   0.35991   0.37846   0.38410
 Alpha virt. eigenvalues --    0.54923   0.57980   0.60709   0.65331   0.65637
 Alpha virt. eigenvalues --    0.69437   0.69454   0.72812   0.73096   0.73629
 Alpha virt. eigenvalues --    0.74780   0.76712   0.76767   0.79978   0.80224
 Alpha virt. eigenvalues --    0.83715   0.91068   0.93645   0.95403   0.95679
 Alpha virt. eigenvalues --    0.96563   0.97711   0.98466   1.00861   1.06364
 Alpha virt. eigenvalues --    1.08208   1.08333   1.12431   1.13559   1.15748
 Alpha virt. eigenvalues --    1.16927   1.19444   1.21275   1.25428   1.27741
 Alpha virt. eigenvalues --    1.29406   1.34856   1.44169   1.50079   1.50448
 Alpha virt. eigenvalues --    1.51898   1.54044   1.55096   1.61788   1.76571
 Alpha virt. eigenvalues --    1.84776   1.89452   1.90564   1.97325   2.03326
 Alpha virt. eigenvalues --    2.13376   2.15797   2.19154   2.19796   2.23244
 Alpha virt. eigenvalues --    2.23781   2.31531   2.33068   2.39558   2.58013
 Alpha virt. eigenvalues --    2.61281   2.67480   2.68543   2.71344   2.78229
 Alpha virt. eigenvalues --    2.82105   2.82953   3.05325   3.36740   4.20135
 Alpha virt. eigenvalues --    4.25485   4.26803   4.32937   4.39869   4.49400
 Alpha virt. eigenvalues --    4.63254
          Condensed to atoms (all electrons):
               1          2          3          4          5          6
     1  C    5.553244   0.114557   0.340392  -0.137023   0.547098  -0.366861
     2  C    0.114557   5.798684  -0.141051   0.186677  -0.710663   0.491207
     3  C    0.340392  -0.141051   5.687264   0.088138   0.551369  -0.665287
     4  N   -0.137023   0.186677   0.088138   6.895247  -0.101772   0.282302
     5  C    0.547098  -0.710663   0.551369  -0.101772   6.999083  -1.240353
     6  C   -0.366861   0.491207  -0.665287   0.282302  -1.240353   7.215587
     7  Cl   0.056374   0.000476   0.000579  -0.074588   0.246569  -0.131704
     8  H    0.258058   0.053575  -0.011398   0.001877  -0.012449   0.018733
     9  H    0.007940   0.287981   0.004105   0.003023   0.004868   0.003590
    10  H    0.042485  -0.108136   0.425277  -0.082563   0.049579  -0.044586
    11  H    0.020824  -0.000041  -0.003781   0.000594   0.035791   0.253668
               7          8          9         10         11
     1  C    0.056374   0.258058   0.007940   0.042485   0.020824
     2  C    0.000476   0.053575   0.287981  -0.108136  -0.000041
     3  C    0.000579  -0.011398   0.004105   0.425277  -0.003781
     4  N   -0.074588   0.001877   0.003023  -0.082563   0.000594
     5  C    0.246569  -0.012449   0.004868   0.049579   0.035791
     6  C   -0.131704   0.018733   0.003590  -0.044586   0.253668
     7  Cl  16.864381   0.000038   0.000519  -0.000037   0.003537
     8  H    0.000038   0.474820  -0.003582  -0.000124  -0.003952
     9  H    0.000519  -0.003582   0.469753  -0.001759  -0.000098
    10  H   -0.000037  -0.000124  -0.001759   0.506224   0.000017
    11  H    0.003537  -0.003952  -0.000098   0.000017   0.455689
 Mulliken charges:
               1
     1  C   -0.437088
     2  C    0.026734
     3  C   -0.275607
     4  N   -0.061912
     5  C   -0.369121
     6  C    0.183703
     7  Cl   0.033855
     8  H    0.224403
     9  H    0.223661
    10  H    0.213621
    11  H    0.237752
 Sum of Mulliken charges =   0.00000
 Mulliken charges with hydrogens summed into heavy atoms:
               1
     1  C   -0.212685
     2  C    0.250395
     3  C   -0.061986
     4  N   -0.061912
     5  C   -0.369121
     6  C    0.421455
     7  Cl   0.033855
 Electronic spatial extent (au):  <R**2>=            858.2787
 Charge=              0.0000 electrons
 Dipole moment (field-independent basis, Debye):
    X=             -2.9190    Y=              1.9626    Z=              0.0015  Tot=              3.5174
 Quadrupole moment (field-independent basis, Debye-Ang):
   XX=            -42.8215   YY=            -45.2003   ZZ=            -49.9765
   XY=              1.3794   XZ=             -0.0042   YZ=              0.0025
 Traceless Quadrupole moment (field-independent basis, Debye-Ang):
   XX=              3.1779   YY=              0.7991   ZZ=             -3.9771
   XY=              1.3794   XZ=             -0.0042   YZ=              0.0025
 Octapole moment (field-independent basis, Debye-Ang**2):
  XXX=             -6.7356  YYY=              8.7040  ZZZ=              0.0026  XYY=             -6.1741
  XXY=             -1.2001  XXZ=              0.0135  XZZ=              6.2058  YZZ=             -1.1004
  YYZ=              0.0065  XYZ=             -0.0014
 Hexadecapole moment (field-independent basis, Debye-Ang**3):
 XXXX=           -736.2973 YYYY=           -272.3277 ZZZZ=            -57.1178 XXXY=             -2.1342
 XXXZ=             -0.0510 YYYX=              7.2392 YYYZ=              0.0148 ZZZX=             -0.0058
 ZZZY=              0.0028 XXYY=           -169.2067 XXZZ=           -154.8891 YYZZ=            -62.7993
 XXYZ=              0.0051 YYXZ=             -0.0085 ZZXY=              0.5622
 N-N= 3.203982985225D+02 E-N=-2.308305051934D+03  KE= 7.043801227890D+02
 Calling FoFJK, ICntrl=      2127 FMM=F ISym2X=0 I1Cent= 0 IOpClX= 0 NMat=1 NMatS=1 NMatT=0.
 ***** Axes restored to original set *****
 -------------------------------------------------------------------
 Center     Atomic                   Forces (Hartrees/Bohr)
 Number     Number              X              Y              Z
 -------------------------------------------------------------------
      1        6          -0.000002909    0.000982123   -0.001607301
      2        6           0.004053453    0.002947965   -0.000509853
      3        6          -0.000901989   -0.009927695    0.016173444
      4        7           0.018605893    0.014414702   -0.004314118
      5        6          -0.030716558   -0.007675700   -0.020852269
      6        6           0.007087940    0.005654766   -0.001787699
      7       17           0.004578676   -0.003099670    0.010435271
      8        1           0.000727356   -0.000036783    0.000803580
      9        1          -0.001029601   -0.000487367   -0.000386504
     10        1          -0.001346039   -0.000859557   -0.000019164
     11        1          -0.001056222   -0.001912785    0.002064613
 -------------------------------------------------------------------
 Cartesian Forces:  Max     0.030716558 RMS     0.008942216

 GradGradGradGradGradGradGradGradGradGradGradGradGradGradGradGradGradGrad
 Berny optimization.
 FormGI is forming the generalized inverse of G from B-inverse, IUseBI=4.
 Internal  Forces:  Max     0.023248471 RMS     0.004919043
 Search for a local minimum.
 Step number   1 out of a maximum of   57
 All quantities printed in internal units (Hartrees-Bohrs-Radians)
 Mixed Optimization -- RFO/linear search
 Second derivative matrix not updated -- first step.
 ITU=  0
     Eigenvalues ---    0.02216   0.02230   0.02245   0.02252   0.02273
     Eigenvalues ---    0.02292   0.02295   0.02315   0.16000   0.16000
     Eigenvalues ---    0.16000   0.16000   0.22000   0.22419   0.24423
     Eigenvalues ---    0.25000   0.34073   0.35288   0.35394   0.35395
     Eigenvalues ---    0.35509   0.43598   0.44757   0.47444   0.48097
     Eigenvalues ---    0.52837   0.53954
 RFO step:  Lambda=-2.57001273D-03 EMin= 2.21575507D-02
 Linear search not attempted -- first point.
 Iteration  1 RMS(Cart)=  0.01267328 RMS(Int)=  0.00014113
 Iteration  2 RMS(Cart)=  0.00017706 RMS(Int)=  0.00000969
 Iteration  3 RMS(Cart)=  0.00000001 RMS(Int)=  0.00000969
 Variable       Old X    -DE/DX   Delta X   Delta X   Delta X     New X
                                 (Linear)    (Quad)   (Total)
    R1        2.62744   0.00010   0.00000   0.00227   0.00227   2.62971
    R2        2.62750  -0.00084   0.00000  -0.00002  -0.00001   2.62750
    R3        2.05209   0.00012   0.00000   0.00033   0.00033   2.05242
    R4        2.61836   0.00580   0.00000   0.01221   0.01220   2.63056
    R5        2.04856   0.00037   0.00000   0.00105   0.00105   2.04960
    R6        2.55464  -0.01539   0.00000  -0.02953  -0.02954   2.52511
    R7        2.05039   0.00139   0.00000   0.00391   0.00391   2.05430
    R8        2.55483  -0.02325   0.00000  -0.04413  -0.04413   2.51070
    R9        2.61832   0.00586   0.00000   0.01174   0.01175   2.63008
   R10        3.24206   0.01129   0.00000   0.03289   0.03289   3.27495
   R11        2.05038  -0.00033   0.00000  -0.00092  -0.00092   2.04945
    A1        2.08982  -0.00468   0.00000  -0.01179  -0.01178   2.07804
    A2        2.09681   0.00346   0.00000   0.01279   0.01279   2.10960
    A3        2.09655   0.00122   0.00000  -0.00100  -0.00100   2.09555
    A4        2.05791  -0.00095   0.00000   0.00177   0.00176   2.05966
    A5        2.11189   0.00163   0.00000   0.00622   0.00623   2.11812
    A6        2.11339  -0.00068   0.00000  -0.00799  -0.00798   2.10540
    A7        2.16497   0.00011   0.00000  -0.00167  -0.00169   2.16328
    A8        2.10782   0.00073   0.00000   0.00567   0.00569   2.11351
    A9        2.01039  -0.00084   0.00000  -0.00400  -0.00399   2.00640
   A10        2.03083   0.00421   0.00000   0.00698   0.00697   2.03780
   A11        2.16508   0.00328   0.00000   0.00946   0.00947   2.17455
   A12        2.00428   0.00393   0.00000   0.01734   0.01733   2.02161
   A13        2.11382  -0.00722   0.00000  -0.02679  -0.02680   2.08702
   A14        2.05777  -0.00198   0.00000  -0.00475  -0.00473   2.05304
   A15        2.09964   0.00407   0.00000   0.02131   0.02130   2.12094
   A16        2.12578  -0.00209   0.00000  -0.01656  -0.01657   2.10920
    D1        0.00006   0.00000   0.00000   0.00010   0.00009   0.00015
    D2        3.14066   0.00002   0.00000   0.00095   0.00095  -3.14157
    D3       -3.14080  -0.00002   0.00000  -0.00075  -0.00076  -3.14157
    D4       -0.00020   0.00000   0.00000   0.00010   0.00009  -0.00010
    D5       -0.00027   0.00001   0.00000   0.00026   0.00026  -0.00001
    D6       -3.14088  -0.00001   0.00000  -0.00064  -0.00065  -3.14153
    D7        3.14059   0.00003   0.00000   0.00112   0.00112  -3.14148
    D8       -0.00002   0.00001   0.00000   0.00022   0.00021   0.00019
    D9        0.00016  -0.00001   0.00000  -0.00034  -0.00034  -0.00018
   D10        3.14135   0.00001   0.00000   0.00039   0.00039  -3.14145
   D11       -3.14045  -0.00003   0.00000  -0.00120  -0.00120   3.14153
   D12        0.00074  -0.00001   0.00000  -0.00047  -0.00047   0.00027
   D13       -0.00014   0.00000   0.00000   0.00020   0.00020   0.00006
   D14       -3.14135  -0.00001   0.00000  -0.00050  -0.00049   3.14134
   D15       -0.00010   0.00001   0.00000   0.00020   0.00020   0.00010
   D16       -3.14142  -0.00001   0.00000  -0.00029  -0.00030   3.14147
   D17        0.00030  -0.00001   0.00000  -0.00043  -0.00043  -0.00012
   D18        3.14090   0.00001   0.00000   0.00051   0.00050   3.14140
   D19       -3.14158   0.00000   0.00000   0.00010   0.00010  -3.14148
   D20       -0.00098   0.00003   0.00000   0.00103   0.00102   0.00004
         Item               Value     Threshold  Converged?
 Maximum Force            0.023248     0.000450     NO 
 RMS     Force            0.004919     0.000300     NO 
 Maximum Displacement     0.031567     0.001800     NO 
 RMS     Displacement     0.012726     0.001200     NO 
 Predicted change in Energy=-1.293396D-03
 GradGradGradGradGradGradGradGradGradGradGradGradGradGradGradGradGradGrad

                          Input orientation:                          
 ---------------------------------------------------------------------
 Center     Atomic      Atomic             Coordinates (Angstroms)
 Number     Number       Type             X           Y           Z
 ---------------------------------------------------------------------
      1          6           0        1.393619   -0.061162    1.647022
      2          6           0        0.229451   -0.417075    0.972824
      3          6           0       -0.629877   -1.324286    1.586240
      4          7           0       -0.404043   -1.873896    2.783083
      5          6           0        0.714808   -1.516331    3.403980
      6          6           0        1.649783   -0.620357    2.893988
      7         17           0        0.983507   -2.243181    4.954105
      8          1           0        2.096809    0.642710    1.211485
      9          1           0       -0.007347   -0.003667   -0.001540
     10          1           0       -1.552799   -1.637249    1.104546
     11          1           0        2.544388   -0.371205    3.454166
 ---------------------------------------------------------------------
                    Distance matrix (angstroms):
                    1          2          3          4          5
     1  C    0.000000
     2  C    1.391583   0.000000
     3  C    2.386150   1.392033   0.000000
     4  N    2.794321   2.408460   1.336228   0.000000
     5  C    2.380169   2.711909   2.269193   1.328605   0.000000
     6  C    1.390411   2.397819   2.720766   2.408705   1.391776
     7  Cl   3.983239   4.444531   3.845762   2.602883   1.733031
     8  H    1.086095   2.160353   3.382947   3.880397   3.373191
     9  H    2.164201   1.084603   2.156994   3.377758   3.795685
    10  H    3.385219   2.163930   1.087088   2.047713   3.231726
    11  H    2.164755   3.393831   3.804401   3.376637   2.158980
                    6          7          8          9         10
     6  C    0.000000
     7  Cl   2.705839   0.000000
     8  H    2.150810   4.855410   0.000000
     9  H    3.392707   5.527714   2.513305   0.000000
    10  H    3.806928   4.649635   4.304565   2.506080   0.000000
    11  H    1.084525   2.861898   2.501593   4.311419   4.889838
                   11
    11  H    0.000000
 Stoichiometry    C5H4ClN
 Framework group  C1[X(C5H4ClN)]
 Deg. of freedom    27
 Full point group                 C1      NOp   1
 Largest Abelian subgroup         C1      NOp   1
 Largest concise Abelian subgroup C1      NOp   1
                         Standard orientation:                         
 ---------------------------------------------------------------------
 Center     Atomic      Atomic             Coordinates (Angstroms)
 Number     Number       Type             X           Y           Z
 ---------------------------------------------------------------------
      1          6           0       -1.590475    1.170828    0.000030
      2          6           0       -2.230479   -0.064849   -0.000023
      3          6           0       -1.439848   -1.210563    0.000069
      4          7           0       -0.103709   -1.195130    0.000000
      5          6           0        0.480701   -0.001960   -0.000095
      6          6           0       -0.200663    1.211623   -0.000012
      7         17           0        2.213714   -0.009993    0.000014
      8          1           0       -2.161953    2.094417   -0.000016
      9          1           0       -3.312469   -0.140089   -0.000014
     10          1           0       -1.887137   -2.201367   -0.000104
     11          1           0        0.338968    2.152364    0.000083
 ---------------------------------------------------------------------
 Rotational constants (GHZ):      5.8993793      1.6384603      1.2823168
 Standard basis: 6-31+G(d) (6D, 7F)
 There are   145 symmetry adapted cartesian basis functions of A   symmetry.
 There are   145 symmetry adapted basis functions of A   symmetry.
   145 basis functions,   264 primitive gaussians,   145 cartesian basis functions
    29 alpha electrons       29 beta electrons
       nuclear repulsion energy       320.5738084723 Hartrees.
 NAtoms=   11 NActive=   11 NUniq=   11 SFac= 1.00D+00 NAtFMM=   60 NAOKFM=F Big=F
 Integral buffers will be    131072 words long.
 Raffenetti 2 integral format.
 Two-electron integral symmetry is turned on.
 One-electron integrals computed using PRISM.
 NBasis=   145 RedAO= T EigKep=  1.43D-05  NBF=   145
 NBsUse=   145 1.00D-06 EigRej= -1.00D+00 NBFU=   145
 Initial guess from the checkpoint file:  "/srv/scratch/z5358697/gauss/Gau-997260.chk"
 B after Tr=     0.000000    0.000000    0.000000
         Rot=    1.000000    0.000000    0.000000    0.000205 Ang=  -0.02 deg.
 ExpMin= 4.38D-02 ExpMax= 2.52D+04 ExpMxC= 3.78D+03 IAcc=2 IRadAn=         4 AccDes= 0.00D+00
 Harris functional with IExCor= 1009 and IRadAn=       4 diagonalized for initial guess.
 HarFok:  IExCor= 1009 AccDes= 0.00D+00 IRadAn=         4 IDoV= 1 UseB2=F ITyADJ=14
 ICtDFT=  3500011 ScaDFX=  1.000000  1.000000  1.000000  1.000000
 FoFCou: FMM=F IPFlag=           0 FMFlag=      100000 FMFlg1=           0
         NFxFlg=           0 DoJE=T BraDBF=F KetDBF=T FulRan=T
         wScrn=  0.000000 ICntrl=     500 IOpCl=  0 I1Cent=   200000004 NGrid=           0
         NMat0=    1 NMatS0=      1 NMatT0=    0 NMatD0=    1 NMtDS0=    0 NMtDT0=    0
 Petite list used in FoFCou.
 Requested convergence on RMS density matrix=1.00D-08 within 128 cycles.
 Requested convergence on MAX density matrix=1.00D-06.
 Requested convergence on             energy=1.00D-06.
 No special actions if energy rises.
 SCF Done:  E(RM062X) =  -707.751946613     A.U. after   12 cycles
            NFock= 12  Conv=0.98D-08     -V/T= 2.0047
 Calling FoFJK, ICntrl=      2127 FMM=F ISym2X=0 I1Cent= 0 IOpClX= 0 NMat=1 NMatS=1 NMatT=0.
 ***** Axes restored to original set *****
 -------------------------------------------------------------------
 Center     Atomic                   Forces (Hartrees/Bohr)
 Number     Number              X              Y              Z
 -------------------------------------------------------------------
      1        6          -0.000275036   -0.000418930    0.000388863
      2        6           0.000035693    0.000137798   -0.000161432
      3        6          -0.001954006   -0.001381335    0.000145955
      4        7           0.007632103    0.003444749    0.002494029
      5        6          -0.009996984   -0.001986103   -0.007571530
      6        6           0.003301478    0.002121203   -0.000001564
      7       17           0.002124133   -0.001432949    0.004805257
      8        1          -0.000029066   -0.000080777    0.000117596
      9        1          -0.000445203   -0.000294783    0.000011701
     10        1           0.000093788    0.000587281   -0.000879053
     11        1          -0.000486903   -0.000696153    0.000650177
 -------------------------------------------------------------------
 Cartesian Forces:  Max     0.009996984 RMS     0.002971462

 GradGradGradGradGradGradGradGradGradGradGradGradGradGradGradGradGradGrad
 Berny optimization.
 Using GEDIIS/GDIIS optimizer.
 FormGI is forming the generalized inverse of G from B-inverse, IUseBI=4.
 Internal  Forces:  Max     0.006678770 RMS     0.001467222
 Search for a local minimum.
 Step number   2 out of a maximum of   57
 All quantities printed in internal units (Hartrees-Bohrs-Radians)
 Mixed Optimization -- RFO/linear search
 Update second derivatives using D2CorX and points    1    2
 DE= -1.63D-03 DEPred=-1.29D-03 R= 1.26D+00
 TightC=F SS=  1.41D+00  RLast= 8.12D-02 DXNew= 5.0454D-01 2.4345D-01
 Trust test= 1.26D+00 RLast= 8.12D-02 DXMaxT set to 3.00D-01
 ITU=  1  0
 Use linear search instead of GDIIS.
     Eigenvalues ---    0.02216   0.02230   0.02244   0.02251   0.02273
     Eigenvalues ---    0.02292   0.02296   0.02315   0.14890   0.16000
     Eigenvalues ---    0.16000   0.16321   0.20971   0.22109   0.23478
     Eigenvalues ---    0.24589   0.30717   0.35289   0.35393   0.35409
     Eigenvalues ---    0.35512   0.43500   0.44091   0.47143   0.48116
     Eigenvalues ---    0.49476   0.57877
 RFO step:  Lambda=-1.95355460D-04 EMin= 2.21577508D-02
 Quartic linear search produced a step of  0.32861.
 Iteration  1 RMS(Cart)=  0.00671461 RMS(Int)=  0.00003832
 Iteration  2 RMS(Cart)=  0.00005175 RMS(Int)=  0.00000270
 Iteration  3 RMS(Cart)=  0.00000000 RMS(Int)=  0.00000270
 Variable       Old X    -DE/DX   Delta X   Delta X   Delta X     New X
                                 (Linear)    (Quad)   (Total)
    R1        2.62971   0.00074   0.00074   0.00200   0.00274   2.63245
    R2        2.62750  -0.00005   0.00000   0.00012   0.00012   2.62762
    R3        2.05242  -0.00012   0.00011  -0.00053  -0.00042   2.05200
    R4        2.63056  -0.00013   0.00401  -0.00335   0.00066   2.63122
    R5        2.04960  -0.00002   0.00034  -0.00037  -0.00003   2.04957
    R6        2.52511   0.00025  -0.00971   0.00815  -0.00156   2.52355
    R7        2.05430   0.00014   0.00128  -0.00052   0.00076   2.05506
    R8        2.51070  -0.00668  -0.01450  -0.00511  -0.01961   2.49109
    R9        2.63008   0.00163   0.00386   0.00114   0.00501   2.63508
   R10        3.27495   0.00523   0.01081   0.01151   0.02232   3.29728
   R11        2.04945  -0.00023  -0.00030  -0.00060  -0.00090   2.04855
    A1        2.07804  -0.00007  -0.00387   0.00497   0.00110   2.07913
    A2        2.10960   0.00013   0.00420  -0.00366   0.00054   2.11014
    A3        2.09555  -0.00007  -0.00033  -0.00131  -0.00164   2.09391
    A4        2.05966  -0.00018   0.00058   0.00045   0.00102   2.06068
    A5        2.11812   0.00063   0.00205   0.00214   0.00419   2.12231
    A6        2.10540  -0.00044  -0.00262  -0.00260  -0.00522   2.10019
    A7        2.16328  -0.00127  -0.00056  -0.00691  -0.00747   2.15581
    A8        2.11351  -0.00046   0.00187  -0.00702  -0.00515   2.10836
    A9        2.00640   0.00173  -0.00131   0.01393   0.01262   2.01902
   A10        2.03780   0.00186   0.00229   0.00610   0.00839   2.04619
   A11        2.17455   0.00071   0.00311   0.00001   0.00313   2.17768
   A12        2.02161   0.00211   0.00569   0.00701   0.01270   2.03431
   A13        2.08702  -0.00282  -0.00881  -0.00702  -0.01583   2.07119
   A14        2.05304  -0.00105  -0.00155  -0.00462  -0.00617   2.04687
   A15        2.12094   0.00161   0.00700   0.00582   0.01282   2.13376
   A16        2.10920  -0.00056  -0.00545  -0.00120  -0.00665   2.10255
    D1        0.00015  -0.00001   0.00003  -0.00036  -0.00033  -0.00018
    D2       -3.14157   0.00000   0.00031  -0.00063  -0.00031   3.14130
    D3       -3.14157   0.00000  -0.00025   0.00028   0.00003  -3.14154
    D4       -0.00010   0.00000   0.00003   0.00002   0.00005  -0.00005
    D5       -0.00001   0.00000   0.00009  -0.00017  -0.00008  -0.00009
    D6       -3.14153   0.00000  -0.00021   0.00025   0.00003  -3.14150
    D7       -3.14148   0.00000   0.00037  -0.00081  -0.00044   3.14126
    D8        0.00019  -0.00001   0.00007  -0.00040  -0.00033  -0.00014
    D9       -0.00018   0.00001  -0.00011   0.00060   0.00049   0.00031
   D10       -3.14145  -0.00001   0.00013  -0.00050  -0.00037   3.14137
   D11        3.14153   0.00000  -0.00040   0.00086   0.00047  -3.14118
   D12        0.00027  -0.00001  -0.00015  -0.00024  -0.00040  -0.00012
   D13        0.00006   0.00000   0.00007  -0.00025  -0.00018  -0.00012
   D14        3.14134   0.00001  -0.00016   0.00079   0.00064  -3.14121
   D15        0.00010   0.00000   0.00007  -0.00035  -0.00029  -0.00019
   D16        3.14147   0.00001  -0.00010   0.00057   0.00047  -3.14125
   D17       -0.00012   0.00001  -0.00014   0.00056   0.00042   0.00030
   D18        3.14140   0.00001   0.00016   0.00015   0.00031  -3.14148
   D19       -3.14148  -0.00001   0.00003  -0.00039  -0.00036   3.14134
   D20        0.00004  -0.00001   0.00034  -0.00081  -0.00047  -0.00043
         Item               Value     Threshold  Converged?
 Maximum Force            0.006679     0.000450     NO 
 RMS     Force            0.001467     0.000300     NO 
 Maximum Displacement     0.024194     0.001800     NO 
 RMS     Displacement     0.006730     0.001200     NO 
 Predicted change in Energy=-2.158995D-04
 GradGradGradGradGradGradGradGradGradGradGradGradGradGradGradGradGradGrad

                          Input orientation:                          
 ---------------------------------------------------------------------
 Center     Atomic      Atomic             Coordinates (Angstroms)
 Number     Number       Type             X           Y           Z
 ---------------------------------------------------------------------
      1          6           0        1.393561   -0.061420    1.647097
      2          6           0        0.228215   -0.417491    0.972019
      3          6           0       -0.632272   -1.324992    1.584169
      4          7           0       -0.399552   -1.869788    2.780973
      5          6           0        0.709751   -1.516476    3.399308
      6          6           0        1.650747   -0.619892    2.894248
      7         17           0        0.996310   -2.239266    4.961339
      8          1           0        2.096985    0.642376    1.212378
      9          1           0       -0.012342   -0.006255   -0.002325
     10          1           0       -1.554262   -1.633704    1.097065
     11          1           0        2.541158   -0.378792    3.463630
 ---------------------------------------------------------------------
                    Distance matrix (angstroms):
                    1          2          3          4          5
     1  C    0.000000
     2  C    1.393035   0.000000
     3  C    2.388425   1.392380   0.000000
     4  N    2.787674   2.403242   1.335403   0.000000
     5  C    2.378031   2.707652   2.265485   1.318227   0.000000
     6  C    1.390476   2.399901   2.725004   2.403913   1.394425
     7  Cl   3.985602   4.452359   3.859203   2.615137   1.744844
     8  H    1.085871   2.161803   3.384909   3.873520   3.371606
     9  H    2.167994   1.084587   2.154145   3.371859   3.791213
    10  H    3.385893   2.161489   1.087492   2.055392   3.231071
    11  H    2.171980   3.399901   3.807667   3.367027   2.156969
                    6          7          8          9         10
     6  C    0.000000
     7  Cl   2.706201   0.000000
     8  H    2.149683   4.854900   0.000000
     9  H    3.395961   5.535492   2.519025   0.000000
    10  H    3.811793   4.669554   4.304120   2.496951   0.000000
    11  H    1.084046   2.844478   2.511615   4.321110   4.893659
                   11
    11  H    0.000000
 Stoichiometry    C5H4ClN
 Framework group  C1[X(C5H4ClN)]
 Deg. of freedom    27
 Full point group                 C1      NOp   1
 Largest Abelian subgroup         C1      NOp   1
 Largest concise Abelian subgroup C1      NOp   1
                         Standard orientation:                         
 ---------------------------------------------------------------------
 Center     Atomic      Atomic             Coordinates (Angstroms)
 Number     Number       Type             X           Y           Z
 ---------------------------------------------------------------------
      1          6           0       -1.584672    1.175949   -0.000070
      2          6           0       -2.232554   -0.057256   -0.000027
      3          6           0       -1.449606   -1.208653   -0.000136
      4          7           0       -0.114302   -1.192412    0.000062
      5          6           0        0.474738   -0.013110    0.000232
      6          6           0       -0.194618    1.210159    0.000003
      7         17           0        2.219582   -0.012611   -0.000050
      8          1           0       -2.150127    2.102975    0.000061
      9          1           0       -3.314650   -0.130716    0.000185
     10          1           0       -1.908931   -2.194381    0.000104
     11          1           0        0.361202    2.140869    0.000060
 ---------------------------------------------------------------------
 Rotational constants (GHZ):      5.9062468      1.6324450      1.2789518
 Standard basis: 6-31+G(d) (6D, 7F)
 There are   145 symmetry adapted cartesian basis functions of A   symmetry.
 There are   145 symmetry adapted basis functions of A   symmetry.
   145 basis functions,   264 primitive gaussians,   145 cartesian basis functions
    29 alpha electrons       29 beta electrons
       nuclear repulsion energy       320.3330072498 Hartrees.
 NAtoms=   11 NActive=   11 NUniq=   11 SFac= 1.00D+00 NAtFMM=   60 NAOKFM=F Big=F
 Integral buffers will be    131072 words long.
 Raffenetti 2 integral format.
 Two-electron integral symmetry is turned on.
 One-electron integrals computed using PRISM.
 NBasis=   145 RedAO= T EigKep=  1.46D-05  NBF=   145
 NBsUse=   145 1.00D-06 EigRej= -1.00D+00 NBFU=   145
 Initial guess from the checkpoint file:  "/srv/scratch/z5358697/gauss/Gau-997260.chk"
 B after Tr=     0.000000    0.000000    0.000000
         Rot=    0.999999    0.000000    0.000000    0.001722 Ang=  -0.20 deg.
 ExpMin= 4.38D-02 ExpMax= 2.52D+04 ExpMxC= 3.78D+03 IAcc=2 IRadAn=         4 AccDes= 0.00D+00
 Harris functional with IExCor= 1009 and IRadAn=       4 diagonalized for initial guess.
 HarFok:  IExCor= 1009 AccDes= 0.00D+00 IRadAn=         4 IDoV= 1 UseB2=F ITyADJ=14
 ICtDFT=  3500011 ScaDFX=  1.000000  1.000000  1.000000  1.000000
 FoFCou: FMM=F IPFlag=           0 FMFlag=      100000 FMFlg1=           0
         NFxFlg=           0 DoJE=T BraDBF=F KetDBF=T FulRan=T
         wScrn=  0.000000 ICntrl=     500 IOpCl=  0 I1Cent=   200000004 NGrid=           0
         NMat0=    1 NMatS0=      1 NMatT0=    0 NMatD0=    1 NMtDS0=    0 NMtDT0=    0
 Petite list used in FoFCou.
 Requested convergence on RMS density matrix=1.00D-08 within 128 cycles.
 Requested convergence on MAX density matrix=1.00D-06.
 Requested convergence on             energy=1.00D-06.
 No special actions if energy rises.
 SCF Done:  E(RM062X) =  -707.752163856     A.U. after   12 cycles
            NFock= 12  Conv=0.42D-08     -V/T= 2.0047
 Calling FoFJK, ICntrl=      2127 FMM=F ISym2X=0 I1Cent= 0 IOpClX= 0 NMat=1 NMatS=1 NMatT=0.
 ***** Axes restored to original set *****
 -------------------------------------------------------------------
 Center     Atomic                   Forces (Hartrees/Bohr)
 Number     Number              X              Y              Z
 -------------------------------------------------------------------
      1        6           0.000417579   -0.000302999    0.001027813
      2        6          -0.000714808   -0.000668704    0.000342677
      3        6           0.000028058    0.001163125   -0.001853106
      4        7           0.000192101   -0.000962962    0.001874658
      5        6          -0.001084150    0.000102051   -0.001515498
      6        6           0.000778380    0.000849359   -0.000560195
      7       17           0.000117555   -0.000326998    0.000731947
      8        1          -0.000020900    0.000071781   -0.000165488
      9        1           0.000111013    0.000061135   -0.000006034
     10        1           0.000204543   -0.000027555    0.000233120
     11        1          -0.000029370    0.000041768   -0.000109895
 -------------------------------------------------------------------
 Cartesian Forces:  Max     0.001874658 RMS     0.000730403

 GradGradGradGradGradGradGradGradGradGradGradGradGradGradGradGradGradGrad
 Berny optimization.
 Using GEDIIS/GDIIS optimizer.
 FormGI is forming the generalized inverse of G from B-inverse, IUseBI=4.
 Internal  Forces:  Max     0.001372761 RMS     0.000358068
 Search for a local minimum.
 Step number   3 out of a maximum of   57
 All quantities printed in internal units (Hartrees-Bohrs-Radians)
 Mixed Optimization -- En-DIIS/RFO-DIIS
 Update second derivatives using D2CorX and points    1    2    3
 DE= -2.17D-04 DEPred=-2.16D-04 R= 1.01D+00
 TightC=F SS=  1.41D+00  RLast= 4.42D-02 DXNew= 5.0454D-01 1.3258D-01
 Trust test= 1.01D+00 RLast= 4.42D-02 DXMaxT set to 3.00D-01
 ITU=  1  1  0
 Use linear search instead of GDIIS.
     Eigenvalues ---    0.02216   0.02230   0.02244   0.02251   0.02274
     Eigenvalues ---    0.02293   0.02296   0.02315   0.15346   0.16000
     Eigenvalues ---    0.16074   0.16324   0.19634   0.22089   0.23576
     Eigenvalues ---    0.25379   0.29546   0.35297   0.35393   0.35444
     Eigenvalues ---    0.35512   0.43533   0.44425   0.46324   0.48290
     Eigenvalues ---    0.49922   0.59980
 RFO step:  Lambda=-1.58655669D-05 EMin= 2.21578144D-02
 Quartic linear search produced a step of  0.05735.
 Iteration  1 RMS(Cart)=  0.00086655 RMS(Int)=  0.00000099
 Iteration  2 RMS(Cart)=  0.00000113 RMS(Int)=  0.00000025
 Iteration  3 RMS(Cart)=  0.00000000 RMS(Int)=  0.00000025
 Variable       Old X    -DE/DX   Delta X   Delta X   Delta X     New X
                                 (Linear)    (Quad)   (Total)
    R1        2.63245   0.00037   0.00016   0.00071   0.00087   2.63332
    R2        2.62762  -0.00087   0.00001  -0.00201  -0.00200   2.62562
    R3        2.05200   0.00010  -0.00002   0.00031   0.00028   2.05228
    R4        2.63122  -0.00062   0.00004  -0.00123  -0.00119   2.63003
    R5        2.04957   0.00000   0.00000   0.00003   0.00003   2.04960
    R6        2.52355   0.00137  -0.00009   0.00236   0.00227   2.52581
    R7        2.05506  -0.00027   0.00004  -0.00077  -0.00072   2.05434
    R8        2.49109  -0.00039  -0.00112  -0.00078  -0.00191   2.48918
    R9        2.63508   0.00081   0.00029   0.00181   0.00210   2.63718
   R10        3.29728   0.00081   0.00128   0.00238   0.00366   3.30094
   R11        2.04855  -0.00007  -0.00005  -0.00021  -0.00026   2.04829
    A1        2.07913   0.00009   0.00006  -0.00009  -0.00003   2.07911
    A2        2.11014  -0.00019   0.00003  -0.00085  -0.00082   2.10932
    A3        2.09391   0.00010  -0.00009   0.00094   0.00085   2.09475
    A4        2.06068   0.00030   0.00006   0.00120   0.00125   2.06194
    A5        2.12231  -0.00029   0.00024  -0.00154  -0.00130   2.12101
    A6        2.10019  -0.00001  -0.00030   0.00034   0.00004   2.10023
    A7        2.15581  -0.00006  -0.00043  -0.00004  -0.00047   2.15534
    A8        2.10836   0.00018  -0.00030   0.00123   0.00094   2.10929
    A9        2.01902  -0.00011   0.00072  -0.00119  -0.00047   2.01855
   A10        2.04619  -0.00064   0.00048  -0.00238  -0.00190   2.04429
   A11        2.17768   0.00057   0.00018   0.00260   0.00278   2.18046
   A12        2.03431  -0.00032   0.00073  -0.00151  -0.00078   2.03353
   A13        2.07119  -0.00025  -0.00091  -0.00109  -0.00200   2.06919
   A14        2.04687  -0.00025  -0.00035  -0.00129  -0.00164   2.04523
   A15        2.13376   0.00004   0.00074   0.00007   0.00080   2.13456
   A16        2.10255   0.00022  -0.00038   0.00122   0.00084   2.10339
    D1       -0.00018   0.00001  -0.00002   0.00037   0.00035   0.00017
    D2        3.14130   0.00001  -0.00002   0.00042   0.00041  -3.14147
    D3       -3.14154   0.00000   0.00000   0.00003   0.00004  -3.14150
    D4       -0.00005   0.00000   0.00000   0.00009   0.00010   0.00004
    D5       -0.00009   0.00000   0.00000   0.00020   0.00019   0.00010
    D6       -3.14150   0.00000   0.00000  -0.00004  -0.00003  -3.14153
    D7        3.14126   0.00001  -0.00003   0.00053   0.00050  -3.14142
    D8       -0.00014   0.00001  -0.00002   0.00029   0.00027   0.00013
    D9        0.00031  -0.00001   0.00003  -0.00061  -0.00058  -0.00028
   D10        3.14137   0.00001  -0.00002   0.00040   0.00038  -3.14144
   D11       -3.14118  -0.00001   0.00003  -0.00067  -0.00064   3.14136
   D12       -0.00012   0.00001  -0.00002   0.00034   0.00032   0.00020
   D13       -0.00012   0.00001  -0.00001   0.00023   0.00022   0.00010
   D14       -3.14121  -0.00002   0.00004  -0.00073  -0.00070   3.14128
   D15       -0.00019   0.00001  -0.00002   0.00041   0.00039   0.00020
   D16       -3.14125  -0.00002   0.00003  -0.00080  -0.00078   3.14116
   D17        0.00030  -0.00001   0.00002  -0.00062  -0.00060  -0.00030
   D18       -3.14148  -0.00001   0.00002  -0.00039  -0.00037   3.14133
   D19        3.14134   0.00001  -0.00002   0.00061   0.00059  -3.14125
   D20       -0.00043   0.00002  -0.00003   0.00084   0.00081   0.00038
         Item               Value     Threshold  Converged?
 Maximum Force            0.001373     0.000450     NO 
 RMS     Force            0.000358     0.000300     NO 
 Maximum Displacement     0.003055     0.001800     NO 
 RMS     Displacement     0.000866     0.001200     YES
 Predicted change in Energy=-8.531019D-06
 GradGradGradGradGradGradGradGradGradGradGradGradGradGradGradGradGradGrad

                          Input orientation:                          
 ---------------------------------------------------------------------
 Center     Atomic      Atomic             Coordinates (Angstroms)
 Number     Number       Type             X           Y           Z
 ---------------------------------------------------------------------
      1          6           0        1.393937   -0.061360    1.647737
      2          6           0        0.228094   -0.417903    0.972819
      3          6           0       -0.632860   -1.324758    1.583836
      4          7           0       -0.400200   -1.870624    2.781503
      5          6           0        0.708902   -1.516690    3.397692
      6          6           0        1.651429   -0.619274    2.893895
      7         17           0        0.996517   -2.239127    4.961854
      8          1           0        2.096755    0.642553    1.211850
      9          1           0       -0.011503   -0.006325   -0.001632
     10          1           0       -1.554357   -1.633688    1.096791
     11          1           0        2.541586   -0.378504    3.463554
 ---------------------------------------------------------------------
                    Distance matrix (angstroms):
                    1          2          3          4          5
     1  C    0.000000
     2  C    1.393495   0.000000
     3  C    2.389177   1.391750   0.000000
     4  N    2.788869   2.403432   1.336603   0.000000
     5  C    2.376889   2.705275   2.264340   1.317219   0.000000
     6  C    1.389417   2.399368   2.726159   2.405762   1.395537
     7  Cl   3.985472   4.451935   3.860304   2.615443   1.746781
     8  H    1.086022   2.161850   3.385186   3.874874   3.371405
     9  H    2.167651   1.084601   2.153615   3.372319   3.788876
    10  H    3.386473   2.161165   1.087109   2.055838   3.229578
    11  H    2.171375   3.399641   3.808654   3.368341   2.158364
                    6          7          8          9         10
     6  C    0.000000
     7  Cl   2.707266   0.000000
     8  H    2.149372   4.855630   0.000000
     9  H    3.394868   5.535133   2.517604   0.000000
    10  H    3.812569   4.670356   4.304083   2.497046   0.000000
    11  H    1.083910   2.845007   2.512092   4.320219   4.894262
                   11
    11  H    0.000000
 Stoichiometry    C5H4ClN
 Framework group  C1[X(C5H4ClN)]
 Deg. of freedom    27
 Full point group                 C1      NOp   1
 Largest Abelian subgroup         C1      NOp   1
 Largest concise Abelian subgroup C1      NOp   1
                         Standard orientation:                         
 ---------------------------------------------------------------------
 Center     Atomic      Atomic             Coordinates (Angstroms)
 Number     Number       Type             X           Y           Z
 ---------------------------------------------------------------------
      1          6           0       -1.584105    1.176492    0.000052
      2          6           0       -2.231801   -0.057331    0.000045
      3          6           0       -1.450278   -1.208934    0.000128
      4          7           0       -0.113767   -1.193296   -0.000098
      5          6           0        0.473128   -0.014051   -0.000296
      6          6           0       -0.195119    1.211090   -0.000059
      7         17           0        2.219908   -0.012404    0.000082
      8          1           0       -2.150700    2.102997    0.000074
      9          1           0       -3.313982   -0.129738    0.000020
     10          1           0       -1.909436   -2.194318   -0.000016
     11          1           0        0.361098    2.141404   -0.000005
 ---------------------------------------------------------------------
 Rotational constants (GHZ):      5.9005834      1.6324757      1.2787048
 Standard basis: 6-31+G(d) (6D, 7F)
 There are   145 symmetry adapted cartesian basis functions of A   symmetry.
 There are   145 symmetry adapted basis functions of A   symmetry.
   145 basis functions,   264 primitive gaussians,   145 cartesian basis functions
    29 alpha electrons       29 beta electrons
       nuclear repulsion energy       320.2840380507 Hartrees.
 NAtoms=   11 NActive=   11 NUniq=   11 SFac= 1.00D+00 NAtFMM=   60 NAOKFM=F Big=F
 Integral buffers will be    131072 words long.
 Raffenetti 2 integral format.
 Two-electron integral symmetry is turned on.
 One-electron integrals computed using PRISM.
 NBasis=   145 RedAO= T EigKep=  1.46D-05  NBF=   145
 NBsUse=   145 1.00D-06 EigRej= -1.00D+00 NBFU=   145
 Initial guess from the checkpoint file:  "/srv/scratch/z5358697/gauss/Gau-997260.chk"
 B after Tr=     0.000000    0.000000    0.000000
         Rot=    1.000000    0.000000    0.000000    0.000001 Ang=   0.00 deg.
 Requested convergence on RMS density matrix=1.00D-08 within 128 cycles.
 Requested convergence on MAX density matrix=1.00D-06.
 Requested convergence on             energy=1.00D-06.
 No special actions if energy rises.
 SCF Done:  E(RM062X) =  -707.752174921     A.U. after   10 cycles
            NFock= 10  Conv=0.46D-08     -V/T= 2.0047
 Calling FoFJK, ICntrl=      2127 FMM=F ISym2X=0 I1Cent= 0 IOpClX= 0 NMat=1 NMatS=1 NMatT=0.
 ***** Axes restored to original set *****
 -------------------------------------------------------------------
 Center     Atomic                   Forces (Hartrees/Bohr)
 Number     Number              X              Y              Z
 -------------------------------------------------------------------
      1        6           0.000318704   -0.000045567    0.000407728
      2        6          -0.000629334   -0.000443517    0.000096729
      3        6           0.000244447    0.000753132   -0.001138645
      4        7          -0.000000953   -0.000487938    0.000828549
      5        6          -0.000075021    0.000152747   -0.000196981
      6        6           0.000125263    0.000138889   -0.000135858
      7       17           0.000040230   -0.000081118    0.000140042
      8        1          -0.000071202    0.000013737   -0.000095199
      9        1           0.000050943    0.000041580   -0.000004725
     10        1           0.000010988   -0.000038720    0.000113717
     11        1          -0.000014066   -0.000003225   -0.000015356
 -------------------------------------------------------------------
 Cartesian Forces:  Max     0.001138645 RMS     0.000343897

 GradGradGradGradGradGradGradGradGradGradGradGradGradGradGradGradGradGrad
 Berny optimization.
 Using GEDIIS/GDIIS optimizer.
 FormGI is forming the generalized inverse of G from B-inverse, IUseBI=4.
 Internal  Forces:  Max     0.000850674 RMS     0.000165973
 Search for a local minimum.
 Step number   4 out of a maximum of   57
 All quantities printed in internal units (Hartrees-Bohrs-Radians)
 Mixed Optimization -- En-DIIS/RFO-DIIS
 Swapping is turned off.
 Update second derivatives using D2CorX and points    1    2    3    4
 DE= -1.11D-05 DEPred=-8.53D-06 R= 1.30D+00
 TightC=F SS=  1.41D+00  RLast= 7.99D-03 DXNew= 5.0454D-01 2.3965D-02
 Trust test= 1.30D+00 RLast= 7.99D-03 DXMaxT set to 3.00D-01
 ITU=  1  1  1  0
     Eigenvalues ---    0.02216   0.02230   0.02244   0.02251   0.02278
     Eigenvalues ---    0.02293   0.02315   0.02328   0.14058   0.15733
     Eigenvalues ---    0.16001   0.16265   0.19390   0.22077   0.23370
     Eigenvalues ---    0.24725   0.28732   0.35300   0.35369   0.35400
     Eigenvalues ---    0.35517   0.41891   0.43558   0.44661   0.49339
     Eigenvalues ---    0.49899   0.55667
 En-DIIS/RFO-DIIS IScMMF=        0 using points:     4    3
 RFO step:  Lambda=-2.30925354D-06.
 DidBck=F Rises=F RFO-DIIS coefs:    1.42028   -0.42028
 Iteration  1 RMS(Cart)=  0.00054017 RMS(Int)=  0.00000050
 Iteration  2 RMS(Cart)=  0.00000047 RMS(Int)=  0.00000022
 Variable       Old X    -DE/DX   Delta X   Delta X   Delta X     New X
                                 (Linear)    (Quad)   (Total)
    R1        2.63332   0.00031   0.00037   0.00064   0.00101   2.63433
    R2        2.62562  -0.00016  -0.00084   0.00005  -0.00079   2.62483
    R3        2.05228   0.00000   0.00012  -0.00008   0.00004   2.05233
    R4        2.63003  -0.00054  -0.00050  -0.00110  -0.00160   2.62843
    R5        2.04960   0.00001   0.00001   0.00004   0.00005   2.04965
    R6        2.52581   0.00085   0.00095   0.00131   0.00226   2.52808
    R7        2.05434  -0.00005  -0.00030   0.00005  -0.00025   2.05409
    R8        2.48918   0.00005  -0.00080   0.00031  -0.00050   2.48869
    R9        2.63718   0.00010   0.00088  -0.00021   0.00068   2.63786
   R10        3.30094   0.00016   0.00154  -0.00005   0.00149   3.30242
   R11        2.04829  -0.00002  -0.00011  -0.00002  -0.00013   2.04817
    A1        2.07911   0.00010  -0.00001   0.00027   0.00026   2.07936
    A2        2.10932  -0.00016  -0.00035  -0.00081  -0.00116   2.10816
    A3        2.09475   0.00007   0.00036   0.00055   0.00090   2.09566
    A4        2.06194   0.00004   0.00053  -0.00020   0.00033   2.06227
    A5        2.12101  -0.00010  -0.00055  -0.00030  -0.00085   2.12016
    A6        2.10023   0.00006   0.00002   0.00050   0.00052   2.10075
    A7        2.15534  -0.00001  -0.00020   0.00011  -0.00009   2.15525
    A8        2.10929   0.00011   0.00039   0.00063   0.00102   2.11031
    A9        2.01855  -0.00009  -0.00020  -0.00073  -0.00093   2.01762
   A10        2.04429  -0.00017  -0.00080  -0.00003  -0.00083   2.04346
   A11        2.18046   0.00008   0.00117  -0.00020   0.00097   2.18142
   A12        2.03353  -0.00005  -0.00033   0.00007  -0.00026   2.03327
   A13        2.06919  -0.00002  -0.00084   0.00014  -0.00070   2.06849
   A14        2.04523  -0.00003  -0.00069   0.00006  -0.00063   2.04460
   A15        2.13456   0.00002   0.00034   0.00020   0.00054   2.13510
   A16        2.10339   0.00001   0.00035  -0.00026   0.00009   2.10348
    D1        0.00017  -0.00001   0.00015  -0.00052  -0.00037  -0.00021
    D2       -3.14147   0.00000   0.00017  -0.00038  -0.00021   3.14150
    D3       -3.14150   0.00000   0.00002  -0.00031  -0.00029   3.14139
    D4        0.00004   0.00000   0.00004  -0.00017  -0.00013  -0.00009
    D5        0.00010  -0.00001   0.00008  -0.00036  -0.00028  -0.00018
    D6       -3.14153   0.00000  -0.00001  -0.00022  -0.00024   3.14141
    D7       -3.14142  -0.00001   0.00021  -0.00057  -0.00036   3.14140
    D8        0.00013  -0.00001   0.00012  -0.00043  -0.00032  -0.00018
    D9       -0.00028   0.00001  -0.00025   0.00090   0.00066   0.00038
   D10       -3.14144  -0.00001   0.00016  -0.00047  -0.00031   3.14143
   D11        3.14136   0.00001  -0.00027   0.00077   0.00050  -3.14133
   D12        0.00020  -0.00001   0.00013  -0.00061  -0.00047  -0.00027
   D13        0.00010   0.00000   0.00009  -0.00031  -0.00022  -0.00012
   D14        3.14128   0.00001  -0.00029   0.00100   0.00071  -3.14120
   D15        0.00020  -0.00001   0.00016  -0.00069  -0.00053  -0.00033
   D16        3.14116   0.00002  -0.00033   0.00149   0.00117  -3.14085
   D17       -0.00030   0.00001  -0.00025   0.00103   0.00078   0.00048
   D18        3.14133   0.00001  -0.00016   0.00089   0.00073  -3.14112
   D19       -3.14125  -0.00002   0.00025  -0.00120  -0.00095   3.14098
   D20        0.00038  -0.00002   0.00034  -0.00134  -0.00100  -0.00061
         Item               Value     Threshold  Converged?
 Maximum Force            0.000851     0.000450     NO 
 RMS     Force            0.000166     0.000300     YES
 Maximum Displacement     0.001545     0.001800     YES
 RMS     Displacement     0.000540     0.001200     YES
 Predicted change in Energy=-2.266179D-06
 GradGradGradGradGradGradGradGradGradGradGradGradGradGradGradGradGradGrad

                          Input orientation:                          
 ---------------------------------------------------------------------
 Center     Atomic      Atomic             Coordinates (Angstroms)
 Number     Number       Type             X           Y           Z
 ---------------------------------------------------------------------
      1          6           0        1.394103   -0.061523    1.648118
      2          6           0        0.227829   -0.418167    0.972893
      3          6           0       -0.632795   -1.324637    1.583018
      4          7           0       -0.400486   -1.870817    2.781946
      5          6           0        0.708317   -1.516138    3.397684
      6          6           0        1.651672   -0.618968    2.894004
      7         17           0        0.997070   -2.239553    4.962064
      8          1           0        2.096260    0.642455    1.211216
      9          1           0       -0.010975   -0.006030   -0.001545
     10          1           0       -1.554463   -1.633734    1.096704
     11          1           0        2.541767   -0.378589    3.463798
 ---------------------------------------------------------------------
                    Distance matrix (angstroms):
                    1          2          3          4          5
     1  C    0.000000
     2  C    1.394030   0.000000
     3  C    2.389144   1.390904   0.000000
     4  N    2.789204   2.403673   1.337800   0.000000
     5  C    2.376381   2.704814   2.264567   1.316956   0.000000
     6  C    1.388999   2.399649   2.726801   2.406457   1.395896
     7  Cl   3.985434   4.452265   3.861539   2.615730   1.747568
     8  H    1.086045   2.161655   3.384587   3.875238   3.371431
     9  H    2.167651   1.084626   2.153189   3.372977   3.788477
    10  H    3.386731   2.160902   1.086975   2.056189   3.229321
    11  H    2.171257   3.400071   3.809224   3.368757   2.158687
                    6          7          8          9         10
     6  C    0.000000
     7  Cl   2.707706   0.000000
     8  H    2.149563   4.856238   0.000000
     9  H    3.394744   5.535539   2.516299   0.000000
    10  H    3.813049   4.671011   4.303711   2.497584   0.000000
    11  H    1.083844   2.845010   2.512992   4.320173   4.894653
                   11
    11  H    0.000000
 Stoichiometry    C5H4ClN
 Framework group  C1[X(C5H4ClN)]
 Deg. of freedom    27
 Full point group                 C1      NOp   1
 Largest Abelian subgroup         C1      NOp   1
 Largest concise Abelian subgroup C1      NOp   1
                         Standard orientation:                         
 ---------------------------------------------------------------------
 Center     Atomic      Atomic             Coordinates (Angstroms)
 Number     Number       Type             X           Y           Z
 ---------------------------------------------------------------------
      1          6           0       -1.583617    1.176780   -0.000070
      2          6           0       -2.231802   -0.057389   -0.000101
      3          6           0       -1.451356   -1.208700   -0.000184
      4          7           0       -0.113641   -1.193627    0.000188
      5          6           0        0.472669   -0.014384    0.000517
      6          6           0       -0.195051    1.211452    0.000131
      7         17           0        2.220236   -0.012501   -0.000156
      8          1           0       -2.151117    2.102759   -0.000194
      9          1           0       -3.314084   -0.128668   -0.000170
     10          1           0       -1.909967   -2.194190   -0.000063
     11          1           0        0.361578    2.141443    0.000001
 ---------------------------------------------------------------------
 Rotational constants (GHZ):      5.8991023      1.6321126      1.2784125
 Standard basis: 6-31+G(d) (6D, 7F)
 There are   145 symmetry adapted cartesian basis functions of A   symmetry.
 There are   145 symmetry adapted basis functions of A   symmetry.
   145 basis functions,   264 primitive gaussians,   145 cartesian basis functions
    29 alpha electrons       29 beta electrons
       nuclear repulsion energy       320.2455404140 Hartrees.
 NAtoms=   11 NActive=   11 NUniq=   11 SFac= 1.00D+00 NAtFMM=   60 NAOKFM=F Big=F
 Integral buffers will be    131072 words long.
 Raffenetti 2 integral format.
 Two-electron integral symmetry is turned on.
 One-electron integrals computed using PRISM.
 NBasis=   145 RedAO= T EigKep=  1.46D-05  NBF=   145
 NBsUse=   145 1.00D-06 EigRej= -1.00D+00 NBFU=   145
 Initial guess from the checkpoint file:  "/srv/scratch/z5358697/gauss/Gau-997260.chk"
 B after Tr=     0.000000    0.000000    0.000000
         Rot=    1.000000    0.000000    0.000000    0.000057 Ang=   0.01 deg.
 Requested convergence on RMS density matrix=1.00D-08 within 128 cycles.
 Requested convergence on MAX density matrix=1.00D-06.
 Requested convergence on             energy=1.00D-06.
 No special actions if energy rises.
 SCF Done:  E(RM062X) =  -707.752177190     A.U. after   10 cycles
            NFock= 10  Conv=0.33D-08     -V/T= 2.0047
 Calling FoFJK, ICntrl=      2127 FMM=F ISym2X=0 I1Cent= 0 IOpClX= 0 NMat=1 NMatS=1 NMatT=0.
 ***** Axes restored to original set *****
 -------------------------------------------------------------------
 Center     Atomic                   Forces (Hartrees/Bohr)
 Number     Number              X              Y              Z
 -------------------------------------------------------------------
      1        6           0.000102555    0.000030921    0.000080853
      2        6          -0.000140600   -0.000110996   -0.000001903
      3        6           0.000050207    0.000173828   -0.000092420
      4        7           0.000006613   -0.000016958    0.000062924
      5        6           0.000097914   -0.000131959    0.000091609
      6        6          -0.000076920    0.000021656   -0.000065856
      7       17          -0.000029288    0.000078069   -0.000091959
      8        1          -0.000025035   -0.000007786   -0.000019302
      9        1           0.000019625    0.000003296    0.000004540
     10        1          -0.000013790   -0.000050094    0.000026258
     11        1           0.000008719    0.000010021    0.000005257
 -------------------------------------------------------------------
 Cartesian Forces:  Max     0.000173828 RMS     0.000070122

 GradGradGradGradGradGradGradGradGradGradGradGradGradGradGradGradGradGrad
 Berny optimization.
 Using GEDIIS/GDIIS optimizer.
 FormGI is forming the generalized inverse of G from B-inverse, IUseBI=4.
 Internal  Forces:  Max     0.000120225 RMS     0.000032583
 Search for a local minimum.
 Step number   5 out of a maximum of   57
 All quantities printed in internal units (Hartrees-Bohrs-Radians)
 Mixed Optimization -- En-DIIS/RFO-DIIS
 Swapping is turned off.
 Update second derivatives using D2CorX and points    1    2    3    4    5
 DE= -2.27D-06 DEPred=-2.27D-06 R= 1.00D+00
 TightC=F SS=  1.41D+00  RLast= 5.23D-03 DXNew= 5.0454D-01 1.5684D-02
 Trust test= 1.00D+00 RLast= 5.23D-03 DXMaxT set to 3.00D-01
 ITU=  1  1  1  1  0
     Eigenvalues ---    0.02216   0.02230   0.02245   0.02251   0.02279
     Eigenvalues ---    0.02293   0.02315   0.02481   0.13128   0.15461
     Eigenvalues ---    0.16010   0.16243   0.19507   0.22129   0.23348
     Eigenvalues ---    0.25175   0.29197   0.35310   0.35388   0.35402
     Eigenvalues ---    0.35520   0.38457   0.43555   0.45279   0.49024
     Eigenvalues ---    0.50279   0.53544
 En-DIIS/RFO-DIIS IScMMF=        0 using points:     5    4    3
 RFO step:  Lambda=-1.19718801D-07.
 DidBck=F Rises=F RFO-DIIS coefs:    0.96517    0.08771   -0.05287
 Iteration  1 RMS(Cart)=  0.00033033 RMS(Int)=  0.00000023
 Iteration  2 RMS(Cart)=  0.00000020 RMS(Int)=  0.00000015
 Variable       Old X    -DE/DX   Delta X   Delta X   Delta X     New X
                                 (Linear)    (Quad)   (Total)
    R1        2.63433   0.00007   0.00001   0.00020   0.00021   2.63455
    R2        2.62483  -0.00004  -0.00008  -0.00007  -0.00015   2.62468
    R3        2.05233  -0.00001   0.00001  -0.00004  -0.00003   2.05230
    R4        2.62843  -0.00010  -0.00001  -0.00031  -0.00031   2.62811
    R5        2.04965  -0.00001   0.00000  -0.00001  -0.00001   2.04963
    R6        2.52808   0.00007   0.00004   0.00026   0.00031   2.52838
    R7        2.05409   0.00001  -0.00003   0.00005   0.00002   2.05410
    R8        2.48869  -0.00001  -0.00008   0.00007  -0.00001   2.48868
    R9        2.63786  -0.00001   0.00009  -0.00007   0.00001   2.63787
   R10        3.30242  -0.00012   0.00014  -0.00040  -0.00026   3.30216
   R11        2.04817   0.00001  -0.00001   0.00003   0.00002   2.04819
    A1        2.07936  -0.00001  -0.00001  -0.00001  -0.00002   2.07935
    A2        2.10816  -0.00002   0.00000  -0.00019  -0.00019   2.10797
    A3        2.09566   0.00002   0.00001   0.00020   0.00021   2.09587
    A4        2.06227  -0.00001   0.00005  -0.00005   0.00000   2.06227
    A5        2.12016  -0.00003  -0.00004  -0.00020  -0.00024   2.11993
    A6        2.10075   0.00003  -0.00002   0.00025   0.00023   2.10099
    A7        2.15525   0.00000  -0.00002   0.00005   0.00003   2.15528
    A8        2.11031   0.00004   0.00001   0.00031   0.00033   2.11064
    A9        2.01762  -0.00005   0.00001  -0.00037  -0.00036   2.01726
   A10        2.04346   0.00001  -0.00007   0.00002  -0.00005   2.04341
   A11        2.18142  -0.00002   0.00011  -0.00014  -0.00003   2.18140
   A12        2.03327   0.00000  -0.00003   0.00000  -0.00003   2.03324
   A13        2.06849   0.00002  -0.00008   0.00014   0.00006   2.06855
   A14        2.04460   0.00003  -0.00006   0.00013   0.00007   2.04467
   A15        2.13510  -0.00001   0.00002  -0.00003  -0.00001   2.13509
   A16        2.10348  -0.00002   0.00004  -0.00010  -0.00006   2.10342
    D1       -0.00021   0.00001   0.00003   0.00030   0.00034   0.00013
    D2        3.14150   0.00000   0.00003   0.00012   0.00015  -3.14154
    D3        3.14139   0.00001   0.00001   0.00034   0.00035  -3.14144
    D4       -0.00009   0.00000   0.00001   0.00015   0.00016   0.00008
    D5       -0.00018   0.00001   0.00002   0.00033   0.00035   0.00017
    D6        3.14141   0.00001   0.00001   0.00033   0.00034  -3.14143
    D7        3.14140   0.00001   0.00004   0.00029   0.00033  -3.14145
    D8       -0.00018   0.00001   0.00003   0.00030   0.00032   0.00014
    D9        0.00038  -0.00002  -0.00005  -0.00058  -0.00063  -0.00025
   D10        3.14143   0.00001   0.00003   0.00021   0.00024  -3.14151
   D11       -3.14133  -0.00001  -0.00005  -0.00039  -0.00045   3.14141
   D12       -0.00027   0.00001   0.00003   0.00040   0.00043   0.00016
   D13       -0.00012   0.00000   0.00002   0.00015   0.00017   0.00006
   D14       -3.14120  -0.00002  -0.00006  -0.00060  -0.00066   3.14133
   D15       -0.00033   0.00002   0.00004   0.00057   0.00061   0.00028
   D16       -3.14085  -0.00004  -0.00008  -0.00128  -0.00136   3.14097
   D17        0.00048  -0.00002  -0.00006  -0.00081  -0.00087  -0.00039
   D18       -3.14112  -0.00002  -0.00005  -0.00082  -0.00086   3.14120
   D19        3.14098   0.00003   0.00006   0.00107   0.00113  -3.14107
   D20       -0.00061   0.00003   0.00008   0.00106   0.00114   0.00053
         Item               Value     Threshold  Converged?
 Maximum Force            0.000120     0.000450     YES
 RMS     Force            0.000033     0.000300     YES
 Maximum Displacement     0.001190     0.001800     YES
 RMS     Displacement     0.000330     0.001200     YES
 Predicted change in Energy=-2.012962D-07
 Optimization completed.
    -- Stationary point found.
                           ----------------------------
                           !   Optimized Parameters   !
                           ! (Angstroms and Degrees)  !
 --------------------------                            --------------------------
 ! Name  Definition              Value          Derivative Info.                !
 --------------------------------------------------------------------------------
 ! R1    R(1,2)                  1.394          -DE/DX =    0.0001              !
 ! R2    R(1,6)                  1.389          -DE/DX =    0.0                 !
 ! R3    R(1,8)                  1.086          -DE/DX =    0.0                 !
 ! R4    R(2,3)                  1.3909         -DE/DX =   -0.0001              !
 ! R5    R(2,9)                  1.0846         -DE/DX =    0.0                 !
 ! R6    R(3,4)                  1.3378         -DE/DX =    0.0001              !
 ! R7    R(3,10)                 1.087          -DE/DX =    0.0                 !
 ! R8    R(4,5)                  1.317          -DE/DX =    0.0                 !
 ! R9    R(5,6)                  1.3959         -DE/DX =    0.0                 !
 ! R10   R(5,7)                  1.7476         -DE/DX =   -0.0001              !
 ! R11   R(6,11)                 1.0838         -DE/DX =    0.0                 !
 ! A1    A(2,1,6)              119.1388         -DE/DX =    0.0                 !
 ! A2    A(2,1,8)              120.7889         -DE/DX =    0.0                 !
 ! A3    A(6,1,8)              120.0723         -DE/DX =    0.0                 !
 ! A4    A(1,2,3)              118.1591         -DE/DX =    0.0                 !
 ! A5    A(1,2,9)              121.4765         -DE/DX =    0.0                 !
 ! A6    A(3,2,9)              120.3644         -DE/DX =    0.0                 !
 ! A7    A(2,3,4)              123.4868         -DE/DX =    0.0                 !
 ! A8    A(2,3,10)             120.9121         -DE/DX =    0.0                 !
 ! A9    A(4,3,10)             115.6011         -DE/DX =    0.0                 !
 ! A10   A(3,4,5)              117.0818         -DE/DX =    0.0                 !
 ! A11   A(4,5,6)              124.9864         -DE/DX =    0.0                 !
 ! A12   A(4,5,7)              116.498          -DE/DX =    0.0                 !
 ! A13   A(6,5,7)              118.5156         -DE/DX =    0.0                 !
 ! A14   A(1,6,5)              117.147          -DE/DX =    0.0                 !
 ! A15   A(1,6,11)             122.3322         -DE/DX =    0.0                 !
 ! A16   A(5,6,11)             120.5207         -DE/DX =    0.0                 !
 ! D1    D(6,1,2,3)             -0.0119         -DE/DX =    0.0                 !
[...]
 Number     Number              X              Y              Z
 -------------------------------------------------------------------
      1        6           0.000102548    0.000030927    0.000080837
      2        6          -0.000140588   -0.000110990   -0.000001902
      3        6           0.000050211    0.000173837   -0.000092430
      4        7           0.000006613   -0.000016967    0.000062940
      5        6           0.000097911   -0.000131972    0.000091617
      6        6          -0.000076918    0.000021659   -0.000065859
      7       17          -0.000029288    0.000078073   -0.000091961
      8        1          -0.000025036   -0.000007788   -0.000019299
      9        1           0.000019624    0.000003294    0.000004544
     10        1          -0.000013797   -0.000050096    0.000026255
     11        1           0.000008720    0.000010021    0.000005258
 -------------------------------------------------------------------
 Cartesian Forces:  Max     0.000173837 RMS     0.000070123
 FormGI is forming the generalized inverse of G from B-inverse, IUseBI=4.

 GradGradGradGradGradGradGradGradGradGradGradGradGradGradGradGradGradGrad
 Berny optimization.
 Internal  Forces:  Max     0.000120229 RMS     0.000032583
 Search for a local minimum.
 Step number   1 out of a maximum of    2
 All quantities printed in internal units (Hartrees-Bohrs-Radians)
 Second derivative matrix not updated -- analytic derivatives used.
 ITU=  0
     Eigenvalues ---    0.01567   0.01808   0.02330   0.02562   0.02859
     Eigenvalues ---    0.03027   0.03669   0.04611   0.10694   0.11430
     Eigenvalues ---    0.12131   0.13322   0.17445   0.19200   0.21083
     Eigenvalues ---    0.21540   0.26875   0.29486   0.36342   0.36752
     Eigenvalues ---    0.37029   0.37291   0.44536   0.46278   0.49708
     Eigenvalues ---    0.54478   0.59193
 Angle between quadratic step and forces=  40.21 degrees.
 Linear search not attempted -- first point.
 Iteration  1 RMS(Cart)=  0.00022604 RMS(Int)=  0.00000009
 Iteration  2 RMS(Cart)=  0.00000009 RMS(Int)=  0.00000005
 Variable       Old X    -DE/DX   Delta X   Delta X   Delta X     New X
                                 (Linear)    (Quad)   (Total)
    R1        2.63433   0.00007   0.00000   0.00026   0.00026   2.63459
    R2        2.62483  -0.00004   0.00000  -0.00020  -0.00020   2.62463
    R3        2.05233  -0.00001   0.00000  -0.00004  -0.00004   2.05228
    R4        2.62843  -0.00010   0.00000  -0.00032  -0.00032   2.62811
    R5        2.04965  -0.00001   0.00000  -0.00002  -0.00002   2.04963
    R6        2.52808   0.00007   0.00000   0.00023   0.00023   2.52831
    R7        2.05409   0.00001   0.00000   0.00003   0.00003   2.05412
    R8        2.48869  -0.00001   0.00000  -0.00003  -0.00003   2.48866
    R9        2.63786  -0.00001   0.00000   0.00008   0.00008   2.63794
   R10        3.30242  -0.00012   0.00000  -0.00056  -0.00056   3.30187
   R11        2.04817   0.00001   0.00000   0.00005   0.00005   2.04821
    A1        2.07936  -0.00001   0.00000  -0.00005  -0.00005   2.07932
    A2        2.10816  -0.00002   0.00000  -0.00019  -0.00019   2.10797
    A3        2.09566   0.00002   0.00000   0.00024   0.00024   2.09589
    A4        2.06227  -0.00001   0.00000  -0.00001  -0.00001   2.06225
    A5        2.12016  -0.00003   0.00000  -0.00030  -0.00030   2.11987
    A6        2.10075   0.00003   0.00000   0.00031   0.00031   2.10107
    A7        2.15525   0.00000   0.00000   0.00002   0.00002   2.15527
    A8        2.11031   0.00004   0.00000   0.00038   0.00038   2.11069
    A9        2.01762  -0.00005   0.00000  -0.00040  -0.00040   2.01722
   A10        2.04346   0.00001   0.00000   0.00006   0.00006   2.04352
   A11        2.18142  -0.00002   0.00000  -0.00017  -0.00017   2.18125
   A12        2.03327   0.00000   0.00000   0.00006   0.00006   2.03333
   A13        2.06849   0.00002   0.00000   0.00011   0.00011   2.06860
   A14        2.04460   0.00003   0.00000   0.00016   0.00016   2.04476
   A15        2.13510  -0.00001   0.00000  -0.00002  -0.00002   2.13508
   A16        2.10348  -0.00002   0.00000  -0.00014  -0.00014   2.10335
    D1       -0.00021   0.00001   0.00000   0.00020   0.00020  -0.00001
    D2        3.14150   0.00000   0.00000   0.00009   0.00009   3.14159
    D3        3.14139   0.00001   0.00000   0.00020   0.00020  -3.14159
    D4       -0.00009   0.00000   0.00000   0.00008   0.00008   0.00000
    D5       -0.00018   0.00001   0.00000   0.00018   0.00018   0.00000
    D6        3.14141   0.00001   0.00000   0.00018   0.00018  -3.14159
    D7        3.14140   0.00001   0.00000   0.00018   0.00018   3.14158
    D8       -0.00018   0.00001   0.00000   0.00018   0.00018   0.00000
    D9        0.00038  -0.00002   0.00000  -0.00037  -0.00037   0.00001
   D10        3.14143   0.00001   0.00000   0.00016   0.00016  -3.14159
   D11       -3.14133  -0.00001   0.00000  -0.00025  -0.00025  -3.14158
   D12       -0.00027   0.00001   0.00000   0.00028   0.00028   0.00000
   D13       -0.00012   0.00000   0.00000   0.00011   0.00011   0.00000
   D14       -3.14120  -0.00002   0.00000  -0.00039  -0.00039  -3.14159
   D15       -0.00033   0.00002   0.00000   0.00032   0.00032  -0.00001
   D16       -3.14085  -0.00004   0.00000  -0.00078  -0.00078   3.14155
   D17        0.00048  -0.00002   0.00000  -0.00047  -0.00047   0.00001
   D18       -3.14112  -0.00002   0.00000  -0.00047  -0.00047  -3.14159
   D19        3.14098   0.00003   0.00000   0.00065   0.00065  -3.14155
   D20       -0.00061   0.00003   0.00000   0.00065   0.00065   0.00003
         Item               Value     Threshold  Converged?
 Maximum Force            0.000120     0.000450     YES
 RMS     Force            0.000033     0.000300     YES
 Maximum Displacement     0.000744     0.001800     YES
 RMS     Displacement     0.000226     0.001200     YES
 Predicted change in Energy=-1.697265D-07
 Optimization completed.
    -- Stationary point found.
                           ----------------------------
                           !   Optimized Parameters   !
                           ! (Angstroms and Degrees)  !
 --------------------------                            --------------------------
 ! Name  Definition              Value          Derivative Info.                !
 --------------------------------------------------------------------------------
 ! R1    R(1,2)                  1.394          -DE/DX =    0.0001              !
 ! R2    R(1,6)                  1.389          -DE/DX =    0.0                 !
 ! R3    R(1,8)                  1.086          -DE/DX =    0.0                 !
 ! R4    R(2,3)                  1.3909         -DE/DX =   -0.0001              !
 ! R5    R(2,9)                  1.0846         -DE/DX =    0.0                 !
 ! R6    R(3,4)                  1.3378         -DE/DX =    0.0001              !
 ! R7    R(3,10)                 1.087          -DE/DX =    0.0                 !
 ! R8    R(4,5)                  1.317          -DE/DX =    0.0                 !
 ! R9    R(5,6)                  1.3959         -DE/DX =    0.0                 !
 ! R10   R(5,7)                  1.7476         -DE/DX =   -0.0001              !
 ! R11   R(6,11)                 1.0838         -DE/DX =    0.0                 !
 ! A1    A(2,1,6)              119.1388         -DE/DX =    0.0                 !
 ! A2    A(2,1,8)              120.7889         -DE/DX =    0.0                 !
 ! A3    A(6,1,8)              120.0723         -DE/DX =    0.0                 !
 ! A4    A(1,2,3)              118.1591         -DE/DX =    0.0                 !
 ! A5    A(1,2,9)              121.4765         -DE/DX =    0.0                 !
 ! A6    A(3,2,9)              120.3644         -DE/DX =    0.0                 !
 ! A7    A(2,3,4)              123.4868         -DE/DX =    0.0                 !
 ! A8    A(2,3,10)             120.9121         -DE/DX =    0.0                 !
 ! A9    A(4,3,10)             115.6011         -DE/DX =    0.0                 !
 ! A10   A(3,4,5)              117.0818         -DE/DX =    0.0                 !
 ! A11   A(4,5,6)              124.9864         -DE/DX =    0.0                 !
 ! A12   A(4,5,7)              116.498          -DE/DX =    0.0                 !
 ! A13   A(6,5,7)              118.5156         -DE/DX =    0.0                 !
 ! A14   A(1,6,5)              117.147          -DE/DX =    0.0                 !
 ! A15   A(1,6,11)             122.3322         -DE/DX =    0.0                 !
 ! A16   A(5,6,11)             120.5207         -DE/DX =    0.0                 !
 ! D1    D(6,1,2,3)             -0.0119         -DE/DX =    0.0                 !
 ! D2    D(6,1,2,9)            179.9947         -DE/DX =    0.0                 !
 ! D3    D(8,1,2,3)           -180.0116         -DE/DX =    0.0                 !
 ! D4    D(8,1,2,9)             -0.0049         -DE/DX =    0.0                 !
 ! D5    D(2,1,6,5)             -0.0104         -DE/DX =    0.0                 !
 ! D6    D(2,1,6,11)          -180.0102         -DE/DX =    0.0                 !
 ! D7    D(8,1,6,5)            179.9892         -DE/DX =    0.0                 !
 ! D8    D(8,1,6,11)            -0.0106         -DE/DX =    0.0                 !
 ! D9    D(1,2,3,4)              0.0217         -DE/DX =    0.0                 !
 ! D10   D(1,2,3,10)          -180.0091         -DE/DX =    0.0                 !
 ! D11   D(9,2,3,4)           -179.9849         -DE/DX =    0.0                 !
 ! D12   D(9,2,3,10)            -0.0157         -DE/DX =    0.0                 !
 ! D13   D(2,3,4,5)             -0.0066         -DE/DX =    0.0                 !
 ! D14   D(10,3,4,5)          -179.9773         -DE/DX =    0.0                 !
 ! D15   D(3,4,5,6)             -0.0189         -DE/DX =    0.0                 !
 ! D16   D(3,4,5,7)            180.0424         -DE/DX =    0.0                 !
 ! D17   D(4,5,6,1)              0.0275         -DE/DX =    0.0                 !
 ! D18   D(4,5,6,11)          -179.9728         -DE/DX =    0.0                 !
 ! D19   D(7,5,6,1)           -180.0349         -DE/DX =    0.0                 !
 ! D20   D(7,5,6,11)            -0.0352         -DE/DX =    0.0                 !
 --------------------------------------------------------------------------------
 GradGradGradGradGradGradGradGradGradGradGradGradGradGradGradGradGradGrad

 1\1\GINC-KATANA1\Freq\RM062X\6-31+G(d)\C5H4Cl1N1\Z5358697\15-Mar-2025\
 0\\#N Geom=AllCheck Guess=TCheck SCRF=Check GenChk RM062X/6-31+G(d) Fr
 eq\\2-chloropyridine\\0,1\C,1.394103083,-0.0615233237,1.6481181463\C,0
 .2278291944,-0.4181674373,0.9728929359\C,-0.6327948526,-1.3246366142,1
 .5830180199\N,-0.400486065,-1.8708165064,2.7819463717\C,0.7083169292,-
 1.5161375263,3.3976839211\C,1.6516722614,-0.6189682661,2.894003632\Cl,
 0.9970698659,-2.2395529733,4.9620642184\H,2.0962601593,0.6424546368,1.
 2112158555\H,-0.0109747871,-0.0060296496,-0.0015447208\H,-1.5544632529
 ,-1.6337337933,1.0967039359\H,2.5417674645,-0.3785885465,3.4637976841\
 \Version=ES64L-G09RevD.01\State=1-A\HF=-707.7521772\RMSD=1.686e-09\RMS
 F=7.012e-05\ZeroPoint=0.0801396\Thermal=0.0854545\Dipole=0.4459578,0.8
 791289,-1.0219291\DipoleDeriv=0.1537718,0.0728708,0.1408712,0.111468,0
 .0315102,-0.0812039,0.0743856,-0.1237449,0.2087101,-0.288711,-0.042436
 9,-0.1128041,-0.1355022,-0.1394114,-0.1176679,0.0477886,-0.0146531,-0.
 0426232,0.3323332,0.0980005,0.1977063,0.2026691,0.1303702,0.0012496,0.
 0168442,-0.1147503,0.2173507,-0.4944467,0.008915,-0.3012441,-0.0929583
 ,-0.3296375,0.0594079,-0.1261402,0.1719557,-0.6710788,0.2662646,-0.014
 7667,0.2279342,-0.0583024,0.4012685,-0.6133387,0.3032205,-0.564843,1.3
 908434,-0.0200089,-0.0274248,0.1253324,0.0595537,-0.2172569,0.2840301,
 -0.0245533,0.1877524,-0.4414664,-0.0993909,0.0590183,-0.1165397,0.0760
 235,-0.2305173,0.3331123,-0.1456493,0.3140596,-0.7879787,0.0371335,-0.
 0734186,0.0217211,-0.0732406,0.0516207,0.0574413,0.0213187,0.057245,0.
 0568641,0.0888628,-0.0129408,-0.0423158,-0.0102485,0.1009761,0.068447,
 -0.0469725,0.0654485,-0.0174945,-0.019428,-0.0346095,-0.0853886,-0.046
 1436,0.0831476,-0.0019342,-0.0651968,0.010948,0.0206476,0.0436195,-0.0
 332073,-0.0552732,-0.0333186,0.1179298,0.0104565,-0.0550456,0.0105822,
 0.0662256\Polar=67.8361279,10.2251153,59.2288149,11.9341393,-19.912516
 2,88.628589\PG=C01 [X(C5H4Cl1N1)]\NImag=0\\0.59689266,0.23337614,0.413
 69313,0.09791414,-0.20564291,0.60746323,-0.27617584,-0.09122031,-0.077
 37153,0.56303602,-0.05880570,-0.10994712,0.01406986,0.19652339,0.38174
 555,-0.13325786,-0.02179510,-0.17387926,0.13966589,-0.21552949,0.65649
 139,-0.03759432,-0.02333157,-0.00955153,-0.21075924,-0.13089767,0.0694
 1012,0.63618434,-0.04966135,0.00011331,-0.04240567,-0.09501658,-0.1867
 9878,0.09689036,0.21966743,0.39329024,0.03586087,-0.01326312,0.0699123
 1,0.00756522,0.05720921,-0.15978035,0.14945434,-0.16131139,0.60214115,
 -0.03503918,0.00903179,-0.04552070,0.06254567,0.02085497,0.00824502,-0
 .11365047,-0.01366539,-0.03065591,0.44443047,0.00868785,-0.00363064,0.
 00215836,-0.01334316,-0.00580904,0.03419071,0.00759250,-0.12859209,0.1
 1861872,0.10520719,0.23408642,-0.04494987,0.00254101,-0.06205112,0.067
 21807,0.07202725,-0.02722391,-0.06729526,0.09512020,-0.30313191,0.2090
 6213,-0.12921437,0.54572653,0.05620029,-0.01048666,0.07361939,-0.07139
 046,-0.04371469,0.00720448,-0.01042859,0.04958933,-0.09871375,-0.28972
 188,-0.08771960,-0.09274894,0.56036384,0.02101196,-0.01408554,0.057843
 41,-0.03590629,-0.03239638,-0.00073539,0.01712718,0.03144436,-0.032613
 56,-0.07933238,-0.11438223,-0.01011870,0.20891349,0.35301995,0.0193150
 8,0.02298317,-0.01228702,-0.00626079,-0.00937570,-0.00055144,-0.042747
 76,0.00329181,-0.05146337,-0.10718491,-0.01937050,-0.15451761,0.098166
 82,-0.12556368,0.47107318,-0.12759152,0.00689558,-0.08496868,0.0160344
 7,0.02296293,-0.02839959,-0.00880625,-0.01661511,0.02661003,-0.0501244
 3,-0.02741800,-0.03118562,-0.20605012,-0.12747127,0.06764484,0.6178354
 3,-0.02623989,-0.13149889,0.09163046,0.04505922,0.03600289,-0.00199850
 ,-0.00893070,-0.03725517,0.04231594,-0.05934080,0.00921631,-0.04567660
 ,-0.09209130,-0.17334073,0.07893672,0.21273293,0.36511564,-0.02782645,
 0.12828973,-0.31345058,-0.06650473,-0.02645696,-0.02203349,0.01336514,
 0.03382784,-0.05049807,0.02383334,-0.01036887,0.06503670,0.00667741,0.
 03982019,-0.12976718,0.17465174,-0.17307746,0.61974745,-0.00128615,-0.
 00289584,-0.00170409,0.00115616,0.00165997,-0.00101385,0.00060943,-0.0
 0427360,-0.00007688,-0.01463575,0.01188945,-0.03644321,-0.03236758,0.0
 0271057,-0.01058515,0.00570648,-0.00801824,0.01323313,0.04059726,-0.00
 665532,0.00109719,-0.00103535,0.00245758,0.00063382,0.00073802,-0.0044
 7408,0.00321083,0.00216423,0.00996108,0.00574132,0.00078339,-0.0041899
 6,-0.06012323,0.05238769,0.00340223,-0.00860683,0.02931066,-0.00258460
 ,0.06027851,0.00477461,0.00312743,0.00466328,-0.00237957,-0.00014245,-
 0.00290492,0.00025496,0.00238266,0.00352794,-0.03311860,0.00291589,-0.
 04184419,0.00129693,0.05999781,-0.12884423,-0.00643474,0.01670144,-0.0
 2963878,0.03519878,-0.08464922,0.19741581,-0.17654097,-0.12703077,0.07
 111728,-0.01034127,-0.01736040,0.01240108,-0.00209156,-0.00343543,-0.0
 0530217,-0.00082612,0.00163256,0.00011542,0.00315006,-0.00192836,-0.00
 333170,0.00865377,0.00418293,-0.00367594,0.00001773,0.00046619,-0.0003
 0203,0.17950903,-0.12698605,-0.17149748,0.08128963,-0.00404356,0.00036
 027,0.00439140,-0.00363981,0.00508568,0.00109771,0.00166015,-0.0017269
 1,-0.00117622,-0.00201759,0.00535173,0.00434584,-0.00910284,-0.0027506
 1,0.00407901,-0.00004754,-0.00062881,0.00028051,0.14053875,0.17051780,
 0.07104852,0.08123702,-0.10431321,-0.01056949,-0.01034526,0.01164333,-
 0.00494674,0.00133064,0.00029168,0.00007803,-0.00120758,-0.00130607,-0
 .00319356,0.00443667,-0.00200990,0.01923429,0.01878453,-0.00565735,0.0
 0058433,0.00085041,-0.00125485,-0.07412767,-0.09108841,0.10253608,-0.0
 0052674,0.01175739,-0.02383355,-0.06817952,0.01558473,-0.06203181,0.00
 950556,-0.00551158,0.01888689,0.00029639,-0.00577124,0.00163991,-0.002
 15075,-0.00116211,-0.00058735,-0.00254036,-0.00436120,-0.00341295,0.00
 000896,0.00053833,0.00050918,-0.00013973,0.00160598,0.00145785,0.06417
 708,-0.00169440,0.00691439,-0.00914301,0.01539274,-0.08891008,0.107547
 20,0.00851074,-0.00342619,0.01708481,-0.00500400,0.00177459,0.00486074
 ,-0.00180089,-0.00042934,-0.00092402,-0.00421762,0.00402659,0.00104891
 ,0.00069749,-0.00071773,-0.00021543,0.00193531,-0.00201675,-0.00120895
 ,-0.01489370,0.08407443,-0.00064830,0.00573620,-0.00790757,-0.06169617
 ,0.10776504,-0.29035310,-0.00528526,0.00156742,-0.00752821,0.00032117,
 0.00401593,0.00124121,0.00051037,-0.00021825,0.00113300,-0.00366033,0.
 00089020,0.00176024,0.00023507,-0.00039119,-0.00035623,0.00088975,-0.0
 0157429,-0.00026313,0.06823132,-0.11708071,0.30295324,0.00039491,-0.00
 506466,0.00091781,-0.00942158,-0.00462509,-0.01053546,-0.26361807,-0.0
 8092114,-0.10498787,-0.00242311,0.00453629,-0.00607956,0.00484766,-0.0
 0313779,-0.00143764,0.00022741,0.00005394,0.00068047,-0.00007816,-0.00
 000648,-0.00024470,-0.00076127,0.00011491,-0.00046089,-0.00052294,0.00
 125081,0.00101618,0.27182216,-0.00485058,0.00160493,0.00472475,-0.0175
 3544,0.00124720,-0.00893393,-0.08206659,-0.07625943,-0.03261829,0.0165
 8454,0.00230379,0.00747993,-0.00163256,0.00643079,0.00614210,0.0004433
 2,-0.00048864,0.00051941,0.00019377,0.00010257,0.00030243,-0.00065131,
 -0.00048367,-0.00078888,0.00165771,-0.00168299,-0.00111285,0.08720007,
 0.06814399,0.00054026,0.00448297,0.00033041,0.01170425,0.00533996,0.01
 105633,-0.10298295,-0.03134626,-0.10237164,-0.02685908,-0.00584135,-0.
 02364606,-0.00402392,0.00448473,-0.00114066,0.00000689,0.00008229,-0.0
 0060622,-0.00059164,0.00008017,-0.00063920,0.00085797,0.00005789,0.000
 32564,0.00031726,-0.00156127,-0.00035050,0.12078334,0.02493321,0.11725
 567,0.00126685,-0.00103109,-0.00061852,0.00349559,-0.00218244,-0.00168
 803,0.00064916,-0.00015659,0.00135923,-0.00085159,-0.00529385,0.000666
 94,-0.01245248,-0.00082499,-0.01299142,-0.25334486,-0.06304689,-0.1310
 2115,0.00027161,0.00108503,0.00044518,-0.00062967,0.00191759,0.0008953
 3,0.00007205,-0.00017649,0.00008620,-0.00046702,0.00065707,0.00024763,
 0.26199035,0.01181734,0.00723674,0.00651048,-0.00236760,0.00387167,0.0
 0523472,0.00044258,-0.00081275,0.00131575,-0.00595715,0.00101849,0.003
 37336,-0.01484955,-0.00148939,-0.01285343,-0.06161216,-0.06042057,-0.0
 2699245,0.00066856,-0.00098765,-0.00070107,0.00165053,-0.00221125,-0.0
 0200018,0.00055570,0.00039308,0.00040250,0.00059913,-0.00091855,-0.000
 71235,0.06905263,0.05432018,-0.02277100,-0.00769640,-0.00848049,-0.001
 37115,0.00543855,-0.00246457,0.00032495,0.00065237,-0.00109953,0.00179
 951,0.00410306,0.00171643,0.01120478,0.00266676,0.00837523,-0.13349882
 ,-0.02858901,-0.13489272,0.00116351,-0.00023881,-0.00012464,0.00135801
 ,-0.00170306,0.00000779,-0.00117673,-0.00040827,-0.00032896,0.00034833
 ,-0.00064787,-0.00021377,0.14261862,0.02642268,0.13750522\\-0.00010255
 ,-0.00003093,-0.00008084,0.00014059,0.00011099,0.00000190,-0.00005021,
 -0.00017384,0.00009243,-0.00000661,0.00001697,-0.00006294,-0.00009791,
 0.00013197,-0.00009162,0.00007692,-0.00002166,0.00006586,0.00002929,-0
 .00007807,0.00009196,0.00002504,0.00000779,0.00001930,-0.00001962,-0.0
 0000329,-0.00000454,0.00001380,0.00005010,-0.00002626,-0.00000872,-0.0
 0001002,-0.00000526\\\@


 THE UNDERLYING PHYSICAL LAWS NECESSARY FOR THE 
 MATHEMATICAL THEORY OF A LARGE PART OF PHYSICS AND THE
 WHOLE OF CHEMISTRY ARE THUS COMPLETELY KNOWN, AND THE
 DIFFICULTY IS ONLY THAT THE EXACT APPLICATION OF THESE
 LAWS LEADS TO EQUATIONS MUCH TOO COMPLICATED 
 TO BE SOLUBLE.

                                        -- P. A. M. DIRAC, 1929
 Job cpu time:       0 days  0 hours  2 minutes 46.2 seconds.
 File lengths (MBytes):  RWF=    133 Int=      0 D2E=      0 Chk=      3 Scr=      2
 Normal termination of Gaussian 09 at Sat Mar 15 12:51:13 2025.
