 Entering Gaussian System, Link 0=g09
 Initial command:
 /apps/z_install_tree/linux-rocky8-ivybridge/gcc-12.2.0/gaussian-09-D.01-wczn3gur5lpur3omlkzwa2l5ecyxp5ef/g09/l1.exe "/srv/scratch/z5358697/gauss/Gau-1575758.inp" -scrdir="/srv/scratch/z5358697/gauss/"
 Entering Link 1 = /apps/z_install_tree/linux-rocky8-ivybridge/gcc-12.2.0/gaussian-09-D.01-wczn3gur5lpur3omlkzwa2l5ecyxp5ef/g09/l1.exe PID=   1575760.
  
 Copyright (c) 1988,1990,1992,1993,1995,1998,2003,2009,2013,
            Gaussian, Inc.  All Rights Reserved.
  
 This is part of the Gaussian(R) 09 program.  It is based on
 the Gaussian(R) 03 system (copyright 2003, Gaussian, Inc.),
 the Gaussian(R) 98 system (copyright 1998, Gaussian, Inc.),
 the Gaussian(R) 94 system (copyright 1995, Gaussian, Inc.),
 the Gaussian 92(TM) system (copyright 1992, Gaussian, Inc.),
 the Gaussian 90(TM) system (copyright 1990, Gaussian, Inc.),
 the Gaussian 88(TM) system (copyright 1988, Gaussian, Inc.),
 the Gaussian 86(TM) system (copyright 1986, Carnegie Mellon
 University), and the Gaussian 82(TM) system (copyright 1983,
 Carnegie Mellon University). Gaussian is a federally registered
 trademark of Gaussian, Inc.
  
 This software contains proprietary and confidential information,
 including trade secrets, belonging to Gaussian, Inc.
  
 This software is provided under written license and may be
 used, copied, transmitted, or stored only in accord with that
 written license.
  
 The following legend is applicable only to US Government
 contracts under FAR:
  
                    RESTRICTED RIGHTS LEGEND
  
 Use, reproduction and disclosure by the US Government is
 subject to restrictions as set forth in subparagraphs (a)
 and (c) of the Commercial Computer Software - Restricted
 Rights clause in FAR 52.227-19.
  
 Gaussian, Inc.
 340 Quinnipiac St., Bldg. 40, Wallingford CT 06492
  
  
 ---------------------------------------------------------------
 Warning -- This program may not be used in any manner that
 competes with the business of Gaussian, Inc. or will provide
 assistance to any competitor of Gaussian, Inc.  The licensee
 of this program is prohibited from giving any competitor of
 Gaussian, Inc. access to this program.  By using this program,
 the user acknowledges that Gaussian, Inc. is engaged in the
 business of creating and licensing software in the field of
 computational chemistry and represents and warrants to the
 licensee that it is not a competitor of Gaussian, Inc. and that
 it will not use this program in any manner prohibited above.
 ---------------------------------------------------------------
  

 Cite this work as:
 Gaussian 09, Revision D.01,
 M. J. Frisch, G. W. Trucks, H. B. Schlegel, G. E. Scuseria, 
 M. A. Robb, J. R. Cheeseman, G. Scalmani, V. Barone, B. Mennucci, 
 G. A. Petersson, H. Nakatsuji, M. Caricato, X. Li, H. P. Hratchian, 
 A. F. Izmaylov, J. Bloino, G. Zheng, J. L. Sonnenberg, M. Hada, 
 M. Ehara, K. Toyota, R. Fukuda, J. Hasegawa, M. Ishida, T. Nakajima, 
 Y. Honda, O. Kitao, H. Nakai, T. Vreven, J. A. Montgomery, Jr., 
 J. E. Peralta, F. Ogliaro, M. Bearpark, J. J. Heyd, E. Brothers, 
 K. N. Kudin, V. N. Staroverov, T. Keith, R. Kobayashi, J. Normand, 
 K. Raghavachari, A. Rendell, J. C. Burant, S. S. Iyengar, J. Tomasi, 
 M. Cossi, N. Rega, J. M. Millam, M. Klene, J. E. Knox, J. B. Cross, 
 V. Bakken, C. Adamo, J. Jaramillo, R. Gomperts, R. E. Stratmann, 
 O. Yazyev, A. J. Austin, R. Cammi, C. Pomelli, J. W. Ochterski, 
 R. L. Martin, K. Morokuma, V. G. Zakrzewski, G. A. Voth, 
 P. Salvador, J. J. Dannenberg, S. Dapprich, A. D. Daniels, 
 O. Farkas, J. B. Foresman, J. V. Ortiz, J. Cioslowski, 
 and D. J. Fox, Gaussian, Inc., Wallingford CT, 2013.
 
 ******************************************
 Gaussian 09:  ES64L-G09RevD.01 24-Apr-2013
                20-Mar-2025 
 ******************************************
 ---------------------------------
 #m062X/6-31+G(d) OPT Freq=noraman
 ---------------------------------
 1/14=-1,18=20,19=15,26=3,38=1/1,3;
 2/9=110,12=2,17=6,18=5,40=1/2;
 3/5=1,6=6,7=11,11=2,16=1,25=1,30=1,71=1,74=-55/1,2,3;
 4//1;
 5/5=2,38=5/2;
 6/7=2,8=2,9=2,10=2,28=1/1;
 7//1,2,3,16;
 1/14=-1,18=20,19=15,26=3/3(2);
 2/9=110/2;
 99//99;
 2/9=110/2;
 3/5=1,6=6,7=11,11=2,16=1,25=1,30=1,71=1,74=-55/1,2,3;
 4/5=5,16=3,69=1/1;
 5/5=2,38=5/2;
 7//1,2,3,16;
 1/14=-1,18=20,19=15,26=3/3(-5);
 2/9=110/2;
 6/7=2,8=2,9=2,10=2,19=2,28=1/1;
 99/9=1/99;
 -------------
 chloromethane
 -------------
 Symbolic Z-matrix:
 Charge =  0 Multiplicity = 1
 C                     0.083    -0.0659   -0.0904 
 Cl                   -0.97      0.7711    1.0556 
 H                     0.7012    0.6694   -0.61 
 H                     0.719    -0.7662    0.4554 
 H                    -0.5332   -0.6084   -0.8107 
 

 GradGradGradGradGradGradGradGradGradGradGradGradGradGradGradGradGradGrad
 Berny optimization.
 Initialization pass.
                           ----------------------------
                           !    Initial Parameters    !
                           ! (Angstroms and Degrees)  !
 --------------------------                            --------------------------
 ! Name  Definition              Value          Derivative Info.                !
 --------------------------------------------------------------------------------
 ! R1    R(1,2)                  1.7671         estimate D2E/DX2                !
 ! R2    R(1,3)                  1.0922         estimate D2E/DX2                !
 ! R3    R(1,4)                  1.0922         estimate D2E/DX2                !
 ! R4    R(1,5)                  1.0922         estimate D2E/DX2                !
 ! A1    A(2,1,3)              109.0829         estimate D2E/DX2                !
 ! A2    A(2,1,4)              109.0639         estimate D2E/DX2                !
 ! A3    A(2,1,5)              109.0733         estimate D2E/DX2                !
 ! A4    A(3,1,4)              109.8664         estimate D2E/DX2                !
 ! A5    A(3,1,5)              109.8771         estimate D2E/DX2                !
 ! A6    A(4,1,5)              109.8549         estimate D2E/DX2                !
 ! D1    D(2,1,4,3)           -119.5158         estimate D2E/DX2                !
 ! D2    D(2,1,5,3)            119.528          estimate D2E/DX2                !
 ! D3    D(2,1,5,4)           -119.4913         estimate D2E/DX2                !
 ! D4    D(3,1,5,4)            120.9807         estimate D2E/DX2                !
 --------------------------------------------------------------------------------
 Trust Radius=3.00D-01 FncErr=1.00D-07 GrdErr=1.00D-06
 Number of steps in this run=     24 maximum allowed number of steps=    100.
 GradGradGradGradGradGradGradGradGradGradGradGradGradGradGradGradGradGrad

                          Input orientation:                          
 ---------------------------------------------------------------------
 Center     Atomic      Atomic             Coordinates (Angstroms)
 Number     Number       Type             X           Y           Z
 ---------------------------------------------------------------------
      1          6           0        0.083000   -0.065900   -0.090400
      2         17           0       -0.970000    0.771100    1.055600
      3          1           0        0.701200    0.669400   -0.610000
      4          1           0        0.719000   -0.766200    0.455400
      5          1           0       -0.533200   -0.608400   -0.810700
 ---------------------------------------------------------------------
                    Distance matrix (angstroms):
                    1          2          3          4          5
     1  C    0.000000
     2  Cl   1.767115   0.000000
     3  H    1.092164   2.361668   0.000000
     4  H    1.092160   2.361409   1.787831   0.000000
     5  H    1.092173   2.361544   1.787959   1.787712   0.000000
 Stoichiometry    CH3Cl
 Framework group  C1[X(CH3Cl)]
 Deg. of freedom     9
 Full point group                 C1      NOp   1
 Largest Abelian subgroup         C1      NOp   1
 Largest concise Abelian subgroup C1      NOp   1
                         Standard orientation:                         
 ---------------------------------------------------------------------
 Center     Atomic      Atomic             Coordinates (Angstroms)
 Number     Number       Type             X           Y           Z
 ---------------------------------------------------------------------
      1          6           0        1.114241    0.000027   -0.000025
      2         17           0       -0.652874    0.000004   -0.000004
      3          1           0        1.471292    0.994468   -0.276473
      4          1           0        1.470980   -0.257814    0.999509
      5          1           0        1.471139   -0.736882   -0.722817
 ---------------------------------------------------------------------
 Rotational constants (GHZ):    156.8836162     13.4928702     13.4926854
 Standard basis: 6-31+G(d) (6D, 7F)
 There are    48 symmetry adapted cartesian basis functions of A   symmetry.
 There are    48 symmetry adapted basis functions of A   symmetry.
    48 basis functions,   100 primitive gaussians,    48 cartesian basis functions
    13 alpha electrons       13 beta electrons
       nuclear repulsion energy        51.5822447783 Hartrees.
 NAtoms=    5 NActive=    5 NUniq=    5 SFac= 1.00D+00 NAtFMM=   60 NAOKFM=F Big=F
 Integral buffers will be    131072 words long.
 Raffenetti 2 integral format.
 Two-electron integral symmetry is turned on.
 One-electron integrals computed using PRISM.
 NBasis=    48 RedAO= T EigKep=  1.30D-03  NBF=    48
 NBsUse=    48 1.00D-06 EigRej= -1.00D+00 NBFU=    48
 ExpMin= 4.38D-02 ExpMax= 2.52D+04 ExpMxC= 3.78D+03 IAcc=2 IRadAn=         4 AccDes= 0.00D+00
 Harris functional with IExCor= 1009 and IRadAn=       4 diagonalized for initial guess.
 HarFok:  IExCor= 1009 AccDes= 0.00D+00 IRadAn=         4 IDoV= 1 UseB2=F ITyADJ=14
 ICtDFT=  3500011 ScaDFX=  1.000000  1.000000  1.000000  1.000000
 FoFCou: FMM=F IPFlag=           0 FMFlag=      100000 FMFlg1=           0
         NFxFlg=           0 DoJE=T BraDBF=F KetDBF=T FulRan=T
         wScrn=  0.000000 ICntrl=     500 IOpCl=  0 I1Cent=   200000004 NGrid=           0
         NMat0=    1 NMatS0=      1 NMatT0=    0 NMatD0=    1 NMtDS0=    0 NMtDT0=    0
 Petite list used in FoFCou.
 Keep R1 ints in memory in canonical form, NReq=1587829.
 Requested convergence on RMS density matrix=1.00D-08 within 128 cycles.
 Requested convergence on MAX density matrix=1.00D-06.
 Requested convergence on             energy=1.00D-06.
 No special actions if energy rises.
 SCF Done:  E(RM062X) =  -500.047117820     A.U. after   10 cycles
            NFock= 10  Conv=0.19D-08     -V/T= 2.0031

 **********************************************************************

            Population analysis using the SCF density.

 **********************************************************************

 Orbital symmetries:
       Occupied  (A) (A) (A) (A) (A) (A) (A) (A) (A) (A) (A) (A)
                 (A)
       Virtual   (A) (A) (A) (A) (A) (A) (A) (A) (A) (A) (A) (A)
                 (A) (A) (A) (A) (A) (A) (A) (A) (A) (A) (A) (A)
                 (A) (A) (A) (A) (A) (A) (A) (A) (A) (A) (A)
 The electronic state is 1-A.
 Alpha  occ. eigenvalues -- -102.65786 -10.60573  -9.80536  -7.52957  -7.52258
 Alpha  occ. eigenvalues --   -7.52258  -0.95781  -0.76819  -0.52328  -0.52325
 Alpha  occ. eigenvalues --   -0.47871  -0.36156  -0.36155
 Alpha virt. eigenvalues --    0.02210   0.03609   0.06267   0.06268   0.08950
 Alpha virt. eigenvalues --    0.11643   0.11646   0.13059   0.18229   0.20714
 Alpha virt. eigenvalues --    0.20719   0.28761   0.60974   0.63872   0.63874
 Alpha virt. eigenvalues --    0.67206   0.67213   0.67401   0.72936   0.90741
 Alpha virt. eigenvalues --    0.90747   0.96614   0.96615   1.03657   1.03749
 Alpha virt. eigenvalues --    1.03759   1.16034   1.32419   1.74597   1.74605
 Alpha virt. eigenvalues --    2.21501   2.28341   2.28354   4.17197   4.44333
          Condensed to atoms (all electrons):
               1          2          3          4          5
     1  C    5.447373   0.136736   0.376976   0.376999   0.377151
     2  Cl   0.136736  17.031797  -0.049559  -0.049605  -0.049740
     3  H    0.376976  -0.049559   0.481859  -0.027127  -0.027120
     4  H    0.376999  -0.049605  -0.027127   0.481907  -0.027140
     5  H    0.377151  -0.049740  -0.027120  -0.027140   0.481920
 Mulliken charges:
               1
     1  C   -0.715236
     2  Cl  -0.019629
     3  H    0.244970
     4  H    0.244966
     5  H    0.244929
 Sum of Mulliken charges =   0.00000
 Mulliken charges with hydrogens summed into heavy atoms:
               1
     1  C    0.019629
     2  Cl  -0.019629
 Electronic spatial extent (au):  <R**2>=            130.5976
 Charge=              0.0000 electrons
 Dipole moment (field-independent basis, Debye):
    X=              2.0856    Y=              0.0004    Z=              0.0006  Tot=              2.0856
 Quadrupole moment (field-independent basis, Debye-Ang):
   XX=            -18.3948   YY=            -20.0696   ZZ=            -20.0704
   XY=             -0.0002   XZ=             -0.0004   YZ=              0.0001
 Traceless Quadrupole moment (field-independent basis, Debye-Ang):
   XX=              1.1168   YY=             -0.5579   ZZ=             -0.5588
   XY=             -0.0002   XZ=             -0.0004   YZ=              0.0001
 Octapole moment (field-independent basis, Debye-Ang**2):
  XXX=             -1.8700  YYY=              0.5794  ZZZ=              0.6136  XYY=              1.0472
  XXY=              0.0009  XXZ=              0.0007  XZZ=              1.0456  YZZ=             -0.5774
  YYZ=             -0.6110  XYZ=             -0.0004
 Hexadecapole moment (field-independent basis, Debye-Ang**3):
 XXXX=           -116.5506 YYYY=            -29.2621 ZZZZ=            -29.2616 XXXY=              0.0007
 XXXZ=             -0.0013 YYYX=              0.8259 YYYZ=              0.0008 ZZZX=              0.8742
 ZZZY=              0.0003 XXYY=            -24.3680 XXZZ=            -24.3709 YYZZ=             -9.7540
 XXYZ=              0.0000 YYXZ=             -0.8758 ZZXY=             -0.8275
 N-N= 5.158224477834D+01 E-N=-1.289160424235D+03  KE= 4.984938379553D+02
 Calling FoFJK, ICntrl=      2127 FMM=F ISym2X=0 I1Cent= 0 IOpClX= 0 NMat=1 NMatS=1 NMatT=0.
 ***** Axes restored to original set *****
 -------------------------------------------------------------------
 Center     Atomic                   Forces (Hartrees/Bohr)
 Number     Number              X              Y              Z
 -------------------------------------------------------------------
      1        6           0.006162149   -0.004985810   -0.006736158
      2       17          -0.004808373    0.003796193    0.005174596
      3        1          -0.001139337   -0.001026826    0.000967464
      4        1          -0.001139923    0.001211063   -0.000689507
      5        1           0.000925484    0.001005381    0.001283605
 -------------------------------------------------------------------
 Cartesian Forces:  Max     0.006736158 RMS     0.003488640

 GradGradGradGradGradGradGradGradGradGradGradGradGradGradGradGradGradGrad
 Berny optimization.
 FormGI is forming the generalized inverse of G from B-inverse, IUseBI=4.
 Internal  Forces:  Max     0.008019127 RMS     0.002304011
 Search for a local minimum.
 Step number   1 out of a maximum of   24
 All quantities printed in internal units (Hartrees-Bohrs-Radians)
 Mixed Optimization -- RFO/linear search
 Second derivative matrix not updated -- first step.
 The second derivative matrix:
                          R1        R2        R3        R4        A1
           R1           0.28888
           R2           0.00000   0.34564
           R3           0.00000   0.00000   0.34564
           R4           0.00000   0.00000   0.00000   0.34563
           A1           0.00000   0.00000   0.00000   0.00000   0.16000
           A2           0.00000   0.00000   0.00000   0.00000   0.00000
           A3           0.00000   0.00000   0.00000   0.00000   0.00000
           A4           0.00000   0.00000   0.00000   0.00000   0.00000
           A5           0.00000   0.00000   0.00000   0.00000   0.00000
           A6           0.00000   0.00000   0.00000   0.00000   0.00000
           D1           0.00000   0.00000   0.00000   0.00000   0.00000
           D2           0.00000   0.00000   0.00000   0.00000   0.00000
           D3           0.00000   0.00000   0.00000   0.00000   0.00000
           D4           0.00000   0.00000   0.00000   0.00000   0.00000
                          A2        A3        A4        A5        A6
           A2           0.16000
           A3           0.00000   0.16000
           A4           0.00000   0.00000   0.16000
           A5           0.00000   0.00000   0.00000   0.16000
           A6           0.00000   0.00000   0.00000   0.00000   0.16000
           D1           0.00000   0.00000   0.00000   0.00000   0.00000
           D2           0.00000   0.00000   0.00000   0.00000   0.00000
           D3           0.00000   0.00000   0.00000   0.00000   0.00000
           D4           0.00000   0.00000   0.00000   0.00000   0.00000
                          D1        D2        D3        D4
           D1           0.00230
           D2           0.00000   0.00230
           D3           0.00000   0.00000   0.00230
           D4           0.00000   0.00000   0.00000   0.00230
 ITU=  0
     Eigenvalues ---    0.05059   0.05668   0.08713   0.16000   0.16000
     Eigenvalues ---    0.28888   0.34563   0.34564   0.34564
 RFO step:  Lambda=-2.52850316D-04 EMin= 5.05908694D-02
 Linear search not attempted -- first point.
 Iteration  1 RMS(Cart)=  0.00622825 RMS(Int)=  0.00000471
 Iteration  2 RMS(Cart)=  0.00000324 RMS(Int)=  0.00000140
 Iteration  3 RMS(Cart)=  0.00000000 RMS(Int)=  0.00000140
 Variable       Old X    -DE/DX   Delta X   Delta X   Delta X     New X
                                 (Linear)    (Quad)   (Total)
    R1        3.33936   0.00802   0.00000   0.02773   0.02773   3.36710
    R2        2.06389  -0.00180   0.00000  -0.00520  -0.00520   2.05869
    R3        2.06388  -0.00179   0.00000  -0.00517  -0.00517   2.05872
    R4        2.06391  -0.00186   0.00000  -0.00539  -0.00539   2.05852
    A1        1.90386  -0.00006   0.00000  -0.00158  -0.00158   1.90227
    A2        1.90352  -0.00008   0.00000  -0.00127  -0.00127   1.90226
    A3        1.90369  -0.00011   0.00000  -0.00119  -0.00119   1.90250
    A4        1.91753   0.00005   0.00000   0.00154   0.00154   1.91907
    A5        1.91772   0.00007   0.00000   0.00101   0.00100   1.91872
    A6        1.91733   0.00013   0.00000   0.00144   0.00143   1.91876
    D1       -2.08594   0.00009   0.00000   0.00178   0.00178  -2.08416
    D2        2.08616  -0.00010   0.00000  -0.00206  -0.00206   2.08410
    D3       -2.08552   0.00009   0.00000   0.00141   0.00141  -2.08410
    D4        2.11151   0.00019   0.00000   0.00347   0.00347   2.11498
         Item               Value     Threshold  Converged?
 Maximum Force            0.008019     0.000450     NO 
 RMS     Force            0.002304     0.000300     NO 
 Maximum Displacement     0.012673     0.001800     NO 
 RMS     Displacement     0.006230     0.001200     NO 
 Predicted change in Energy=-1.265389D-04
 GradGradGradGradGradGradGradGradGradGradGradGradGradGradGradGradGradGrad

                          Input orientation:                          
 ---------------------------------------------------------------------
 Center     Atomic      Atomic             Coordinates (Angstroms)
 Number     Number       Type             X           Y           Z
 ---------------------------------------------------------------------
      1          6           0        0.085559   -0.068032   -0.093141
      2         17           0       -0.976122    0.776097    1.062306
      3          1           0        0.701363    0.666608   -0.610739
      4          1           0        0.719347   -0.766168    0.452541
      5          1           0       -0.530146   -0.608505   -0.811066
 ---------------------------------------------------------------------
                    Distance matrix (angstroms):
                    1          2          3          4          5
     1  C    0.000000
     2  Cl   1.781791   0.000000
     3  H    1.089412   2.371714   0.000000
     4  H    1.089426   2.371711   1.784302   0.000000
     5  H    1.089321   2.371822   1.784001   1.784038   0.000000
 Stoichiometry    CH3Cl
 Framework group  C1[X(CH3Cl)]
 Deg. of freedom     9
 Full point group                 C1      NOp   1
 Largest Abelian subgroup         C1      NOp   1
 Largest concise Abelian subgroup C1      NOp   1
                         Standard orientation:                         
 ---------------------------------------------------------------------
 Center     Atomic      Atomic             Coordinates (Angstroms)
 Number     Number       Type             X           Y           Z
 ---------------------------------------------------------------------
      1          6           0        1.124102   -0.000002    0.000009
      2         17           0       -0.657689    0.000001   -0.000007
      3          1           0        1.478637    0.861355    0.564977
      4          1           0        1.478623   -0.920050    0.463339
      5          1           0        1.478850    0.058692   -1.028256
 ---------------------------------------------------------------------
 Rotational constants (GHZ):    157.5386119     13.3008287     13.3005894
 Standard basis: 6-31+G(d) (6D, 7F)
 There are    48 symmetry adapted cartesian basis functions of A   symmetry.
 There are    48 symmetry adapted basis functions of A   symmetry.
    48 basis functions,   100 primitive gaussians,    48 cartesian basis functions
    13 alpha electrons       13 beta electrons
       nuclear repulsion energy        51.3055592563 Hartrees.
 NAtoms=    5 NActive=    5 NUniq=    5 SFac= 1.00D+00 NAtFMM=   60 NAOKFM=F Big=F
 Integral buffers will be    131072 words long.
 Raffenetti 2 integral format.
 Two-electron integral symmetry is turned on.
 One-electron integrals computed using PRISM.
 NBasis=    48 RedAO= T EigKep=  1.35D-03  NBF=    48
 NBsUse=    48 1.00D-06 EigRej= -1.00D+00 NBFU=    48
 Initial guess from the checkpoint file:  "/srv/scratch/z5358697/gauss/Gau-1575760.chk"
 B after Tr=     0.000000    0.000000    0.000000
         Rot=    0.910656   -0.413166    0.000005   -0.000014 Ang= -48.81 deg.
 Keep R1 ints in memory in canonical form, NReq=1587829.
 Requested convergence on RMS density matrix=1.00D-08 within 128 cycles.
 Requested convergence on MAX density matrix=1.00D-06.
 Requested convergence on             energy=1.00D-06.
 No special actions if energy rises.
 SCF Done:  E(RM062X) =  -500.047248626     A.U. after    8 cycles
            NFock=  8  Conv=0.96D-08     -V/T= 2.0031
 Calling FoFJK, ICntrl=      2127 FMM=F ISym2X=0 I1Cent= 0 IOpClX= 0 NMat=1 NMatS=1 NMatT=0.
 ***** Axes restored to original set *****
 -------------------------------------------------------------------
 Center     Atomic                   Forces (Hartrees/Bohr)
 Number     Number              X              Y              Z
 -------------------------------------------------------------------
      1        6           0.002104868   -0.001575947   -0.002200708
      2       17          -0.000737252    0.000552380    0.000738465
      3        1          -0.000401740    0.000512694    0.000501954
      4        1          -0.000396181    0.000228931    0.000579335
      5        1          -0.000569695    0.000281943    0.000380955
 -------------------------------------------------------------------
 Cartesian Forces:  Max     0.002200708 RMS     0.000997382

 GradGradGradGradGradGradGradGradGradGradGradGradGradGradGradGradGradGrad
 Berny optimization.
 Using GEDIIS/GDIIS optimizer.
 FormGI is forming the generalized inverse of G from B-inverse, IUseBI=4.
 Internal  Forces:  Max     0.001179860 RMS     0.000455579
 Search for a local minimum.
 Step number   2 out of a maximum of   24
 All quantities printed in internal units (Hartrees-Bohrs-Radians)
 Mixed Optimization -- En-DIIS/RFO-DIIS
 Update second derivatives using D2CorX and points    1    2
 DE= -1.31D-04 DEPred=-1.27D-04 R= 1.03D+00
 TightC=F SS=  1.41D+00  RLast= 2.97D-02 DXNew= 5.0454D-01 8.9216D-02
 Trust test= 1.03D+00 RLast= 2.97D-02 DXMaxT set to 3.00D-01
 The second derivative matrix:
                          R1        R2        R3        R4        A1
           R1           0.25505
           R2           0.00302   0.34608
           R3           0.00189   0.00071   0.34662
           R4           0.00117   0.00094   0.00122   0.34712
           A1           0.01233  -0.00286  -0.00286  -0.00300   0.15983
           A2           0.01113  -0.00259  -0.00260  -0.00273  -0.00011
           A3           0.01953  -0.00466  -0.00470  -0.00495   0.00007
           A4          -0.00889   0.00202   0.00201   0.00210   0.00022
           A5          -0.01702   0.00406   0.00410   0.00432  -0.00007
           A6          -0.01633   0.00385   0.00387   0.00407   0.00005
           D1          -0.00760   0.00186   0.00189   0.00200  -0.00014
           D2           0.00649  -0.00159  -0.00161  -0.00170   0.00012
           D3          -0.00866   0.00212   0.00215   0.00227  -0.00016
           D4          -0.01514   0.00371   0.00376   0.00397  -0.00028
                          A2        A3        A4        A5        A6
           A2           0.15994
           A3           0.00013   0.16068
           A4           0.00017   0.00012   0.15977
           A5          -0.00013  -0.00061  -0.00010   0.16054
           A6          -0.00001  -0.00038  -0.00018   0.00034   0.16016
           D1          -0.00016  -0.00045   0.00003   0.00040   0.00030
           D2           0.00013   0.00038  -0.00003  -0.00034  -0.00026
           D3          -0.00018  -0.00052   0.00004   0.00046   0.00035
           D4          -0.00031  -0.00091   0.00007   0.00080   0.00060
                          D1        D2        D3        D4
           D1           0.00255
           D2          -0.00021   0.00248
           D3           0.00029  -0.00025   0.00263
           D4           0.00051  -0.00043   0.00058   0.00331
 ITU=  1  0
 Use linear search instead of GDIIS.
     Eigenvalues ---    0.04812   0.05502   0.08724   0.15696   0.16001
     Eigenvalues ---    0.26436   0.34558   0.34564   0.34972
 RFO step:  Lambda=-5.80818148D-05 EMin= 4.81211378D-02
 Quartic linear search produced a step of  0.42220.
 Iteration  1 RMS(Cart)=  0.00438079 RMS(Int)=  0.00007024
 Iteration  2 RMS(Cart)=  0.00004086 RMS(Int)=  0.00005614
 Iteration  3 RMS(Cart)=  0.00000000 RMS(Int)=  0.00005614
 Variable       Old X    -DE/DX   Delta X   Delta X   Delta X     New X
                                 (Linear)    (Quad)   (Total)
    R1        3.36710   0.00118   0.01171   0.00400   0.01571   3.38280
    R2        2.05869  -0.00012  -0.00220   0.00000  -0.00220   2.05650
    R3        2.05872  -0.00009  -0.00218   0.00014  -0.00204   2.05668
    R4        2.05852  -0.00007  -0.00228   0.00025  -0.00203   2.05649
    A1        1.90227  -0.00019  -0.00067  -0.00867  -0.00929   1.89298
    A2        1.90226  -0.00023  -0.00053  -0.00722  -0.00773   1.89453
    A3        1.90250  -0.00053  -0.00050  -0.00771  -0.00822   1.89427
    A4        1.91907   0.00008   0.00065   0.00834   0.00886   1.92793
    A5        1.91872   0.00044   0.00042   0.00761   0.00795   1.92667
    A6        1.91876   0.00041   0.00061   0.00723   0.00775   1.92652
    D1       -2.08416   0.00033   0.00075   0.00999   0.01079  -2.07337
    D2        2.08410  -0.00030  -0.00087  -0.01073  -0.01163   2.07247
    D3       -2.08410   0.00035   0.00060   0.00919   0.00983  -2.07427
    D4        2.11498   0.00065   0.00146   0.01992   0.02146   2.13644
         Item               Value     Threshold  Converged?
 Maximum Force            0.001180     0.000450     NO 
 RMS     Force            0.000456     0.000300     NO 
 Maximum Displacement     0.008343     0.001800     NO 
 RMS     Displacement     0.004371     0.001200     NO 
 Predicted change in Energy=-1.135171D-05
 GradGradGradGradGradGradGradGradGradGradGradGradGradGradGradGradGradGrad

                          Input orientation:                          
 ---------------------------------------------------------------------
 Center     Atomic      Atomic             Coordinates (Angstroms)
 Number     Number       Type             X           Y           Z
 ---------------------------------------------------------------------
      1          6           0        0.089871   -0.071510   -0.097556
      2         17           0       -0.976759    0.777087    1.062897
      3          1           0        0.700447    0.669514   -0.609776
      4          1           0        0.719035   -0.766700    0.455040
      5          1           0       -0.532595   -0.608390   -0.810705
 ---------------------------------------------------------------------
                    Distance matrix (angstroms):
                    1          2          3          4          5
     1  C    0.000000
     2  Cl   1.790103   0.000000
     3  H    1.088250   2.371166   0.000000
     4  H    1.088347   2.372443   1.787985   0.000000
     5  H    1.088249   2.372174   1.787122   1.787107   0.000000
 Stoichiometry    CH3Cl
 Framework group  C1[X(CH3Cl)]
 Deg. of freedom     9
 Full point group                 C1      NOp   1
 Largest Abelian subgroup         C1      NOp   1
 Largest concise Abelian subgroup C1      NOp   1
                         Standard orientation:                         
 ---------------------------------------------------------------------
 Center     Atomic      Atomic             Coordinates (Angstroms)
 Number     Number       Type             X           Y           Z
 ---------------------------------------------------------------------
      1          6           0        1.130578   -0.000009    0.000098
      2         17           0       -0.659524   -0.000041   -0.000023
      3          1           0        1.475109    0.897864    0.509423
      4          1           0        1.476773   -0.890076    0.522045
      5          1           0        1.476565   -0.007044   -1.031662
 ---------------------------------------------------------------------
 Rotational constants (GHZ):    156.9591358     13.2161917     13.2154695
 Standard basis: 6-31+G(d) (6D, 7F)
 There are    48 symmetry adapted cartesian basis functions of A   symmetry.
 There are    48 symmetry adapted basis functions of A   symmetry.
    48 basis functions,   100 primitive gaussians,    48 cartesian basis functions
    13 alpha electrons       13 beta electrons
       nuclear repulsion energy        51.1712885382 Hartrees.
 NAtoms=    5 NActive=    5 NUniq=    5 SFac= 1.00D+00 NAtFMM=   60 NAOKFM=F Big=F
 Integral buffers will be    131072 words long.
 Raffenetti 2 integral format.
 Two-electron integral symmetry is turned on.
 One-electron integrals computed using PRISM.
 NBasis=    48 RedAO= T EigKep=  1.38D-03  NBF=    48
 NBsUse=    48 1.00D-06 EigRej= -1.00D+00 NBFU=    48
 Initial guess from the checkpoint file:  "/srv/scratch/z5358697/gauss/Gau-1575760.chk"
 B after Tr=     0.000000    0.000000    0.000000
         Rot=    0.999487    0.032029    0.000019   -0.000064 Ang=   3.67 deg.
 Keep R1 ints in memory in canonical form, NReq=1587829.
 Requested convergence on RMS density matrix=1.00D-08 within 128 cycles.
 Requested convergence on MAX density matrix=1.00D-06.
 Requested convergence on             energy=1.00D-06.
 No special actions if energy rises.
 SCF Done:  E(RM062X) =  -500.047259808     A.U. after    9 cycles
            NFock=  9  Conv=0.27D-08     -V/T= 2.0032
 Calling FoFJK, ICntrl=      2127 FMM=F ISym2X=0 I1Cent= 0 IOpClX= 0 NMat=1 NMatS=1 NMatT=0.
 ***** Axes restored to original set *****
 -------------------------------------------------------------------
 Center     Atomic                   Forces (Hartrees/Bohr)
 Number     Number              X              Y              Z
 -------------------------------------------------------------------
      1        6          -0.001133511    0.000841087    0.001092967
      2       17           0.000744813   -0.000705736   -0.000846451
      3        1           0.000348019    0.000221395   -0.000207520
      4        1           0.000261292   -0.000156664    0.000232468
      5        1          -0.000220613   -0.000200082   -0.000271464
 -------------------------------------------------------------------
 Cartesian Forces:  Max     0.001133511 RMS     0.000604351

 GradGradGradGradGradGradGradGradGradGradGradGradGradGradGradGradGradGrad
 Berny optimization.
 Using GEDIIS/GDIIS optimizer.
 FormGI is forming the generalized inverse of G from B-inverse, IUseBI=4.
 Internal  Forces:  Max     0.001327073 RMS     0.000404722
 Search for a local minimum.
 Step number   3 out of a maximum of   24
 All quantities printed in internal units (Hartrees-Bohrs-Radians)
 Mixed Optimization -- En-DIIS/RFO-DIIS
 Swapping is turned off.
 Update second derivatives using D2CorX and points    1    2    3
 DE= -1.12D-05 DEPred=-1.14D-05 R= 9.85D-01
 TightC=F SS=  1.41D+00  RLast= 3.85D-02 DXNew= 5.0454D-01 1.1557D-01
 Trust test= 9.85D-01 RLast= 3.85D-02 DXMaxT set to 3.00D-01
 The second derivative matrix:
                          R1        R2        R3        R4        A1
           R1           0.25516
           R2          -0.00461   0.34936
           R3          -0.00281   0.00322   0.34847
           R4          -0.00464   0.00374   0.00332   0.34948
           A1           0.04972  -0.00981  -0.00952  -0.00978   0.14899
           A2           0.04412  -0.00887  -0.00857  -0.00882  -0.00895
           A3           0.03852  -0.00766  -0.00776  -0.00800  -0.00805
           A4          -0.04938   0.00973   0.00933   0.00958   0.01104
           A5          -0.03837   0.00763   0.00766   0.00789   0.00808
           A6          -0.04086   0.00823   0.00813   0.00838   0.00807
           D1           0.00816  -0.00179  -0.00136  -0.00140  -0.00118
           D2          -0.01038   0.00238   0.00190   0.00198   0.00094
           D3           0.00708  -0.00148  -0.00106  -0.00108  -0.00141
           D4           0.01746  -0.00386  -0.00296  -0.00306  -0.00235
                          A2        A3        A4        A5        A6
           A2           0.15278
           A3          -0.00667   0.15525
           A4           0.00893   0.00846   0.14905
           A5           0.00666   0.00501  -0.00841   0.15478
           A6           0.00659   0.00540  -0.00826  -0.00551   0.15431
           D1          -0.00077  -0.00212   0.00076   0.00185   0.00138
           D2           0.00053   0.00202  -0.00049  -0.00172  -0.00122
           D3          -0.00097  -0.00229   0.00099   0.00202   0.00156
           D4          -0.00150  -0.00430   0.00149   0.00374   0.00278
                          D1        D2        D3        D4
           D1           0.00363
           D2          -0.00149   0.00398
           D3           0.00128  -0.00143   0.00353
           D4           0.00278  -0.00311   0.00266   0.00808
 ITU=  1  1  0
     Eigenvalues ---    0.04312   0.05419   0.08801   0.15491   0.16036
     Eigenvalues ---    0.26662   0.34562   0.34570   0.35808
 En-DIIS/RFO-DIIS IScMMF=        0 using points:     3    2
 RFO step:  Lambda=-4.60288122D-06.
 DidBck=T Rises=F RFO-DIIS coefs:    0.70272    0.29728
 Iteration  1 RMS(Cart)=  0.00127203 RMS(Int)=  0.00001511
 Iteration  2 RMS(Cart)=  0.00000179 RMS(Int)=  0.00001495
 Iteration  3 RMS(Cart)=  0.00000000 RMS(Int)=  0.00001495
 Variable       Old X    -DE/DX   Delta X   Delta X   Delta X     New X
                                 (Linear)    (Quad)   (Total)
    R1        3.38280  -0.00133  -0.00467  -0.00152  -0.00619   3.37661
    R2        2.05650   0.00044   0.00065   0.00065   0.00130   2.05780
    R3        2.05668   0.00037   0.00061   0.00053   0.00114   2.05781
    R4        2.05649   0.00041   0.00060   0.00062   0.00122   2.05771
    A1        1.89298   0.00008   0.00276  -0.00044   0.00232   1.89530
    A2        1.89453  -0.00006   0.00230  -0.00145   0.00084   1.89538
    A3        1.89427  -0.00003   0.00244  -0.00120   0.00125   1.89552
    A4        1.92793  -0.00009  -0.00263   0.00051  -0.00209   1.92584
    A5        1.92667   0.00001  -0.00236   0.00122  -0.00112   1.92555
    A6        1.92652   0.00009  -0.00231   0.00123  -0.00105   1.92547
    D1       -2.07337  -0.00001  -0.00321   0.00111  -0.00211  -2.07548
    D2        2.07247   0.00008   0.00346  -0.00054   0.00292   2.07539
    D3       -2.07427   0.00003  -0.00292   0.00177  -0.00117  -2.07544
    D4        2.13644  -0.00004  -0.00638   0.00231  -0.00409   2.13235
         Item               Value     Threshold  Converged?
 Maximum Force            0.001327     0.000450     NO 
 RMS     Force            0.000405     0.000300     NO 
 Maximum Displacement     0.002150     0.001800     NO 
 RMS     Displacement     0.001272     0.001200     NO 
 Predicted change in Energy=-5.119779D-06
 GradGradGradGradGradGradGradGradGradGradGradGradGradGradGradGradGradGrad

                          Input orientation:                          
 ---------------------------------------------------------------------
 Center     Atomic      Atomic             Coordinates (Angstroms)
 Number     Number       Type             X           Y           Z
 ---------------------------------------------------------------------
      1          6           0        0.088787   -0.070579   -0.096629
      2         17           0       -0.975917    0.775949    1.062054
      3          1           0        0.701010    0.669289   -0.610018
      4          1           0        0.719032   -0.766304    0.455247
      5          1           0       -0.532912   -0.608355   -0.810755
 ---------------------------------------------------------------------
                    Distance matrix (angstroms):
                    1          2          3          4          5
     1  C    0.000000
     2  Cl   1.786828   0.000000
     3  H    1.088940   2.370503   0.000000
     4  H    1.088948   2.370571   1.787748   0.000000
     5  H    1.088893   2.370646   1.787522   1.787477   0.000000
 Stoichiometry    CH3Cl
 Framework group  C1[X(CH3Cl)]
 Deg. of freedom     9
 Full point group                 C1      NOp   1
 Largest Abelian subgroup         C1      NOp   1
 Largest concise Abelian subgroup C1      NOp   1
                         Standard orientation:                         
 ---------------------------------------------------------------------
 Center     Atomic      Atomic             Coordinates (Angstroms)
 Number     Number       Type             X           Y           Z
 ---------------------------------------------------------------------
      1          6           0        1.128238    0.000007    0.000017
      2         17           0       -0.658589   -0.000003   -0.000006
      3          1           0        1.475418    0.931604    0.444294
      4          1           0        1.475512   -0.850637    0.584494
      5          1           0        1.475662   -0.080956   -1.028783
 ---------------------------------------------------------------------
 Rotational constants (GHZ):    156.9278592     13.2544688     13.2542588
 Standard basis: 6-31+G(d) (6D, 7F)
 There are    48 symmetry adapted cartesian basis functions of A   symmetry.
 There are    48 symmetry adapted basis functions of A   symmetry.
    48 basis functions,   100 primitive gaussians,    48 cartesian basis functions
    13 alpha electrons       13 beta electrons
       nuclear repulsion energy        51.2277785713 Hartrees.
 NAtoms=    5 NActive=    5 NUniq=    5 SFac= 1.00D+00 NAtFMM=   60 NAOKFM=F Big=F
 Integral buffers will be    131072 words long.
 Raffenetti 2 integral format.
 Two-electron integral symmetry is turned on.
 One-electron integrals computed using PRISM.
 NBasis=    48 RedAO= T EigKep=  1.37D-03  NBF=    48
 NBsUse=    48 1.00D-06 EigRej= -1.00D+00 NBFU=    48
 Initial guess from the checkpoint file:  "/srv/scratch/z5358697/gauss/Gau-1575760.chk"
 B after Tr=     0.000000    0.000000    0.000000
         Rot=    0.999362    0.035719   -0.000016    0.000061 Ang=   4.09 deg.
 Keep R1 ints in memory in canonical form, NReq=1587829.
 Requested convergence on RMS density matrix=1.00D-08 within 128 cycles.
 Requested convergence on MAX density matrix=1.00D-06.
 Requested convergence on             energy=1.00D-06.
 No special actions if energy rises.
 SCF Done:  E(RM062X) =  -500.047273265     A.U. after    8 cycles
            NFock=  8  Conv=0.61D-08     -V/T= 2.0031
 Calling FoFJK, ICntrl=      2127 FMM=F ISym2X=0 I1Cent= 0 IOpClX= 0 NMat=1 NMatS=1 NMatT=0.
 ***** Axes restored to original set *****
 -------------------------------------------------------------------
 Center     Atomic                   Forces (Hartrees/Bohr)
 Number     Number              X              Y              Z
 -------------------------------------------------------------------
      1        6           0.000004671    0.000039293    0.000108192
      2       17           0.000021748   -0.000065045   -0.000058808
      3        1           0.000010347    0.000005517   -0.000073230
      4        1          -0.000032426    0.000042653    0.000052456
      5        1          -0.000004341   -0.000022418   -0.000028610
 -------------------------------------------------------------------
 Cartesian Forces:  Max     0.000108192 RMS     0.000047537

 GradGradGradGradGradGradGradGradGradGradGradGradGradGradGradGradGradGrad
 Berny optimization.
 Using GEDIIS/GDIIS optimizer.
 FormGI is forming the generalized inverse of G from B-inverse, IUseBI=4.
 Internal  Forces:  Max     0.000081909 RMS     0.000037311
 Search for a local minimum.
 Step number   4 out of a maximum of   24
 All quantities printed in internal units (Hartrees-Bohrs-Radians)
 Mixed Optimization -- En-DIIS/RFO-DIIS
 Swapping is turned off.
 Update second derivatives using D2CorX and points    1    2    3    4
 DE= -1.35D-05 DEPred=-5.12D-06 R= 2.63D+00
 TightC=F SS=  1.41D+00  RLast= 9.39D-03 DXNew= 5.0454D-01 2.8179D-02
 Trust test= 2.63D+00 RLast= 9.39D-03 DXMaxT set to 3.00D-01
 The second derivative matrix:
                          R1        R2        R3        R4        A1
           R1           0.24327
           R2           0.00285   0.34568
           R3          -0.00513   0.00306   0.35116
           R4           0.00114   0.00056   0.00347   0.34682
           A1           0.03182  -0.00307  -0.00301  -0.00280   0.13973
           A2           0.00901   0.00429   0.00228   0.00394  -0.01745
           A3           0.02701  -0.00269  -0.00427  -0.00324  -0.01576
           A4          -0.01610  -0.00245  -0.00219  -0.00259   0.02003
           A5          -0.02613   0.00247   0.00406   0.00290   0.01597
           A6          -0.02326   0.00124   0.00290   0.00160   0.01592
           D1          -0.01045   0.00456   0.00467   0.00495  -0.00240
           D2          -0.00086  -0.00069  -0.00091  -0.00130   0.00266
           D3          -0.00816   0.00364   0.00385   0.00411  -0.00262
           D4          -0.00729   0.00433   0.00476   0.00541  -0.00528
                          A2        A3        A4        A5        A6
           A2           0.13901
           A3          -0.01629   0.14942
           A4           0.01923   0.01800   0.14073
           A5           0.01669   0.01112  -0.01829   0.14841
           A6           0.01740   0.01228  -0.01810  -0.01266   0.14640
           D1          -0.00373  -0.00549   0.00151   0.00527   0.00463
           D2           0.00314   0.00463  -0.00239  -0.00423  -0.00362
           D3          -0.00344  -0.00525   0.00179   0.00498   0.00432
           D4          -0.00659  -0.00987   0.00418   0.00921   0.00793
                          D1        D2        D3        D4
           D1           0.00438
           D2          -0.00170   0.00440
           D3           0.00201  -0.00177   0.00426
           D4           0.00371  -0.00387   0.00373   0.00989
 ITU=  1  1  1  0
     Eigenvalues ---    0.04189   0.05355   0.08825   0.15444   0.15825
     Eigenvalues ---    0.25697   0.34414   0.34571   0.35538
 En-DIIS/RFO-DIIS IScMMF=        0 using points:     4    3    2
 RFO step:  Lambda=-4.99613851D-08.
 DidBck=F Rises=F RFO-DIIS coefs:    1.07269   -0.06927   -0.00343
 Iteration  1 RMS(Cart)=  0.00031760 RMS(Int)=  0.00000025
 Iteration  2 RMS(Cart)=  0.00000005 RMS(Int)=  0.00000024
 Variable       Old X    -DE/DX   Delta X   Delta X   Delta X     New X
                                 (Linear)    (Quad)   (Total)
    R1        3.37661  -0.00008  -0.00040  -0.00003  -0.00042   3.37619
    R2        2.05780   0.00004   0.00009   0.00006   0.00015   2.05795
    R3        2.05781  -0.00002   0.00008  -0.00013  -0.00006   2.05776
    R4        2.05771   0.00003   0.00008   0.00004   0.00012   2.05783
    A1        1.89530   0.00003   0.00014   0.00043   0.00057   1.89587
    A2        1.89538  -0.00004   0.00003  -0.00044  -0.00041   1.89497
    A3        1.89552   0.00000   0.00006  -0.00011  -0.00004   1.89548
    A4        1.92584   0.00002  -0.00012   0.00032   0.00019   1.92603
    A5        1.92555  -0.00005  -0.00005  -0.00030  -0.00036   1.92519
    A6        1.92547   0.00004  -0.00005   0.00010   0.00005   1.92551
    D1       -2.07548  -0.00003  -0.00012  -0.00045  -0.00056  -2.07604
    D2        2.07539   0.00001   0.00017   0.00029   0.00046   2.07585
    D3       -2.07544   0.00003  -0.00005   0.00054   0.00049  -2.07495
    D4        2.13235   0.00001  -0.00022   0.00026   0.00004   2.13238
         Item               Value     Threshold  Converged?
 Maximum Force            0.000082     0.000450     YES
 RMS     Force            0.000037     0.000300     YES
 Maximum Displacement     0.000613     0.001800     YES
 RMS     Displacement     0.000318     0.001200     YES
 Predicted change in Energy=-7.133778D-08
 Optimization completed.
    -- Stationary point found.
                           ----------------------------
                           !   Optimized Parameters   !
                           ! (Angstroms and Degrees)  !
 --------------------------                            --------------------------
 ! Name  Definition              Value          Derivative Info.                !
 --------------------------------------------------------------------------------
 ! R1    R(1,2)                  1.7868         -DE/DX =   -0.0001              !
 ! R2    R(1,3)                  1.0889         -DE/DX =    0.0                 !
 ! R3    R(1,4)                  1.0889         -DE/DX =    0.0                 !
 ! R4    R(1,5)                  1.0889         -DE/DX =    0.0                 !
 ! A1    A(2,1,3)              108.5924         -DE/DX =    0.0                 !
 ! A2    A(2,1,4)              108.597          -DE/DX =    0.0                 !
 ! A3    A(2,1,5)              108.6054         -DE/DX =    0.0                 !
 ! A4    A(3,1,4)              110.3425         -DE/DX =    0.0                 !
 ! A5    A(3,1,5)              110.3259         -DE/DX =    0.0                 !
 ! A6    A(4,1,5)              110.3211         -DE/DX =    0.0                 !
 ! D1    D(2,1,4,3)           -118.916          -DE/DX =    0.0                 !
 ! D2    D(2,1,5,3)            118.9114         -DE/DX =    0.0                 !
 ! D3    D(2,1,5,4)           -118.9141         -DE/DX =    0.0                 !
 ! D4    D(3,1,5,4)            122.1745         -DE/DX =    0.0                 !
 --------------------------------------------------------------------------------
 GradGradGradGradGradGradGradGradGradGradGradGradGradGradGradGradGradGrad

                          Input orientation:                          
 ---------------------------------------------------------------------
 Center     Atomic      Atomic             Coordinates (Angstroms)
 Number     Number       Type             X           Y           Z
 ---------------------------------------------------------------------
      1          6           0        0.088787   -0.070579   -0.096629
      2         17           0       -0.975917    0.775949    1.062054
      3          1           0        0.701010    0.669289   -0.610018
      4          1           0        0.719032   -0.766304    0.455247
      5          1           0       -0.532912   -0.608355   -0.810755
 ---------------------------------------------------------------------
                    Distance matrix (angstroms):
                    1          2          3          4          5
     1  C    0.000000
     2  Cl   1.786828   0.000000
     3  H    1.088940   2.370503   0.000000
     4  H    1.088948   2.370571   1.787748   0.000000
     5  H    1.088893   2.370646   1.787522   1.787477   0.000000
 Stoichiometry    CH3Cl
 Framework group  C1[X(CH3Cl)]
 Deg. of freedom     9
 Full point group                 C1      NOp   1
 Largest Abelian subgroup         C1      NOp   1
 Largest concise Abelian subgroup C1      NOp   1
                         Standard orientation:                         
 ---------------------------------------------------------------------
 Center     Atomic      Atomic             Coordinates (Angstroms)
 Number     Number       Type             X           Y           Z
 ---------------------------------------------------------------------
      1          6           0        1.128238    0.000007    0.000017
      2         17           0       -0.658589   -0.000003   -0.000006
      3          1           0        1.475418    0.931604    0.444294
      4          1           0        1.475512   -0.850637    0.584494
      5          1           0        1.475662   -0.080956   -1.028783
 ---------------------------------------------------------------------
 Rotational constants (GHZ):    156.9278592     13.2544688     13.2542588

 **********************************************************************

            Population analysis using the SCF density.

 **********************************************************************

 Orbital symmetries:
       Occupied  (A) (A) (A) (A) (A) (A) (A) (A) (A) (A) (A) (A)
                 (A)
       Virtual   (A) (A) (A) (A) (A) (A) (A) (A) (A) (A) (A) (A)
                 (A) (A) (A) (A) (A) (A) (A) (A) (A) (A) (A) (A)
                 (A) (A) (A) (A) (A) (A) (A) (A) (A) (A) (A)
 The electronic state is 1-A.
 Alpha  occ. eigenvalues -- -102.65761 -10.60678  -9.80482  -7.52902  -7.52205
 Alpha  occ. eigenvalues --   -7.52204  -0.95344  -0.77043  -0.52386  -0.52382
 Alpha  occ. eigenvalues --   -0.47512  -0.36202  -0.36201
 Alpha virt. eigenvalues --    0.02065   0.03582   0.06256   0.06262   0.08919
 Alpha virt. eigenvalues --    0.11652   0.11656   0.12547   0.18184   0.20810
 Alpha virt. eigenvalues --    0.20812   0.28776   0.61252   0.63640   0.63642
 Alpha virt. eigenvalues --    0.67284   0.67300   0.67303   0.72924   0.91187
 Alpha virt. eigenvalues --    0.91190   0.96806   0.96808   1.02771   1.03555
 Alpha virt. eigenvalues --    1.03561   1.15869   1.32478   1.74017   1.74025
 Alpha virt. eigenvalues --    2.20228   2.28692   2.28701   4.17270   4.43827
          Condensed to atoms (all electrons):
               1          2          3          4          5
     1  C    5.442243   0.139655   0.376397   0.376450   0.376379
     2  Cl   0.139655  17.033246  -0.048222  -0.048291  -0.048196
     3  H    0.376397  -0.048222   0.478786  -0.026689  -0.026713
     4  H    0.376450  -0.048291  -0.026689   0.478812  -0.026708
     5  H    0.376379  -0.048196  -0.026713  -0.026708   0.478792
 Mulliken charges:
               1
     1  C   -0.711123
     2  Cl  -0.028192
     3  H    0.246442
     4  H    0.246427
     5  H    0.246446
 Sum of Mulliken charges =   0.00000
 Mulliken charges with hydrogens summed into heavy atoms:
               1
     1  C    0.028192
     2  Cl  -0.028192
 Electronic spatial extent (au):  <R**2>=            131.8269
 Charge=              0.0000 electrons
 Dipole moment (field-independent basis, Debye):
    X=              2.1426    Y=              0.0004    Z=              0.0001  Tot=              2.1426
 Quadrupole moment (field-independent basis, Debye-Ang):
   XX=            -18.3411   YY=            -20.0736   ZZ=            -20.0746
   XY=             -0.0003   XZ=             -0.0003   YZ=             -0.0001
 Traceless Quadrupole moment (field-independent basis, Debye-Ang):
   XX=              1.1553   YY=             -0.5772   ZZ=             -0.5782
   XY=             -0.0003   XZ=             -0.0003   YZ=             -0.0001
 Octapole moment (field-independent basis, Debye-Ang**2):
  XXX=             -1.7251  YYY=              0.1997  ZZZ=             -0.8261  XYY=              1.1025
  XXY=             -0.0002  XXZ=             -0.0010  XZZ=              1.1013  YZZ=             -0.1979
  YYZ=              0.8265  XYZ=              0.0001
 Hexadecapole moment (field-independent basis, Debye-Ang**3):
 XXXX=           -118.0105 YYYY=            -29.2496 ZZZZ=            -29.2482 XXXY=             -0.0014
 XXXZ=             -0.0020 YYYX=              0.2842 YYYZ=             -0.0003 ZZZX=             -1.1880
 ZZZY=             -0.0003 XXYY=            -24.5883 XXZZ=            -24.5893 YYZZ=             -9.7497
 XXYZ=             -0.0003 YYXZ=              1.1877 ZZXY=             -0.2853
 N-N= 5.122777857126D+01 E-N=-1.288448569941D+03  KE= 4.984787932051D+02
 1\1\GINC-KATANA2\FOpt\RM062X\6-31+G(d)\C1H3Cl1\Z5358697\20-Mar-2025\0\
 \#m062X/6-31+G(d) OPT Freq=noraman\\chloromethane\\0,1\C,0.0887873062,
 -0.0705794074,-0.0966294087\Cl,-0.9759166658,0.7759488056,1.0620543783
 \H,0.7010102955,0.6692892699,-0.6100176285\H,0.719031533,-0.7663038945
 ,0.4552473029\H,-0.5329124689,-0.6083547737,-0.810754644\\Version=ES64
 L-G09RevD.01\State=1-A\HF=-500.0472733\RMSD=6.051e-09\RMSF=4.754e-05\D
 ipole=0.5023145,-0.3992454,-0.5467117\Quadrupole=0.0274769,-0.1398356,
 0.1123587,-0.3638989,-0.4978582,0.3957573\PG=C01 [X(C1H3Cl1)]\\@


 There was a great rattling of the words for the fewness of ideas.
                   -- Charles Baxter in Gryphon
 Job cpu time:       0 days  0 hours  0 minutes 12.9 seconds.
 File lengths (MBytes):  RWF=    132 Int=      0 D2E=      0 Chk=      2 Scr=      2
 Normal termination of Gaussian 09 at Thu Mar 20 14:17:38 2025.
 Link1:  Proceeding to internal job step number  2.
 ---------------------------------------------------------------------
 #N Geom=AllCheck Guess=TCheck SCRF=Check GenChk RM062X/6-31+G(d) Freq
 ---------------------------------------------------------------------
 1/10=4,29=7,30=1,38=1,40=1/1,3;
 2/12=2,40=1/2;
 3/5=1,6=6,7=11,11=2,14=-4,16=1,25=1,30=1,70=2,71=2,74=-55,116=1,140=1/1,2,3;
 4/5=101/1;
 5/5=2,98=1/2;
 8/6=4,10=90,11=11/1;
 11/6=1,8=1,9=11,15=111,16=1/1,2,10;
 10/6=1/2;
 6/7=2,8=2,9=2,10=2,18=1,28=1/1;
 7/8=1,10=1,25=1/1,2,3,16;
 1/10=4,30=1/3;
 99//99;
 Structure from the checkpoint file:  "/srv/scratch/z5358697/gauss/Gau-1575760.chk"
 -------------
 chloromethane
 -------------
 Charge =  0 Multiplicity = 1
 Redundant internal coordinates found in file.
 C,0,0.0887873062,-0.0705794074,-0.0966294087
 Cl,0,-0.9759166658,0.7759488056,1.0620543783
 H,0,0.7010102955,0.6692892699,-0.6100176285
 H,0,0.719031533,-0.7663038945,0.4552473029
 H,0,-0.5329124689,-0.6083547737,-0.810754644
 Recover connectivity data from disk.

 GradGradGradGradGradGradGradGradGradGradGradGradGradGradGradGradGradGrad
 Berny optimization.
 Initialization pass.
                           ----------------------------
                           !    Initial Parameters    !
                           ! (Angstroms and Degrees)  !
 --------------------------                            --------------------------
 ! Name  Definition              Value          Derivative Info.                !
 --------------------------------------------------------------------------------
 ! R1    R(1,2)                  1.7868         calculate D2E/DX2 analytically  !
 ! R2    R(1,3)                  1.0889         calculate D2E/DX2 analytically  !
 ! R3    R(1,4)                  1.0889         calculate D2E/DX2 analytically  !
 ! R4    R(1,5)                  1.0889         calculate D2E/DX2 analytically  !
 ! A1    A(2,1,3)              108.5924         calculate D2E/DX2 analytically  !
 ! A2    A(2,1,4)              108.597          calculate D2E/DX2 analytically  !
 ! A3    A(2,1,5)              108.6054         calculate D2E/DX2 analytically  !
 ! A4    A(3,1,4)              110.3425         calculate D2E/DX2 analytically  !
 ! A5    A(3,1,5)              110.3259         calculate D2E/DX2 analytically  !
 ! A6    A(4,1,5)              110.3211         calculate D2E/DX2 analytically  !
 ! D1    D(2,1,4,3)           -118.916          calculate D2E/DX2 analytically  !
 ! D2    D(2,1,5,3)            118.9114         calculate D2E/DX2 analytically  !
 ! D3    D(2,1,5,4)           -118.9141         calculate D2E/DX2 analytically  !
 ! D4    D(3,1,5,4)            122.1745         calculate D2E/DX2 analytically  !
 --------------------------------------------------------------------------------
 Trust Radius=3.00D-01 FncErr=1.00D-07 GrdErr=1.00D-07
 Number of steps in this run=      2 maximum allowed number of steps=      2.
 GradGradGradGradGradGradGradGradGradGradGradGradGradGradGradGradGradGrad

                          Input orientation:                          
 ---------------------------------------------------------------------
 Center     Atomic      Atomic             Coordinates (Angstroms)
 Number     Number       Type             X           Y           Z
 ---------------------------------------------------------------------
      1          6           0        0.088787   -0.070579   -0.096629
      2         17           0       -0.975917    0.775949    1.062054
      3          1           0        0.701010    0.669289   -0.610018
      4          1           0        0.719032   -0.766304    0.455247
      5          1           0       -0.532912   -0.608355   -0.810755
 ---------------------------------------------------------------------
                    Distance matrix (angstroms):
                    1          2          3          4          5
     1  C    0.000000
     2  Cl   1.786828   0.000000
     3  H    1.088940   2.370503   0.000000
     4  H    1.088948   2.370571   1.787748   0.000000
     5  H    1.088893   2.370646   1.787522   1.787477   0.000000
 Stoichiometry    CH3Cl
 Framework group  C1[X(CH3Cl)]
 Deg. of freedom     9
 Full point group                 C1      NOp   1
 Largest Abelian subgroup         C1      NOp   1
 Largest concise Abelian subgroup C1      NOp   1
                         Standard orientation:                         
 ---------------------------------------------------------------------
 Center     Atomic      Atomic             Coordinates (Angstroms)
 Number     Number       Type             X           Y           Z
 ---------------------------------------------------------------------
      1          6           0        1.128238    0.000007    0.000017
      2         17           0       -0.658589   -0.000003   -0.000006
      3          1           0        1.475418    0.931604    0.444294
      4          1           0        1.475512   -0.850637    0.584494
      5          1           0        1.475662   -0.080956   -1.028783
 ---------------------------------------------------------------------
 Rotational constants (GHZ):    156.9278592     13.2544688     13.2542588
 Standard basis: 6-31+G(d) (6D, 7F)
 There are    48 symmetry adapted cartesian basis functions of A   symmetry.
 There are    48 symmetry adapted basis functions of A   symmetry.
    48 basis functions,   100 primitive gaussians,    48 cartesian basis functions
    13 alpha electrons       13 beta electrons
       nuclear repulsion energy        51.2277785713 Hartrees.
 NAtoms=    5 NActive=    5 NUniq=    5 SFac= 1.00D+00 NAtFMM=   60 NAOKFM=F Big=F
 Integral buffers will be    131072 words long.
 Raffenetti 2 integral format.
 Two-electron integral symmetry is turned on.
 One-electron integrals computed using PRISM.
 NBasis=    48 RedAO= T EigKep=  1.37D-03  NBF=    48
 NBsUse=    48 1.00D-06 EigRej= -1.00D+00 NBFU=    48
 Initial guess from the checkpoint file:  "/srv/scratch/z5358697/gauss/Gau-1575760.chk"
 B after Tr=     0.000000    0.000000    0.000000
         Rot=    1.000000    0.000000    0.000000    0.000000 Ang=   0.00 deg.
 Keep R1 ints in memory in canonical form, NReq=1587829.
 Requested convergence on RMS density matrix=1.00D-08 within 128 cycles.
 Requested convergence on MAX density matrix=1.00D-06.
 Requested convergence on             energy=1.00D-06.
 No special actions if energy rises.
 SCF Done:  E(RM062X) =  -500.047273265     A.U. after    1 cycles
            NFock=  1  Conv=0.95D-09     -V/T= 2.0031
 DoSCS=F DFT=T ScalE2(SS,OS)=  1.000000  1.000000
 Range of M.O.s used for correlation:     1    48
 NBasis=    48 NAE=    13 NBE=    13 NFC=     0 NFV=     0
 NROrb=     48 NOA=    13 NOB=    13 NVA=    35 NVB=    35

 **** Warning!!: The largest alpha MO coefficient is  0.14464661D+02

 Symmetrizing basis deriv contribution to polar:
 IMax=3 JMax=2 DiffMx= 0.00D+00
 G2DrvN: will do     6 centers at a time, making    1 passes.
 Calling FoFCou, ICntrl=  3107 FMM=F I1Cent=   0 AccDes= 0.00D+00.
 End of G2Drv F.D. properties file   721 does not exist.
 End of G2Drv F.D. properties file   722 does not exist.
 End of G2Drv F.D. properties file   788 does not exist.
          IDoAtm=11111
          Differentiating once with respect to electric field.
                with respect to dipole field.
          Differentiating once with respect to nuclear coordinates.
 Keep R1 ints in memory in canonical form, NReq=1561782.
          There are    18 degrees of freedom in the 1st order CPHF.  IDoFFX=6 NUNeed=     3.
     16 vectors produced by pass  0 Test12= 2.53D-15 5.56D-09 XBig12= 1.32D+01 1.99D+00.
 AX will form    16 AO Fock derivatives at one time.
     15 vectors produced by pass  1 Test12= 2.53D-15 5.56D-09 XBig12= 8.09D-01 2.62D-01.
     15 vectors produced by pass  2 Test12= 2.53D-15 5.56D-09 XBig12= 1.22D-02 3.17D-02.
     15 vectors produced by pass  3 Test12= 2.53D-15 5.56D-09 XBig12= 4.07D-05 2.07D-03.
     15 vectors produced by pass  4 Test12= 2.53D-15 5.56D-09 XBig12= 1.21D-07 1.03D-04.
     15 vectors produced by pass  5 Test12= 2.53D-15 5.56D-09 XBig12= 6.12D-10 7.35D-06.
      5 vectors produced by pass  6 Test12= 2.53D-15 5.56D-09 XBig12= 2.33D-12 3.97D-07.
      3 vectors produced by pass  7 Test12= 2.53D-15 5.56D-09 XBig12= 4.36D-15 1.70D-08.
 InvSVY:  IOpt=1 It=  1 EMax= 1.78D-15
 Solved reduced A of dimension    99 with    18 vectors.
 Isotropic polarizability for W=    0.000000       22.77 Bohr**3.
 End of Minotr F.D. properties file   721 does not exist.
 End of Minotr F.D. properties file   722 does not exist.
 End of Minotr F.D. properties file   788 does not exist.

 **********************************************************************

            Population analysis using the SCF density.

 **********************************************************************

 Orbital symmetries:
       Occupied  (A) (A) (A) (A) (A) (A) (A) (A) (A) (A) (A) (A)
                 (A)
       Virtual   (A) (A) (A) (A) (A) (A) (A) (A) (A) (A) (A) (A)
                 (A) (A) (A) (A) (A) (A) (A) (A) (A) (A) (A) (A)
                 (A) (A) (A) (A) (A) (A) (A) (A) (A) (A) (A)
 The electronic state is 1-A.
 Alpha  occ. eigenvalues -- -102.65761 -10.60678  -9.80482  -7.52902  -7.52205
 Alpha  occ. eigenvalues --   -7.52204  -0.95344  -0.77043  -0.52386  -0.52382
 Alpha  occ. eigenvalues --   -0.47512  -0.36202  -0.36201
 Alpha virt. eigenvalues --    0.02065   0.03582   0.06256   0.06262   0.08919
 Alpha virt. eigenvalues --    0.11652   0.11656   0.12547   0.18184   0.20810
 Alpha virt. eigenvalues --    0.20812   0.28776   0.61252   0.63640   0.63642
 Alpha virt. eigenvalues --    0.67284   0.67300   0.67303   0.72924   0.91187
 Alpha virt. eigenvalues --    0.91190   0.96806   0.96808   1.02771   1.03555
 Alpha virt. eigenvalues --    1.03561   1.15869   1.32478   1.74017   1.74025
 Alpha virt. eigenvalues --    2.20228   2.28692   2.28701   4.17270   4.43827
          Condensed to atoms (all electrons):
               1          2          3          4          5
     1  C    5.442243   0.139655   0.376397   0.376450   0.376379
     2  Cl   0.139655  17.033246  -0.048222  -0.048291  -0.048196
     3  H    0.376397  -0.048222   0.478786  -0.026689  -0.026713
     4  H    0.376450  -0.048291  -0.026689   0.478812  -0.026708
     5  H    0.376379  -0.048196  -0.026713  -0.026708   0.478792
 Mulliken charges:
               1
     1  C   -0.711123
     2  Cl  -0.028192
     3  H    0.246442
     4  H    0.246427
     5  H    0.246446
 Sum of Mulliken charges =   0.00000
 Mulliken charges with hydrogens summed into heavy atoms:
               1
     1  C    0.028192
     2  Cl  -0.028192
 APT charges:
               1
     1  C    0.298626
     2  Cl  -0.298964
     3  H    0.000244
     4  H   -0.000145
     5  H    0.000239
 Sum of APT charges =   0.00000
 APT charges with hydrogens summed into heavy atoms:
               1
     1  C    0.298964
     2  Cl  -0.298964
 Electronic spatial extent (au):  <R**2>=            131.8269
 Charge=              0.0000 electrons
 Dipole moment (field-independent basis, Debye):
    X=              2.1426    Y=              0.0004    Z=              0.0001  Tot=              2.1426
 Quadrupole moment (field-independent basis, Debye-Ang):
   XX=            -18.3411   YY=            -20.0736   ZZ=            -20.0746
   XY=             -0.0003   XZ=             -0.0003   YZ=             -0.0001
 Traceless Quadrupole moment (field-independent basis, Debye-Ang):
   XX=              1.1553   YY=             -0.5772   ZZ=             -0.5782
   XY=             -0.0003   XZ=             -0.0003   YZ=             -0.0001
 Octapole moment (field-independent basis, Debye-Ang**2):
  XXX=             -1.7251  YYY=              0.1997  ZZZ=             -0.8261  XYY=              1.1025
  XXY=             -0.0002  XXZ=             -0.0010  XZZ=              1.1013  YZZ=             -0.1979
  YYZ=              0.8265  XYZ=              0.0001
 Hexadecapole moment (field-independent basis, Debye-Ang**3):
 XXXX=           -118.0105 YYYY=            -29.2496 ZZZZ=            -29.2482 XXXY=             -0.0014
 XXXZ=             -0.0020 YYYX=              0.2842 YYYZ=             -0.0003 ZZZX=             -1.1880
 ZZZY=             -0.0003 XXYY=            -24.5883 XXZZ=            -24.5893 YYZZ=             -9.7497
 XXYZ=             -0.0003 YYXZ=              1.1877 ZZXY=             -0.2853
 N-N= 5.122777857126D+01 E-N=-1.288448569904D+03  KE= 4.984787931877D+02
  Exact polarizability:  29.848   0.020  19.244   0.015   0.002  19.209
 Approx polarizability:  31.420   0.000  20.177  -0.001   0.000  20.174
 Calling FoFJK, ICntrl=    100127 FMM=F ISym2X=0 I1Cent= 0 IOpClX= 0 NMat=1 NMatS=1 NMatT=0.
 Full mass-weighted force constant matrix:
 Low frequencies ---  -36.9172  -21.0311   -0.0026   -0.0001    0.0030   70.7507
 Low frequencies ---  769.6342 1047.4984 1050.7300
 Diagonal vibrational polarizability:
        1.6017455       0.1790438       0.1781469
 Harmonic frequencies (cm**-1), IR intensities (KM/Mole), Raman scattering
 activities (A**4/AMU), depolarization ratios for plane and unpolarized
 incident light, reduced masses (AMU), force constants (mDyne/A),
 and normal coordinates:
                      1                      2                      3
                      A                      A                      A
 Frequencies --    769.6325              1047.4843              1050.7250
 Red. masses --      7.0278                 1.1734                 1.1728
 Frc consts  --      2.4526                 0.7586                 0.7629
 IR Inten    --     28.9568                 3.7877                 3.8331
  Atom  AN      X      Y      Z        X      Y      Z        X      Y      Z
     1   6     0.60   0.00   0.00     0.00  -0.05  -0.10     0.00  -0.10   0.05
     2  17    -0.24   0.00   0.00     0.00   0.01   0.02     0.00   0.02  -0.01
     3   1     0.43   0.05   0.02    -0.59   0.02   0.20    -0.47   0.17  -0.16
     4   1     0.43  -0.04   0.03    -0.11   0.14   0.24     0.74   0.13  -0.04
     5   1     0.44   0.00  -0.05     0.70   0.11   0.11    -0.27   0.26  -0.07
                      4                      5                      6
                      A                      A                      A
 Frequencies --   1420.9766              1508.5697              1510.9078
 Red. masses --      1.1348                 1.0535                 1.0534
 Frc consts  --      1.3500                 1.4126                 1.4169
 IR Inten    --     16.9978                 6.4327                 6.4945
  Atom  AN      X      Y      Z        X      Y      Z        X      Y      Z
     1   6     0.11   0.00   0.00     0.00   0.06   0.00     0.00   0.00  -0.06
     2  17     0.01   0.00   0.00     0.00   0.00   0.00     0.00   0.00   0.00
     3   1    -0.53   0.17   0.09    -0.29  -0.03   0.37     0.16  -0.34   0.55
     4   1    -0.54  -0.15   0.12     0.28  -0.11  -0.39     0.18   0.42   0.47
     5   1    -0.54  -0.01  -0.20     0.01  -0.73   0.06    -0.32  -0.03  -0.14
                      7                      8                      9
                      A                      A                      A
 Frequencies --   3122.1421              3220.8759              3227.9326
 Red. masses --      1.0280                 1.1086                 1.1090
 Frc consts  --      5.9041                 6.7762                 6.8083
 IR Inten    --     21.5629                 3.5818                 3.4962
  Atom  AN      X      Y      Z        X      Y      Z        X      Y      Z
     1   6     0.04   0.00   0.00     0.00   0.02   0.09     0.00   0.09  -0.02
     2  17     0.00   0.00   0.00     0.00   0.00   0.00     0.00   0.00   0.00
     3   1    -0.17  -0.49  -0.23    -0.16  -0.47  -0.21    -0.19  -0.52  -0.26
     4   1    -0.16   0.43  -0.30    -0.09   0.25  -0.15     0.23  -0.60   0.42
     5   1    -0.18   0.04   0.58     0.24  -0.06  -0.74    -0.04   0.03   0.11

 -------------------
 - Thermochemistry -
 -------------------
 Temperature   298.150 Kelvin.  Pressure   1.00000 Atm.
 Atom     1 has atomic number  6 and mass  12.00000
 Atom     2 has atomic number 17 and mass  34.96885
 Atom     3 has atomic number  1 and mass   1.00783
 Atom     4 has atomic number  1 and mass   1.00783
 Atom     5 has atomic number  1 and mass   1.00783
 Molecular mass:    49.99233 amu.
 Principal axes and moments of inertia in atomic units:
                           1         2         3
     Eigenvalues --    11.50045 136.16096 136.16312
           X            1.00000   0.00000  -0.00001
           Y            0.00000   1.00000   0.00000
           Z            0.00001   0.00000   1.00000
 This molecule is an asymmetric top.
 Rotational symmetry number  1.
 Rotational temperatures (Kelvin)      7.53134     0.63611     0.63610
 Rotational constants (GHZ):         156.92786    13.25447    13.25426
 Zero-point vibrational energy     100960.3 (Joules/Mol)
                                   24.13009 (Kcal/Mol)
 Vibrational temperatures:   1107.33  1507.09  1511.76  2044.47  2170.49
          (Kelvin)           2173.86  4492.06  4634.12  4644.27
 
 Zero-point correction=                           0.038454 (Hartree/Particle)
 Thermal correction to Energy=                    0.041451
 Thermal correction to Enthalpy=                  0.042395
 Thermal correction to Gibbs Free Energy=         0.014803
 Sum of electronic and zero-point Energies=           -500.008820
 Sum of electronic and thermal Energies=              -500.005822
 Sum of electronic and thermal Enthalpies=            -500.004878
 Sum of electronic and thermal Free Energies=         -500.032470
 
                     E (Thermal)             CV                S
                      KCal/Mol        Cal/Mol-Kelvin    Cal/Mol-Kelvin
 Total                   26.011              7.560             58.072
 Electronic               0.000              0.000              0.000
 Translational            0.889              2.981             37.651
 Rotational               0.889              2.981             19.994
 Vibrational             24.233              1.599              0.426
                       Q            Log10(Q)             Ln(Q)
 Total Bot       0.155202D-06         -6.809103        -15.678540
 Total V=0       0.755713D+11         10.878357         25.048343
 Vib (Bot)       0.213711D-17        -17.670174        -40.687078
 Vib (V=0)       0.104061D+01          0.017287          0.039805
 Electronic      0.100000D+01          0.000000          0.000000
 Translational   0.138935D+08          7.142810         16.446928
 Rotational      0.522709D+04          3.718260          8.561610
 ***** Axes restored to original set *****
 -------------------------------------------------------------------
 Center     Atomic                   Forces (Hartrees/Bohr)
 Number     Number              X              Y              Z
 -------------------------------------------------------------------
      1        6           0.000004675    0.000039290    0.000108191
      2       17           0.000021746   -0.000065046   -0.000058805
      3        1           0.000010348    0.000005517   -0.000073231
      4        1          -0.000032428    0.000042655    0.000052455
      5        1          -0.000004341   -0.000022417   -0.000028610
 -------------------------------------------------------------------
 Cartesian Forces:  Max     0.000108191 RMS     0.000047536
 FormGI is forming the generalized inverse of G from B-inverse, IUseBI=4.

 GradGradGradGradGradGradGradGradGradGradGradGradGradGradGradGradGradGrad
 Berny optimization.
 Internal  Forces:  Max     0.000081907 RMS     0.000037311
 Search for a local minimum.
 Step number   1 out of a maximum of    2
 All quantities printed in internal units (Hartrees-Bohrs-Radians)
 Second derivative matrix not updated -- analytic derivatives used.
 The second derivative matrix:
                          R1        R2        R3        R4        A1
           R1           0.24165
           R2           0.00459   0.36007
           R3           0.00463   0.00205   0.36084
           R4           0.00450   0.00210   0.00220   0.35847
           A1           0.00554  -0.00217   0.00050  -0.00031   0.02342
           A2           0.00873   0.00104  -0.00296  -0.00225  -0.00914
           A3           0.01664  -0.00176  -0.00129  -0.00444  -0.01677
           A4          -0.00180   0.00425   0.00387  -0.00730  -0.00910
           A5          -0.01321   0.00662  -0.00775   0.00637  -0.01245
           A6          -0.01488  -0.00807   0.00752   0.00769   0.02397
           D1          -0.01100  -0.00049  -0.00108   0.00604  -0.01760
           D2           0.00910   0.00018  -0.00475   0.00067   0.01098
           D3          -0.01201   0.00456  -0.00003   0.00091   0.00724
           D4          -0.02110   0.00438   0.00472   0.00024  -0.00374
                          A2        A3        A4        A5        A6
           A2           0.04500
           A3          -0.02979   0.08834
           A4          -0.00159   0.02522   0.03991
           A5           0.02493  -0.03791  -0.02396   0.07509
           A6          -0.02921  -0.02769  -0.03001  -0.02654   0.08840
           D1          -0.01535   0.02373  -0.01146   0.01409   0.00628
           D2          -0.01460   0.01103  -0.00984   0.00598  -0.00331
           D3          -0.01947  -0.00119   0.00425   0.00836   0.00037
           D4          -0.00487  -0.01222   0.01409   0.00238   0.00368
                          D1        D2        D3        D4
           D1           0.03755
           D2           0.00132   0.02361
           D3           0.00054   0.01302   0.02422
           D4          -0.00077  -0.01060   0.01121   0.02181
 ITU=  0
     Eigenvalues ---    0.04156   0.05338   0.08060   0.13354   0.14620
     Eigenvalues ---    0.25103   0.35774   0.35947   0.36486
 Angle between quadratic step and forces=  34.64 degrees.
 Linear search not attempted -- first point.
 Iteration  1 RMS(Cart)=  0.00030291 RMS(Int)=  0.00000006
 Iteration  2 RMS(Cart)=  0.00000005 RMS(Int)=  0.00000001
 Variable       Old X    -DE/DX   Delta X   Delta X   Delta X     New X
                                 (Linear)    (Quad)   (Total)
    R1        3.37661  -0.00008   0.00000  -0.00036  -0.00036   3.37625
    R2        2.05780   0.00004   0.00000   0.00013   0.00013   2.05793
    R3        2.05781  -0.00002   0.00000  -0.00007  -0.00007   2.05774
    R4        2.05771   0.00003   0.00000   0.00012   0.00012   2.05783
    A1        1.89530   0.00003   0.00000   0.00051   0.00051   1.89580
    A2        1.89538  -0.00004   0.00000  -0.00037  -0.00037   1.89500
    A3        1.89552   0.00000   0.00000  -0.00004  -0.00004   1.89549
    A4        1.92584   0.00002   0.00000   0.00025   0.00025   1.92609
    A5        1.92555  -0.00005   0.00000  -0.00043  -0.00043   1.92512
    A6        1.92547   0.00004   0.00000   0.00008   0.00008   1.92555
    D1       -2.07548  -0.00003   0.00000  -0.00054  -0.00054  -2.07602
    D2        2.07539   0.00001   0.00000   0.00035   0.00035   2.07574
    D3       -2.07544   0.00003   0.00000   0.00043   0.00043  -2.07501
    D4        2.13235   0.00001   0.00000   0.00008   0.00008   2.13243
         Item               Value     Threshold  Converged?
 Maximum Force            0.000082     0.000450     YES
 RMS     Force            0.000037     0.000300     YES
 Maximum Displacement     0.000610     0.001800     YES
 RMS     Displacement     0.000303     0.001200     YES
 Predicted change in Energy=-6.850585D-08
 Optimization completed.
    -- Stationary point found.
                           ----------------------------
                           !   Optimized Parameters   !
                           ! (Angstroms and Degrees)  !
 --------------------------                            --------------------------
 ! Name  Definition              Value          Derivative Info.                !
 --------------------------------------------------------------------------------
 ! R1    R(1,2)                  1.7868         -DE/DX =   -0.0001              !
 ! R2    R(1,3)                  1.0889         -DE/DX =    0.0                 !
 ! R3    R(1,4)                  1.0889         -DE/DX =    0.0                 !
 ! R4    R(1,5)                  1.0889         -DE/DX =    0.0                 !
 ! A1    A(2,1,3)              108.5924         -DE/DX =    0.0                 !
 ! A2    A(2,1,4)              108.597          -DE/DX =    0.0                 !
 ! A3    A(2,1,5)              108.6054         -DE/DX =    0.0                 !
 ! A4    A(3,1,4)              110.3425         -DE/DX =    0.0                 !
 ! A5    A(3,1,5)              110.3259         -DE/DX =    0.0                 !
 ! A6    A(4,1,5)              110.3211         -DE/DX =    0.0                 !
 ! D1    D(2,1,4,3)           -118.916          -DE/DX =    0.0                 !
 ! D2    D(2,1,5,3)            118.9114         -DE/DX =    0.0                 !
 ! D3    D(2,1,5,4)           -118.9141         -DE/DX =    0.0                 !
 ! D4    D(3,1,5,4)            122.1745         -DE/DX =    0.0                 !
 --------------------------------------------------------------------------------
 GradGradGradGradGradGradGradGradGradGradGradGradGradGradGradGradGradGrad

 1\1\GINC-KATANA2\Freq\RM062X\6-31+G(d)\C1H3Cl1\Z5358697\20-Mar-2025\0\
 \#N Geom=AllCheck Guess=TCheck SCRF=Check GenChk RM062X/6-31+G(d) Freq
 \\chloromethane\\0,1\C,0.0887873062,-0.0705794074,-0.0966294087\Cl,-0.
 9759166658,0.7759488056,1.0620543783\H,0.7010102955,0.6692892699,-0.61
 00176285\H,0.719031533,-0.7663038945,0.4552473029\H,-0.5329124689,-0.6
 083547737,-0.810754644\\Version=ES64L-G09RevD.01\State=1-A\HF=-500.047
 2733\RMSD=9.463e-10\RMSF=4.754e-05\ZeroPoint=0.0384538\Thermal=0.04145
 11\Dipole=0.5023145,-0.3992454,-0.5467117\DipoleDeriv=0.3117634,-0.170
 2244,-0.2345227,-0.1710537,0.2322929,0.1868269,-0.235505,0.1848779,0.3
 51822,-0.3052149,0.0897138,0.1245096,0.0899296,-0.2643484,-0.0973925,0
 .1231113,-0.0970949,-0.327329,-0.0033208,-0.0123286,0.095389,-0.018486
 6,0.004324,0.0061127,0.0961211,-0.0006366,-0.0002722,-0.0073112,0.0950
 124,0.0173854,0.0959895,0.002364,-0.0027138,0.0108864,0.0040087,0.0045
 134,0.0040834,-0.0021732,-0.0027613,0.0036211,0.0253675,-0.0928334,0.0
 053861,-0.0911551,-0.0287343\Polar=23.0020854,-2.9939169,21.6026967,-4
 .1228567,3.2414542,23.6965366\PG=C01 [X(C1H3Cl1)]\NImag=0\\0.50962335,
 0.06062243,0.53780098,0.08341795,-0.06807553,0.49656406,-0.08107861,0.
 03756793,0.05143704,0.10011017,0.03755385,-0.06363976,-0.04075896,-0.0
 6221451,0.07088674,0.05146971,-0.04064595,-0.08949677,-0.08502902,0.06
 743279,0.11398948,-0.13852557,-0.11446554,0.07021575,-0.01188423,-0.00
 331292,0.01232213,0.14502581,-0.11399883,-0.18781559,0.09669837,0.0154
 6144,0.00782462,-0.01462106,0.11756672,0.20048946,0.07017968,0.0971742
 4,-0.11059194,0.01466420,0.00402131,-0.01296975,-0.08174545,-0.0978205
 0,0.11621505,-0.14378244,0.10185343,-0.09159483,-0.01207558,0.01243285
 ,0.00063929,0.01372626,-0.01247823,0.00934538,0.15083862,0.10169440,-0
 .16730282,0.09994091,0.00946296,-0.00782853,-0.00102394,0.01308734,-0.
 01166645,0.01143296,-0.11381973,0.17371094,-0.09099017,0.09951214,-0.1
 2662486,0.01952121,-0.01924944,0.00289345,-0.00964415,0.00742921,-0.00
 599983,0.09127367,-0.10220778,0.13831932,-0.14623673,-0.08557824,-0.11
 347591,0.00492826,0.01554073,0.02059789,-0.00834227,-0.00655110,-0.012
 44381,-0.00870686,-0.01042496,-0.01016056,0.15835760,-0.08587185,-0.11
 904281,-0.08780479,-0.00027781,-0.00724308,-0.01114184,-0.01287561,-0.
 00883204,-0.01480800,0.01201169,0.01308686,0.01451587,0.08701358,0.122
 03107,-0.11407717,-0.08796490,-0.16985049,-0.00059343,-0.01144571,-0.0
 1441642,0.00885172,0.00831399,0.01334647,-0.00966351,-0.00814214,-0.00
 858808,0.11548238,0.09923876,0.17950853\\-0.00000467,-0.00003929,-0.00
 010819,-0.00002175,0.00006505,0.00005881,-0.00001035,-0.00000552,0.000
 07323,0.00003243,-0.00004266,-0.00005246,0.00000434,0.00002242,0.00002
 861\\\@


 THERE ARE PEOPLE SO ADDICTED TO EXAGERATING THEY
 CAN'T TELL THE TRUTH WITHOUT LYING. -- FORTUNE COOKIE
 Job cpu time:       0 days  0 hours  0 minutes  8.2 seconds.
 File lengths (MBytes):  RWF=    132 Int=      0 D2E=      0 Chk=      2 Scr=      2
 Normal termination of Gaussian 09 at Thu Mar 20 14:17:48 2025.
