 Entering Gaussian System, Link 0=g09
 Initial command:
 /apps/z_install_tree/linux-rocky8-ivybridge/gcc-12.2.0/gaussian-09-D.01-wczn3gur5lpur3omlkzwa2l5ecyxp5ef/g09/l1.exe "/srv/scratch/z5358697/gauss/Gau-2169541.inp" -scrdir="/srv/scratch/z5358697/gauss/"
 Entering Link 1 = /apps/z_install_tree/linux-rocky8-ivybridge/gcc-12.2.0/gaussian-09-D.01-wczn3gur5lpur3omlkzwa2l5ecyxp5ef/g09/l1.exe PID=   2169542.
  
 Copyright (c) 1988,1990,1992,1993,1995,1998,2003,2009,2013,
            Gaussian, Inc.  All Rights Reserved.
  
 This is part of the Gaussian(R) 09 program.  It is based on
 the Gaussian(R) 03 system (copyright 2003, Gaussian, Inc.),
 the Gaussian(R) 98 system (copyright 1998, Gaussian, Inc.),
 the Gaussian(R) 94 system (copyright 1995, Gaussian, Inc.),
 the Gaussian 92(TM) system (copyright 1992, Gaussian, Inc.),
 the Gaussian 90(TM) system (copyright 1990, Gaussian, Inc.),
 the Gaussian 88(TM) system (copyright 1988, Gaussian, Inc.),
 the Gaussian 86(TM) system (copyright 1986, Carnegie Mellon
 University), and the Gaussian 82(TM) system (copyright 1983,
 Carnegie Mellon University). Gaussian is a federally registered
 trademark of Gaussian, Inc.
  
 This software contains proprietary and confidential information,
 including trade secrets, belonging to Gaussian, Inc.
  
 This software is provided under written license and may be
 used, copied, transmitted, or stored only in accord with that
 written license.
  
 The following legend is applicable only to US Government
 contracts under FAR:
  
                    RESTRICTED RIGHTS LEGEND
  
 Use, reproduction and disclosure by the US Government is
 subject to restrictions as set forth in subparagraphs (a)
 and (c) of the Commercial Computer Software - Restricted
 Rights clause in FAR 52.227-19.
  
 Gaussian, Inc.
 340 Quinnipiac St., Bldg. 40, Wallingford CT 06492
  
  
 ---------------------------------------------------------------
 Warning -- This program may not be used in any manner that
 competes with the business of Gaussian, Inc. or will provide
 assistance to any competitor of Gaussian, Inc.  The licensee
 of this program is prohibited from giving any competitor of
 Gaussian, Inc. access to this program.  By using this program,
 the user acknowledges that Gaussian, Inc. is engaged in the
 business of creating and licensing software in the field of
 computational chemistry and represents and warrants to the
 licensee that it is not a competitor of Gaussian, Inc. and that
 it will not use this program in any manner prohibited above.
 ---------------------------------------------------------------
  

 Cite this work as:
 Gaussian 09, Revision D.01,
 M. J. Frisch, G. W. Trucks, H. B. Schlegel, G. E. Scuseria, 
 M. A. Robb, J. R. Cheeseman, G. Scalmani, V. Barone, B. Mennucci, 
 G. A. Petersson, H. Nakatsuji, M. Caricato, X. Li, H. P. Hratchian, 
 A. F. Izmaylov, J. Bloino, G. Zheng, J. L. Sonnenberg, M. Hada, 
 M. Ehara, K. Toyota, R. Fukuda, J. Hasegawa, M. Ishida, T. Nakajima, 
 Y. Honda, O. Kitao, H. Nakai, T. Vreven, J. A. Montgomery, Jr., 
 J. E. Peralta, F. Ogliaro, M. Bearpark, J. J. Heyd, E. Brothers, 
 K. N. Kudin, V. N. Staroverov, T. Keith, R. Kobayashi, J. Normand, 
 K. Raghavachari, A. Rendell, J. C. Burant, S. S. Iyengar, J. Tomasi, 
 M. Cossi, N. Rega, J. M. Millam, M. Klene, J. E. Knox, J. B. Cross, 
 V. Bakken, C. Adamo, J. Jaramillo, R. Gomperts, R. E. Stratmann, 
 O. Yazyev, A. J. Austin, R. Cammi, C. Pomelli, J. W. Ochterski, 
 R. L. Martin, K. Morokuma, V. G. Zakrzewski, G. A. Voth, 
 P. Salvador, J. J. Dannenberg, S. Dapprich, A. D. Daniels, 
 O. Farkas, J. B. Foresman, J. V. Ortiz, J. Cioslowski, 
 and D. J. Fox, Gaussian, Inc., Wallingford CT, 2013.
 
 ******************************************
 Gaussian 09:  ES64L-G09RevD.01 24-Apr-2013
                14-Mar-2025 
 ******************************************
 ---------------------------------
 #m062X/6-31+G(d) OPT Freq=noraman
 ---------------------------------
 1/14=-1,18=20,19=15,26=3,38=1/1,3;
 2/9=110,12=2,17=6,18=5,40=1/2;
 3/5=1,6=6,7=11,11=2,16=1,25=1,30=1,71=1,74=-55/1,2,3;
 4//1;
 5/5=2,38=5/2;
 6/7=2,8=2,9=2,10=2,28=1/1;
 7//1,2,3,16;
 1/14=-1,18=20,19=15,26=3/3(2);
 2/9=110/2;
 99//99;
 2/9=110/2;
 3/5=1,6=6,7=11,11=2,16=1,25=1,30=1,71=1,74=-55/1,2,3;
 4/5=5,16=3,69=1/1;
 5/5=2,38=5/2;
 7//1,2,3,16;
 1/14=-1,18=20,19=15,26=3/3(-5);
 2/9=110/2;
 6/7=2,8=2,9=2,10=2,19=2,28=1/1;
 99/9=1/99;
 ------------------------
 (Z)-1,2-dichloroethylene
 ------------------------
 Symbolic Z-matrix:
 Charge =  0 Multiplicity = 1
 C                    -0.6314    0.0855   -0.1906 
 C                     0.6316   -0.0857    0.1906 
 Cl                    1.784    -0.9099   -0.7716 
 Cl                   -1.2353   -0.5005   -1.6824 
 H                    -1.3859    0.6       0.3893 
 H                     1.0478    0.2702    1.1237 
 

 GradGradGradGradGradGradGradGradGradGradGradGradGradGradGradGradGradGrad
 Berny optimization.
 Initialization pass.
                           ----------------------------
                           !    Initial Parameters    !
                           ! (Angstroms and Degrees)  !
 --------------------------                            --------------------------
 ! Name  Definition              Value          Derivative Info.                !
 --------------------------------------------------------------------------------
 ! R1    R(1,2)                  1.3303         estimate D2E/DX2                !
 ! R2    R(1,4)                  1.7128         estimate D2E/DX2                !
 ! R3    R(1,5)                  1.0818         estimate D2E/DX2                !
 ! R4    R(2,3)                  1.7126         estimate D2E/DX2                !
 ! R5    R(2,6)                  1.0819         estimate D2E/DX2                !
 ! A1    A(2,1,4)              122.7034         estimate D2E/DX2                !
 ! A2    A(2,1,5)              124.7332         estimate D2E/DX2                !
 ! A3    A(4,1,5)              112.5635         estimate D2E/DX2                !
 ! A4    A(1,2,3)              122.6675         estimate D2E/DX2                !
 ! A5    A(1,2,6)              124.7509         estimate D2E/DX2                !
 ! A6    A(3,2,6)              112.5816         estimate D2E/DX2                !
 ! D1    D(4,1,2,3)              0.004          estimate D2E/DX2                !
 ! D2    D(4,1,2,6)            179.9721         estimate D2E/DX2                !
 ! D3    D(5,1,2,3)           -179.9771         estimate D2E/DX2                !
 ! D4    D(5,1,2,6)             -0.009          estimate D2E/DX2                !
 --------------------------------------------------------------------------------
 Trust Radius=3.00D-01 FncErr=1.00D-07 GrdErr=1.00D-06
 Number of steps in this run=     25 maximum allowed number of steps=    100.
 GradGradGradGradGradGradGradGradGradGradGradGradGradGradGradGradGradGrad

                          Input orientation:                          
 ---------------------------------------------------------------------
 Center     Atomic      Atomic             Coordinates (Angstroms)
 Number     Number       Type             X           Y           Z
 ---------------------------------------------------------------------
      1          6           0       -0.631400    0.085500   -0.190600
      2          6           0        0.631600   -0.085700    0.190600
      3         17           0        1.784000   -0.909900   -0.771600
      4         17           0       -1.235300   -0.500500   -1.682400
      5          1           0       -1.385900    0.600000    0.389300
      6          1           0        1.047800    0.270200    1.123700
 ---------------------------------------------------------------------
                    Distance matrix (angstroms):
                    1          2          3          4          5
     1  C    0.000000
     2  C    1.330335   0.000000
     3  Cl   2.676292   1.712647   0.000000
     4  Cl   1.712763   2.676846   3.180147   0.000000
     5  H    1.081788   2.140087   3.698074   2.350685   0.000000
     6  H    2.140376   1.081926   2.350912   3.698746   2.563398
                    6
     6  H    0.000000
 Stoichiometry    C2H2Cl2
 Framework group  C1[X(C2H2Cl2)]
 Deg. of freedom    12
 Full point group                 C1      NOp   1
 Largest Abelian subgroup         C1      NOp   1
 Largest concise Abelian subgroup C1      NOp   1
                         Standard orientation:                         
 ---------------------------------------------------------------------
 Center     Atomic      Atomic             Coordinates (Angstroms)
 Number     Number       Type             X           Y           Z
 ---------------------------------------------------------------------
      1          6           0        0.664904    0.983970   -0.000052
      2          6           0       -0.665431    0.984065   -0.000093
      3         17           0       -1.589958   -0.457604    0.000011
      4         17           0        1.590189   -0.457351    0.000008
      5          1           0        1.281322    1.872954    0.000240
      6          1           0       -1.282076    1.873061    0.000300
 ---------------------------------------------------------------------
 Rotational constants (GHZ):     11.2993649      2.6493497      2.1461453
 Standard basis: 6-31+G(d) (6D, 7F)
 There are    88 symmetry adapted cartesian basis functions of A   symmetry.
 There are    88 symmetry adapted basis functions of A   symmetry.
    88 basis functions,   184 primitive gaussians,    88 cartesian basis functions
    24 alpha electrons       24 beta electrons
       nuclear repulsion energy       187.3336307680 Hartrees.
 NAtoms=    6 NActive=    6 NUniq=    6 SFac= 1.00D+00 NAtFMM=   60 NAOKFM=F Big=F
 Integral buffers will be    131072 words long.
 Raffenetti 2 integral format.
 Two-electron integral symmetry is turned on.
 One-electron integrals computed using PRISM.
 NBasis=    88 RedAO= T EigKep=  6.77D-05  NBF=    88
 NBsUse=    88 1.00D-06 EigRej= -1.00D+00 NBFU=    88
 ExpMin= 4.38D-02 ExpMax= 2.52D+04 ExpMxC= 3.78D+03 IAcc=2 IRadAn=         4 AccDes= 0.00D+00
 Harris functional with IExCor= 1009 and IRadAn=       4 diagonalized for initial guess.
 HarFok:  IExCor= 1009 AccDes= 0.00D+00 IRadAn=         4 IDoV= 1 UseB2=F ITyADJ=14
 ICtDFT=  3500011 ScaDFX=  1.000000  1.000000  1.000000  1.000000
 FoFCou: FMM=F IPFlag=           0 FMFlag=      100000 FMFlg1=           0
         NFxFlg=           0 DoJE=T BraDBF=F KetDBF=T FulRan=T
         wScrn=  0.000000 ICntrl=     500 IOpCl=  0 I1Cent=   200000004 NGrid=           0
         NMat0=    1 NMatS0=      1 NMatT0=    0 NMatD0=    1 NMtDS0=    0 NMtDT0=    0
 Petite list used in FoFCou.
 Keep R1 ints in memory in canonical form, NReq=8623566.
 Requested convergence on RMS density matrix=1.00D-08 within 128 cycles.
 Requested convergence on MAX density matrix=1.00D-06.
 Requested convergence on             energy=1.00D-06.
 No special actions if energy rises.
 SCF Done:  E(RM062X) =  -997.678524504     A.U. after   12 cycles
            NFock= 12  Conv=0.24D-08     -V/T= 2.0031

 **********************************************************************

            Population analysis using the SCF density.

 **********************************************************************

 Orbital symmetries:
       Occupied  (A) (A) (A) (A) (A) (A) (A) (A) (A) (A) (A) (A)
                 (A) (A) (A) (A) (A) (A) (A) (A) (A) (A) (A) (A)
       Virtual   (A) (A) (A) (A) (A) (A) (A) (A) (A) (A) (A) (A)
                 (A) (A) (A) (A) (A) (A) (A) (A) (A) (A) (A) (A)
                 (A) (A) (A) (A) (A) (A) (A) (A) (A) (A) (A) (A)
                 (A) (A) (A) (A) (A) (A) (A) (A) (A) (A) (A) (A)
                 (A) (A) (A) (A) (A) (A) (A) (A) (A) (A) (A) (A)
                 (A) (A) (A) (A)
 The electronic state is 1-A.
 Alpha  occ. eigenvalues -- -102.68444-102.68442 -10.63159 -10.63047  -9.83164
 Alpha  occ. eigenvalues --   -9.83162  -7.55577  -7.55575  -7.54910  -7.54908
 Alpha  occ. eigenvalues --   -7.54863  -7.54861  -1.01687  -0.96330  -0.83579
 Alpha  occ. eigenvalues --   -0.66865  -0.59866  -0.53510  -0.47473  -0.47358
 Alpha  occ. eigenvalues --   -0.41419  -0.39797  -0.37985  -0.31609
 Alpha virt. eigenvalues --    0.01089   0.01949   0.02653   0.03885   0.05015
 Alpha virt. eigenvalues --    0.07020   0.07420   0.09203   0.10344   0.10766
 Alpha virt. eigenvalues --    0.11417   0.12369   0.12429   0.14956   0.15098
 Alpha virt. eigenvalues --    0.16004   0.17573   0.19439   0.22929   0.24285
 Alpha virt. eigenvalues --    0.32489   0.36374   0.54312   0.57805   0.62112
 Alpha virt. eigenvalues --    0.62399   0.62637   0.67382   0.68050   0.68777
 Alpha virt. eigenvalues --    0.69101   0.71556   0.72433   0.77120   0.85976
 Alpha virt. eigenvalues --    0.88909   0.91018   0.92278   0.92295   0.93258
 Alpha virt. eigenvalues --    0.94658   0.97450   1.01029   1.01672   1.03660
 Alpha virt. eigenvalues --    1.14007   1.18319   1.18527   1.24419   1.42491
 Alpha virt. eigenvalues --    1.46300   1.64948   1.91984   1.95640   2.01998
 Alpha virt. eigenvalues --    2.10366   2.32053   2.35368   2.68600   2.71654
 Alpha virt. eigenvalues --    4.11840   4.24470   4.41427   4.49589
          Condensed to atoms (all electrons):
               1          2          3          4          5          6
     1  C    5.370664   0.461597  -0.113400   0.241375   0.357260  -0.033832
     2  C    0.461597   5.370249   0.241419  -0.113219  -0.033829   0.357254
     3  Cl  -0.113400   0.241419  16.847991   0.036407   0.003050  -0.035338
     4  Cl   0.241375  -0.113219   0.036407  16.847784  -0.035377   0.003036
     5  H    0.357260  -0.033829   0.003050  -0.035377   0.445981  -0.000699
     6  H   -0.033832   0.357254  -0.035338   0.003036  -0.000699   0.445924
 Mulliken charges:
               1
     1  C   -0.283664
     2  C   -0.283470
     3  Cl   0.019872
     4  Cl   0.019994
     5  H    0.263614
     6  H    0.263654
 Sum of Mulliken charges =   0.00000
 Mulliken charges with hydrogens summed into heavy atoms:
               1
     1  C   -0.020050
     2  C   -0.019816
     3  Cl   0.019872
     4  Cl   0.019994
 Electronic spatial extent (au):  <R**2>=            510.8923
 Charge=              0.0000 electrons
 Dipole moment (field-independent basis, Debye):
    X=             -0.0004    Y=              2.0967    Z=              0.0006  Tot=              2.0967
 Quadrupole moment (field-independent basis, Debye-Ang):
   XX=            -37.4880   YY=            -32.8175   ZZ=            -38.9896
   XY=             -0.0025   XZ=             -0.0001   YZ=              0.0012
 Traceless Quadrupole moment (field-independent basis, Debye-Ang):
   XX=             -1.0563   YY=              3.6142   ZZ=             -2.5579
   XY=             -0.0025   XZ=             -0.0001   YZ=              0.0012
 Octapole moment (field-independent basis, Debye-Ang**2):
  XXX=              0.0032  YYY=              1.2447  ZZZ=              0.0011  XYY=             -0.0035
  XXY=              0.7616  XXZ=              0.0020  XZZ=              0.0007  YZZ=             -2.5359
  YYZ=              0.0033  XYZ=             -0.0002
 Hexadecapole moment (field-independent basis, Debye-Ang**3):
 XXXX=           -470.3801 YYYY=           -143.3888 ZZZZ=            -45.3905 XXXY=             -0.0169
 XXXZ=             -0.0006 YYYX=             -0.0037 YYYZ=              0.0065 ZZZX=             -0.0002
 ZZZY=              0.0017 XXYY=            -86.8576 XXZZ=            -87.7585 YYZZ=            -37.2605
 XXYZ=              0.0018 YYXZ=             -0.0007 ZZXY=              0.0004
 N-N= 1.873336307680D+02 E-N=-2.741127070300D+03  KE= 9.946160302880D+02
 Calling FoFJK, ICntrl=      2127 FMM=F ISym2X=0 I1Cent= 0 IOpClX= 0 NMat=1 NMatS=1 NMatT=0.
 ***** Axes restored to original set *****
 -------------------------------------------------------------------
 Center     Atomic                   Forces (Hartrees/Bohr)
 Number     Number              X              Y              Z
 -------------------------------------------------------------------
      1        6           0.001018838    0.000678579    0.001877986
      2        6          -0.001700291    0.001051656    0.001029881
      3       17           0.006378795   -0.003470307   -0.003163219
      4       17          -0.004161037   -0.002015831   -0.006297318
      5        1           0.003707845    0.001293375    0.004663201
      6        1          -0.005244150    0.002462527    0.001889469
 -------------------------------------------------------------------
 Cartesian Forces:  Max     0.006378795 RMS     0.003400626

 GradGradGradGradGradGradGradGradGradGradGradGradGradGradGradGradGradGrad
 Berny optimization.
 FormGI is forming the generalized inverse of G from B-inverse, IUseBI=4.
 Internal  Forces:  Max     0.010102090 RMS     0.005488469
 Search for a local minimum.
 Step number   1 out of a maximum of   25
 All quantities printed in internal units (Hartrees-Bohrs-Radians)
 Mixed Optimization -- RFO/linear search
 Second derivative matrix not updated -- first step.
 The second derivative matrix:
                          R1        R2        R3        R4        R5
           R1           0.59427
           R2           0.00000   0.34397
           R3           0.00000   0.00000   0.35779
           R4           0.00000   0.00000   0.00000   0.34410
           R5           0.00000   0.00000   0.00000   0.00000   0.35763
           A1           0.00000   0.00000   0.00000   0.00000   0.00000
           A2           0.00000   0.00000   0.00000   0.00000   0.00000
           A3           0.00000   0.00000   0.00000   0.00000   0.00000
           A4           0.00000   0.00000   0.00000   0.00000   0.00000
           A5           0.00000   0.00000   0.00000   0.00000   0.00000
           A6           0.00000   0.00000   0.00000   0.00000   0.00000
           D1           0.00000   0.00000   0.00000   0.00000   0.00000
           D2           0.00000   0.00000   0.00000   0.00000   0.00000
           D3           0.00000   0.00000   0.00000   0.00000   0.00000
           D4           0.00000   0.00000   0.00000   0.00000   0.00000
                          A1        A2        A3        A4        A5
           A1           0.25000
           A2           0.00000   0.16000
           A3           0.00000   0.00000   0.16000
           A4           0.00000   0.00000   0.00000   0.25000
           A5           0.00000   0.00000   0.00000   0.00000   0.16000
           A6           0.00000   0.00000   0.00000   0.00000   0.00000
           D1           0.00000   0.00000   0.00000   0.00000   0.00000
           D2           0.00000   0.00000   0.00000   0.00000   0.00000
           D3           0.00000   0.00000   0.00000   0.00000   0.00000
           D4           0.00000   0.00000   0.00000   0.00000   0.00000
                          A6        D1        D2        D3        D4
           A6           0.16000
           D1           0.00000   0.03010
           D2           0.00000   0.00000   0.03010
           D3           0.00000   0.00000   0.00000   0.03010
           D4           0.00000   0.00000   0.00000   0.00000   0.03010
 ITU=  0
     Eigenvalues ---    0.03010   0.03010   0.03010   0.16000   0.16000
     Eigenvalues ---    0.22000   0.22000   0.34397   0.34410   0.35763
     Eigenvalues ---    0.35779   0.59427
 RFO step:  Lambda=-2.09895425D-03 EMin= 3.01028681D-02
 Linear search not attempted -- first point.
 Iteration  1 RMS(Cart)=  0.05387044 RMS(Int)=  0.00132335
 Iteration  2 RMS(Cart)=  0.00152646 RMS(Int)=  0.00000049
 Iteration  3 RMS(Cart)=  0.00000076 RMS(Int)=  0.00000004
 Variable       Old X    -DE/DX   Delta X   Delta X   Delta X     New X
                                 (Linear)    (Quad)   (Total)
    R1        2.51397  -0.00061   0.00000  -0.00103  -0.00103   2.51294
    R2        3.23665   0.00764   0.00000   0.02208   0.02208   3.25873
    R3        2.04428   0.00053   0.00000   0.00147   0.00147   2.04575
    R4        3.23643   0.00774   0.00000   0.02236   0.02236   3.25879
    R5        2.04454   0.00042   0.00000   0.00117   0.00117   2.04572
    A1        2.14158   0.00765   0.00000   0.03443   0.03443   2.17600
    A2        2.17700  -0.01003   0.00000  -0.05551  -0.05551   2.12149
    A3        1.96460   0.00239   0.00000   0.02109   0.02109   1.98569
    A4        2.14095   0.00778   0.00000   0.03501   0.03501   2.17597
    A5        2.17731  -0.01010   0.00000  -0.05584  -0.05584   2.12147
    A6        1.96492   0.00233   0.00000   0.02083   0.02083   1.98575
    D1        0.00007   0.00000   0.00000  -0.00010  -0.00010  -0.00003
    D2        3.14111   0.00002   0.00000   0.00075   0.00075  -3.14133
    D3       -3.14119  -0.00002   0.00000  -0.00069  -0.00069   3.14130
    D4       -0.00016   0.00000   0.00000   0.00015   0.00015  -0.00001
         Item               Value     Threshold  Converged?
 Maximum Force            0.010102     0.000450     NO 
 RMS     Force            0.005488     0.000300     NO 
 Maximum Displacement     0.101611     0.001800     NO 
 RMS     Displacement     0.054547     0.001200     NO 
 Predicted change in Energy=-1.060478D-03
 GradGradGradGradGradGradGradGradGradGradGradGradGradGradGradGradGradGrad

                          Input orientation:                          
 ---------------------------------------------------------------------
 Center     Atomic      Atomic             Coordinates (Angstroms)
 Number     Number       Type             X           Y           Z
 ---------------------------------------------------------------------
      1          6           0       -0.627557    0.076456   -0.206676
      2          6           0        0.634982   -0.094729    0.174164
      3         17           0        1.836387   -0.915095   -0.751820
      4         17           0       -1.289070   -0.491257   -1.694568
      5          1           0       -1.341063    0.600627    0.416303
      6          1           0        0.997121    0.283598    1.121597
 ---------------------------------------------------------------------
                    Distance matrix (angstroms):
                    1          2          3          4          5
     1  C    0.000000
     2  C    1.329792   0.000000
     3  Cl   2.711342   1.724477   0.000000
     4  Cl   1.724448   2.711340   3.291944   0.000000
     5  H    1.082566   2.108768   3.709193   2.377117   0.000000
     6  H    2.108743   1.082546   2.377168   3.709158   2.462733
                    6
     6  H    0.000000
 Stoichiometry    C2H2Cl2
 Framework group  C1[X(C2H2Cl2)]
 Deg. of freedom    12
 Full point group                 C1      NOp   1
 Largest Abelian subgroup         C1      NOp   1
 Largest concise Abelian subgroup C1      NOp   1
                         Standard orientation:                         
 ---------------------------------------------------------------------
 Center     Atomic      Atomic             Coordinates (Angstroms)
 Number     Number       Type             X           Y           Z
 ---------------------------------------------------------------------
      1          6           0        0.664902    0.966100    0.000040
      2          6           0       -0.664890    0.966126    0.000055
      3         17           0       -1.645976   -0.452075   -0.000008
      4         17           0        1.645968   -0.452079   -0.000005
      5          1           0        1.231403    1.888610   -0.000189
      6          1           0       -1.231330    1.888651   -0.000156
 ---------------------------------------------------------------------
 Rotational constants (GHZ):     11.5750024      2.4877964      2.0476898
 Standard basis: 6-31+G(d) (6D, 7F)
 There are    88 symmetry adapted cartesian basis functions of A   symmetry.
 There are    88 symmetry adapted basis functions of A   symmetry.
    88 basis functions,   184 primitive gaussians,    88 cartesian basis functions
    24 alpha electrons       24 beta electrons
       nuclear repulsion energy       184.7093284147 Hartrees.
 NAtoms=    6 NActive=    6 NUniq=    6 SFac= 1.00D+00 NAtFMM=   60 NAOKFM=F Big=F
 Integral buffers will be    131072 words long.
 Raffenetti 2 integral format.
 Two-electron integral symmetry is turned on.
 One-electron integrals computed using PRISM.
 NBasis=    88 RedAO= T EigKep=  6.80D-05  NBF=    88
 NBsUse=    88 1.00D-06 EigRej= -1.00D+00 NBFU=    88
 Initial guess from the checkpoint file:  "/srv/scratch/z5358697/gauss/Gau-2169542.chk"
 B after Tr=     0.000000    0.000000    0.000000
         Rot=    1.000000    0.000000    0.000000    0.000054 Ang=   0.01 deg.
 ExpMin= 4.38D-02 ExpMax= 2.52D+04 ExpMxC= 3.78D+03 IAcc=2 IRadAn=         4 AccDes= 0.00D+00
 Harris functional with IExCor= 1009 and IRadAn=       4 diagonalized for initial guess.
 HarFok:  IExCor= 1009 AccDes= 0.00D+00 IRadAn=         4 IDoV= 1 UseB2=F ITyADJ=14
 ICtDFT=  3500011 ScaDFX=  1.000000  1.000000  1.000000  1.000000
 FoFCou: FMM=F IPFlag=           0 FMFlag=      100000 FMFlg1=           0
         NFxFlg=           0 DoJE=T BraDBF=F KetDBF=T FulRan=T
         wScrn=  0.000000 ICntrl=     500 IOpCl=  0 I1Cent=   200000004 NGrid=           0
         NMat0=    1 NMatS0=      1 NMatT0=    0 NMatD0=    1 NMtDS0=    0 NMtDT0=    0
 Petite list used in FoFCou.
 Keep R1 ints in memory in canonical form, NReq=8623566.
 Requested convergence on RMS density matrix=1.00D-08 within 128 cycles.
 Requested convergence on MAX density matrix=1.00D-06.
 Requested convergence on             energy=1.00D-06.
 No special actions if energy rises.
 SCF Done:  E(RM062X) =  -997.679589061     A.U. after   11 cycles
            NFock= 11  Conv=0.14D-08     -V/T= 2.0031
 Calling FoFJK, ICntrl=      2127 FMM=F ISym2X=0 I1Cent= 0 IOpClX= 0 NMat=1 NMatS=1 NMatT=0.
 ***** Axes restored to original set *****
 -------------------------------------------------------------------
 Center     Atomic                   Forces (Hartrees/Bohr)
 Number     Number              X              Y              Z
 -------------------------------------------------------------------
      1        6           0.000186482   -0.000923057   -0.001674654
      2        6           0.000533327   -0.000982403   -0.001590056
      3       17          -0.001701474    0.000587822    0.000173113
      4       17           0.001412773    0.000157658    0.001099896
      5        1           0.000852443    0.000433617    0.001314195
      6        1          -0.001283550    0.000726364    0.000677506
 -------------------------------------------------------------------
 Cartesian Forces:  Max     0.001701474 RMS     0.001034035

 GradGradGradGradGradGradGradGradGradGradGradGradGradGradGradGradGradGrad
 Berny optimization.
 Using GEDIIS/GDIIS optimizer.
 FormGI is forming the generalized inverse of G from B-inverse, IUseBI=4.
 Internal  Forces:  Max     0.002582183 RMS     0.001283931
 Search for a local minimum.
 Step number   2 out of a maximum of   25
 All quantities printed in internal units (Hartrees-Bohrs-Radians)
 Mixed Optimization -- RFO/linear search
 Update second derivatives using D2CorX and points    1    2
 DE= -1.06D-03 DEPred=-1.06D-03 R= 1.00D+00
 TightC=F SS=  1.41D+00  RLast= 1.02D-01 DXNew= 5.0454D-01 3.0715D-01
 Trust test= 1.00D+00 RLast= 1.02D-01 DXMaxT set to 3.07D-01
 The second derivative matrix:
                          R1        R2        R3        R4        R5
           R1           0.59601
           R2           0.01121   0.35807
           R3           0.00028  -0.00135   0.35767
           R4           0.01135   0.01426  -0.00137   0.35852
           R5           0.00013  -0.00151  -0.00011  -0.00153   0.35754
           A1           0.01091   0.00763  -0.00165   0.00770  -0.00172
           A2          -0.01130  -0.00803   0.00170  -0.00812   0.00177
           A3           0.00130  -0.01092  -0.00084  -0.01106  -0.00068
           A4           0.01108   0.00766  -0.00168   0.00774  -0.00175
           A5          -0.01139  -0.00818   0.00171  -0.00827   0.00178
           A6           0.00123  -0.01101  -0.00083  -0.01115  -0.00067
           D1          -0.00001  -0.00001   0.00000  -0.00001   0.00000
           D2           0.00004   0.00009   0.00000   0.00009   0.00000
           D3          -0.00004  -0.00009   0.00000  -0.00009   0.00000
           D4           0.00001   0.00001   0.00000   0.00001   0.00000
                          A1        A2        A3        A4        A5
           A1           0.25084
           A2          -0.00102   0.16121
           A3          -0.01266   0.01306   0.15457
           A4           0.00077  -0.00095  -0.01288   0.25070
           A5          -0.00112   0.00132   0.01313  -0.00105   0.16143
           A6          -0.01271   0.01311  -0.00537  -0.01293   0.01318
           D1          -0.00001   0.00001   0.00000  -0.00001   0.00001
           D2           0.00007  -0.00007  -0.00003   0.00007  -0.00007
           D3          -0.00007   0.00008   0.00003  -0.00007   0.00008
           D4           0.00000   0.00000  -0.00001   0.00000   0.00000
                          A6        D1        D2        D3        D4
           A6           0.15469
           D1           0.00000   0.03010
           D2          -0.00003   0.00000   0.03010
           D3           0.00003   0.00000   0.00000   0.03010
           D4          -0.00001   0.00000   0.00000   0.00000   0.03010
 ITU=  1  0
 Use linear search instead of GDIIS.
     Eigenvalues ---    0.03010   0.03010   0.03010   0.12839   0.16000
     Eigenvalues ---    0.22000   0.24090   0.34403   0.35701   0.35772
     Eigenvalues ---    0.37768   0.59864
 RFO step:  Lambda=-1.08877037D-04 EMin= 3.01028647D-02
 Quartic linear search produced a step of  0.04580.
 Iteration  1 RMS(Cart)=  0.00980468 RMS(Int)=  0.00004828
 Iteration  2 RMS(Cart)=  0.00004463 RMS(Int)=  0.00000002
 Iteration  3 RMS(Cart)=  0.00000000 RMS(Int)=  0.00000002
 Variable       Old X    -DE/DX   Delta X   Delta X   Delta X     New X
                                 (Linear)    (Quad)   (Total)
    R1        2.51294  -0.00258  -0.00005  -0.00455  -0.00460   2.50835
    R2        3.25873  -0.00154   0.00101  -0.00453  -0.00352   3.25521
    R3        2.04575   0.00040   0.00007   0.00119   0.00126   2.04701
    R4        3.25879  -0.00156   0.00102  -0.00458  -0.00355   3.25524
    R5        2.04572   0.00042   0.00005   0.00123   0.00128   2.04700
    A1        2.17600  -0.00093   0.00158  -0.00414  -0.00256   2.17344
    A2        2.12149  -0.00115  -0.00254  -0.00880  -0.01134   2.11015
    A3        1.98569   0.00208   0.00097   0.01294   0.01390   1.99960
    A4        2.17597  -0.00093   0.00160  -0.00411  -0.00251   2.17346
    A5        2.12147  -0.00114  -0.00256  -0.00877  -0.01133   2.11014
    A6        1.98575   0.00207   0.00095   0.01289   0.01384   1.99959
    D1       -0.00003   0.00000   0.00000   0.00004   0.00003   0.00000
    D2       -3.14133  -0.00001   0.00003  -0.00045  -0.00042   3.14144
    D3        3.14130   0.00001  -0.00003   0.00049   0.00046  -3.14143
    D4       -0.00001   0.00000   0.00001   0.00001   0.00001   0.00001
         Item               Value     Threshold  Converged?
 Maximum Force            0.002582     0.000450     NO 
 RMS     Force            0.001284     0.000300     NO 
 Maximum Displacement     0.022112     0.001800     NO 
 RMS     Displacement     0.009814     0.001200     NO 
 Predicted change in Energy=-5.546780D-05
 GradGradGradGradGradGradGradGradGradGradGradGradGradGradGradGradGradGrad

                          Input orientation:                          
 ---------------------------------------------------------------------
 Center     Atomic      Atomic             Coordinates (Angstroms)
 Number     Number       Type             X           Y           Z
 ---------------------------------------------------------------------
      1          6           0       -0.626073    0.075191   -0.207957
      2          6           0        0.634157   -0.095696    0.172176
      3         17           0        1.831389   -0.915707   -0.756027
      4         17           0       -1.282913   -0.493414   -1.695420
      5          1           0       -1.331180    0.601681    0.423726
      6          1           0        0.985420    0.287544    1.122501
 ---------------------------------------------------------------------
                    Distance matrix (angstroms):
                    1          2          3          4          5
     1  C    0.000000
     2  C    1.327359   0.000000
     3  Cl   2.705805   1.722598   0.000000
     4  Cl   1.722584   2.705781   3.280193   0.000000
     5  H    1.083232   2.100514   3.700828   2.385863   0.000000
     6  H    2.100506   1.083225   2.385863   3.700799   2.440001
                    6
     6  H    0.000000
 Stoichiometry    C2H2Cl2
 Framework group  C1[X(C2H2Cl2)]
 Deg. of freedom    12
 Full point group                 C1      NOp   1
 Largest Abelian subgroup         C1      NOp   1
 Largest concise Abelian subgroup C1      NOp   1
                         Standard orientation:                         
 ---------------------------------------------------------------------
 Center     Atomic      Atomic             Coordinates (Angstroms)
 Number     Number       Type             X           Y           Z
 ---------------------------------------------------------------------
      1          6           0        0.663692    0.966488   -0.000027
      2          6           0       -0.663667    0.966491   -0.000029
      3         17           0       -1.640102   -0.452635    0.000004
      4         17           0        1.640091   -0.452645    0.000004
      5          1           0        1.220019    1.895946    0.000105
      6          1           0       -1.219982    1.895948    0.000097
 ---------------------------------------------------------------------
 Rotational constants (GHZ):     11.5465846      2.5056223      2.0588495
 Standard basis: 6-31+G(d) (6D, 7F)
 There are    88 symmetry adapted cartesian basis functions of A   symmetry.
 There are    88 symmetry adapted basis functions of A   symmetry.
    88 basis functions,   184 primitive gaussians,    88 cartesian basis functions
    24 alpha electrons       24 beta electrons
       nuclear repulsion energy       185.0451405278 Hartrees.
 NAtoms=    6 NActive=    6 NUniq=    6 SFac= 1.00D+00 NAtFMM=   60 NAOKFM=F Big=F
 Integral buffers will be    131072 words long.
 Raffenetti 2 integral format.
 Two-electron integral symmetry is turned on.
 One-electron integrals computed using PRISM.
 NBasis=    88 RedAO= T EigKep=  6.70D-05  NBF=    88
 NBsUse=    88 1.00D-06 EigRej= -1.00D+00 NBFU=    88
 Initial guess from the checkpoint file:  "/srv/scratch/z5358697/gauss/Gau-2169542.chk"
 B after Tr=     0.000000    0.000000    0.000000
         Rot=    1.000000    0.000000    0.000000    0.000000 Ang=   0.00 deg.
 ExpMin= 4.38D-02 ExpMax= 2.52D+04 ExpMxC= 3.78D+03 IAcc=2 IRadAn=         4 AccDes= 0.00D+00
 Harris functional with IExCor= 1009 and IRadAn=       4 diagonalized for initial guess.
 HarFok:  IExCor= 1009 AccDes= 0.00D+00 IRadAn=         4 IDoV= 1 UseB2=F ITyADJ=14
 ICtDFT=  3500011 ScaDFX=  1.000000  1.000000  1.000000  1.000000
 FoFCou: FMM=F IPFlag=           0 FMFlag=      100000 FMFlg1=           0
         NFxFlg=           0 DoJE=T BraDBF=F KetDBF=T FulRan=T
         wScrn=  0.000000 ICntrl=     500 IOpCl=  0 I1Cent=   200000004 NGrid=           0
         NMat0=    1 NMatS0=      1 NMatT0=    0 NMatD0=    1 NMtDS0=    0 NMtDT0=    0
 Petite list used in FoFCou.
 Keep R1 ints in memory in canonical form, NReq=8623566.
 Requested convergence on RMS density matrix=1.00D-08 within 128 cycles.
 Requested convergence on MAX density matrix=1.00D-06.
 Requested convergence on             energy=1.00D-06.
 No special actions if energy rises.
 SCF Done:  E(RM062X) =  -997.679645661     A.U. after    9 cycles
            NFock=  9  Conv=0.47D-08     -V/T= 2.0031
 Calling FoFJK, ICntrl=      2127 FMM=F ISym2X=0 I1Cent= 0 IOpClX= 0 NMat=1 NMatS=1 NMatT=0.
 ***** Axes restored to original set *****
 -------------------------------------------------------------------
 Center     Atomic                   Forces (Hartrees/Bohr)
 Number     Number              X              Y              Z
 -------------------------------------------------------------------
      1        6          -0.001726310   -0.000139814   -0.001271696
      2        6           0.002046747   -0.000653666   -0.000137599
      3       17          -0.000629987    0.000442857    0.000517854
      4       17           0.000327965    0.000310632    0.000801837
      5        1           0.000001819    0.000017427    0.000046395
      6        1          -0.000020234    0.000022565    0.000043209
 -------------------------------------------------------------------
 Cartesian Forces:  Max     0.002046747 RMS     0.000780517

 GradGradGradGradGradGradGradGradGradGradGradGradGradGradGradGradGradGrad
 Berny optimization.
 Using GEDIIS/GDIIS optimizer.
 FormGI is forming the generalized inverse of G from B-inverse, IUseBI=4.
 Internal  Forces:  Max     0.001471407 RMS     0.000509733
 Search for a local minimum.
 Step number   3 out of a maximum of   25
 All quantities printed in internal units (Hartrees-Bohrs-Radians)
 Mixed Optimization -- En-DIIS/RFO-DIIS
 Update second derivatives using D2CorX and points    1    2    3
 DE= -5.66D-05 DEPred=-5.55D-05 R= 1.02D+00
 TightC=F SS=  1.41D+00  RLast= 2.65D-02 DXNew= 5.1657D-01 7.9630D-02
 Trust test= 1.02D+00 RLast= 2.65D-02 DXMaxT set to 3.07D-01
 The second derivative matrix:
                          R1        R2        R3        R4        R5
           R1           0.68064
           R2          -0.00681   0.34869
           R3          -0.00389   0.00184   0.35745
           R4          -0.00681   0.00480   0.00185   0.34898
           R5          -0.00395   0.00174  -0.00034   0.00175   0.35729
           A1           0.01680   0.00215  -0.00125   0.00218  -0.00128
           A2           0.00223  -0.02177   0.00307  -0.02196   0.00322
           A3          -0.02989   0.00377  -0.00077   0.00375  -0.00069
           A4           0.01669   0.00226  -0.00127   0.00229  -0.00130
           A5           0.00221  -0.02191   0.00307  -0.02211   0.00322
           A6          -0.02977   0.00361  -0.00076   0.00359  -0.00068
           D1          -0.00002   0.00000   0.00000   0.00000   0.00000
           D2           0.00050   0.00001  -0.00003   0.00001  -0.00003
           D3          -0.00052   0.00000   0.00003  -0.00001   0.00003
           D4           0.00000   0.00001   0.00000   0.00001   0.00000
                          A1        A2        A3        A4        A5
           A1           0.24977
           A2          -0.00314   0.15316
           A3          -0.01242   0.01522   0.16093
           A4          -0.00031  -0.00309  -0.01255   0.24960
           A5          -0.00323  -0.00671   0.01525  -0.00318   0.15342
           A6          -0.01246   0.01526   0.00095  -0.01260   0.01529
           D1          -0.00001   0.00001   0.00001  -0.00001   0.00001
           D2           0.00010   0.00002  -0.00021   0.00010   0.00002
           D3          -0.00011  -0.00001   0.00021  -0.00011  -0.00001
           D4           0.00000   0.00000  -0.00001   0.00000   0.00000
                          A6        D1        D2        D3        D4
           A6           0.16098
           D1           0.00001   0.03010
           D2          -0.00021   0.00000   0.03011
           D3           0.00021   0.00000   0.00000   0.03011
           D4          -0.00001   0.00000   0.00000   0.00000   0.03010
 ITU=  1  1  0
 Use linear search instead of GDIIS.
     Eigenvalues ---    0.03010   0.03010   0.03011   0.11442   0.16000
     Eigenvalues ---    0.22000   0.24499   0.34403   0.35639   0.35771
     Eigenvalues ---    0.36210   0.68587
 RFO step:  Lambda=-8.60026982D-06 EMin= 3.01028635D-02
 Quartic linear search produced a step of  0.00984.
 Iteration  1 RMS(Cart)=  0.00100363 RMS(Int)=  0.00000076
 Iteration  2 RMS(Cart)=  0.00000072 RMS(Int)=  0.00000001
 Variable       Old X    -DE/DX   Delta X   Delta X   Delta X     New X
                                 (Linear)    (Quad)   (Total)
    R1        2.50835   0.00147  -0.00005   0.00223   0.00219   2.51053
    R2        3.25521  -0.00092  -0.00003  -0.00272  -0.00276   3.25245
    R3        2.04701   0.00003   0.00001   0.00017   0.00018   2.04719
    R4        3.25524  -0.00093  -0.00003  -0.00275  -0.00278   3.25246
    R5        2.04700   0.00004   0.00001   0.00018   0.00019   2.04719
    A1        2.17344   0.00008  -0.00003   0.00041   0.00039   2.17383
    A2        2.11015  -0.00008  -0.00011  -0.00128  -0.00139   2.10876
    A3        1.99960   0.00000   0.00014   0.00087   0.00100   2.00060
    A4        2.17346   0.00007  -0.00002   0.00040   0.00038   2.17383
    A5        2.11014  -0.00007  -0.00011  -0.00127  -0.00138   2.10876
    A6        1.99959   0.00000   0.00014   0.00087   0.00100   2.00059
    D1        0.00000   0.00000   0.00000   0.00000   0.00000   0.00000
    D2        3.14144   0.00001   0.00000   0.00025   0.00025  -3.14150
    D3       -3.14143  -0.00001   0.00000  -0.00026  -0.00026   3.14150
    D4        0.00001   0.00000   0.00000   0.00000   0.00000   0.00000
         Item               Value     Threshold  Converged?
 Maximum Force            0.001471     0.000450     NO 
 RMS     Force            0.000510     0.000300     NO 
 Maximum Displacement     0.001698     0.001800     YES
 RMS     Displacement     0.001004     0.001200     YES
 Predicted change in Energy=-4.305855D-06
 GradGradGradGradGradGradGradGradGradGradGradGradGradGradGradGradGradGrad

                          Input orientation:                          
 ---------------------------------------------------------------------
 Center     Atomic      Atomic             Coordinates (Angstroms)
 Number     Number       Type             X           Y           Z
 ---------------------------------------------------------------------
      1          6           0       -0.626443    0.074948   -0.208856
      2          6           0        0.634884   -0.096085    0.171612
      3         17           0        1.831501   -0.915398   -0.755271
      4         17           0       -1.283347   -0.493033   -1.694838
      5          1           0       -1.330572    0.601564    0.423975
      6          1           0        0.984777    0.287604    1.122378
 ---------------------------------------------------------------------
                    Distance matrix (angstroms):
                    1          2          3          4          5
     1  C    0.000000
     2  C    1.328516   0.000000
     3  Cl   2.705706   1.721127   0.000000
     4  Cl   1.721124   2.705701   3.280771   0.000000
     5  H    1.083327   2.100815   3.700068   2.385318   0.000000
     6  H    2.100818   1.083327   2.385313   3.700066   2.438684
                    6
     6  H    0.000000
 Stoichiometry    C2H2Cl2
 Framework group  C1[X(C2H2Cl2)]
 Deg. of freedom    12
 Full point group                 C1      NOp   1
 Largest Abelian subgroup         C1      NOp   1
 Largest concise Abelian subgroup C1      NOp   1
                         Standard orientation:                         
 ---------------------------------------------------------------------
 Center     Atomic      Atomic             Coordinates (Angstroms)
 Number     Number       Type             X           Y           Z
 ---------------------------------------------------------------------
      1          6           0        0.664261    0.965335    0.000016
      2          6           0       -0.664256    0.965335    0.000016
      3         17           0       -1.640386   -0.452214   -0.000002
      4         17           0        1.640384   -0.452216   -0.000002
      5          1           0        1.219342    1.895648   -0.000057
      6          1           0       -1.219342    1.895645   -0.000059
 ---------------------------------------------------------------------
 Rotational constants (GHZ):     11.5684159      2.5046109      2.0588592
 Standard basis: 6-31+G(d) (6D, 7F)
 There are    88 symmetry adapted cartesian basis functions of A   symmetry.
 There are    88 symmetry adapted basis functions of A   symmetry.
    88 basis functions,   184 primitive gaussians,    88 cartesian basis functions
    24 alpha electrons       24 beta electrons
       nuclear repulsion energy       185.0809741012 Hartrees.
 NAtoms=    6 NActive=    6 NUniq=    6 SFac= 1.00D+00 NAtFMM=   60 NAOKFM=F Big=F
 Integral buffers will be    131072 words long.
 Raffenetti 2 integral format.
 Two-electron integral symmetry is turned on.
 One-electron integrals computed using PRISM.
 NBasis=    88 RedAO= T EigKep=  6.72D-05  NBF=    88
 NBsUse=    88 1.00D-06 EigRej= -1.00D+00 NBFU=    88
 Initial guess from the checkpoint file:  "/srv/scratch/z5358697/gauss/Gau-2169542.chk"
 B after Tr=     0.000000    0.000000    0.000000
         Rot=    1.000000    0.000000    0.000000   -0.000002 Ang=   0.00 deg.
 Keep R1 ints in memory in canonical form, NReq=8623566.
 Requested convergence on RMS density matrix=1.00D-08 within 128 cycles.
 Requested convergence on MAX density matrix=1.00D-06.
 Requested convergence on             energy=1.00D-06.
 No special actions if energy rises.
 SCF Done:  E(RM062X) =  -997.679650938     A.U. after    8 cycles
            NFock=  8  Conv=0.29D-08     -V/T= 2.0031
 Calling FoFJK, ICntrl=      2127 FMM=F ISym2X=0 I1Cent= 0 IOpClX= 0 NMat=1 NMatS=1 NMatT=0.
 ***** Axes restored to original set *****
 -------------------------------------------------------------------
 Center     Atomic                   Forces (Hartrees/Bohr)
 Number     Number              X              Y              Z
 -------------------------------------------------------------------
      1        6          -0.000312489   -0.000057791   -0.000280532
      2        6           0.000391179   -0.000153425   -0.000068446
      3       17          -0.000184322    0.000133723    0.000153581
      4       17           0.000096166    0.000095516    0.000237738
      5        1          -0.000000101   -0.000008449   -0.000022669
      6        1           0.000009566   -0.000009573   -0.000019673
 -------------------------------------------------------------------
 Cartesian Forces:  Max     0.000391179 RMS     0.000168724

 GradGradGradGradGradGradGradGradGradGradGradGradGradGradGradGradGradGrad
 Berny optimization.
 Using GEDIIS/GDIIS optimizer.
 FormGI is forming the generalized inverse of G from B-inverse, IUseBI=4.
 Internal  Forces:  Max     0.000274518 RMS     0.000116664
 Search for a local minimum.
 Step number   4 out of a maximum of   25
 All quantities printed in internal units (Hartrees-Bohrs-Radians)
 Mixed Optimization -- En-DIIS/RFO-DIIS
 Swapping is turned off.
 Update second derivatives using D2CorX and points    1    2    3    4
 DE= -5.28D-06 DEPred=-4.31D-06 R= 1.23D+00
 TightC=F SS=  1.41D+00  RLast= 5.14D-03 DXNew= 5.1657D-01 1.5431D-02
 Trust test= 1.23D+00 RLast= 5.14D-03 DXMaxT set to 3.07D-01
 The second derivative matrix:
                          R1        R2        R3        R4        R5
           R1           0.65943
           R2           0.03028   0.31399
           R3          -0.00092   0.00052   0.35789
           R4           0.03040  -0.03007   0.00050   0.31395
           R5          -0.00094   0.00043   0.00013   0.00041   0.35779
           A1           0.01395   0.00672  -0.00152   0.00679  -0.00158
           A2          -0.00798  -0.02080   0.00224  -0.02097   0.00235
           A3          -0.03150   0.00348  -0.00018   0.00343  -0.00005
           A4           0.01403   0.00670  -0.00155   0.00676  -0.00161
           A5          -0.00789  -0.02100   0.00226  -0.02116   0.00237
           A6          -0.03153   0.00342  -0.00018   0.00336  -0.00005
           D1          -0.00002  -0.00001   0.00000  -0.00001   0.00000
           D2           0.00133  -0.00037   0.00005  -0.00037   0.00006
           D3          -0.00134   0.00036  -0.00005   0.00037  -0.00006
           D4           0.00001   0.00000   0.00000   0.00000   0.00000
                          A1        A2        A3        A4        A5
           A1           0.24853
           A2          -0.00386   0.15764
           A3          -0.01533   0.01615   0.16172
           A4          -0.00154  -0.00382  -0.01548   0.24838
           A5          -0.00395  -0.00225   0.01623  -0.00391   0.15785
           A6          -0.01537   0.01621   0.00174  -0.01553   0.01629
           D1          -0.00001   0.00001   0.00001  -0.00001   0.00001
           D2           0.00012  -0.00020  -0.00010   0.00012  -0.00020
           D3          -0.00013   0.00021   0.00011  -0.00013   0.00021
           D4           0.00000   0.00000  -0.00001   0.00000   0.00000
                          A6        D1        D2        D3        D4
           A6           0.16175
           D1           0.00001   0.03010
           D2          -0.00010   0.00000   0.03012
           D3           0.00011   0.00000  -0.00002   0.03012
           D4          -0.00001   0.00000   0.00000   0.00000   0.03010
 ITU=  1  1  1  0
     Eigenvalues ---    0.03010   0.03010   0.03013   0.11528   0.16000
     Eigenvalues ---    0.22000   0.24553   0.29445   0.34404   0.35771
     Eigenvalues ---    0.35817   0.66926
 En-DIIS/RFO-DIIS IScMMF=        0 using points:     4    3
 RFO step:  Lambda=-3.64286045D-07.
 DidBck=F Rises=F RFO-DIIS coefs:    1.29043   -0.29043
 Iteration  1 RMS(Cart)=  0.00031090 RMS(Int)=  0.00000002
 Iteration  2 RMS(Cart)=  0.00000004 RMS(Int)=  0.00000000
 Variable       Old X    -DE/DX   Delta X   Delta X   Delta X     New X
                                 (Linear)    (Quad)   (Total)
    R1        2.51053   0.00023   0.00063  -0.00019   0.00044   2.51097
    R2        3.25245  -0.00027  -0.00080  -0.00024  -0.00104   3.25141
    R3        2.04719  -0.00002   0.00005  -0.00009  -0.00004   2.04715
    R4        3.25246  -0.00027  -0.00081  -0.00024  -0.00104   3.25141
    R5        2.04719  -0.00002   0.00006  -0.00010  -0.00004   2.04715
    A1        2.17383   0.00001   0.00011  -0.00002   0.00009   2.17392
    A2        2.10876   0.00001  -0.00040   0.00024  -0.00016   2.10860
    A3        2.00060  -0.00002   0.00029  -0.00022   0.00007   2.00067
    A4        2.17383   0.00001   0.00011  -0.00002   0.00009   2.17392
    A5        2.10876   0.00001  -0.00040   0.00023  -0.00017   2.10860
    A6        2.00059  -0.00002   0.00029  -0.00021   0.00008   2.00067
    D1        0.00000   0.00000   0.00000   0.00000   0.00000   0.00000
    D2       -3.14150   0.00000   0.00007  -0.00028  -0.00021   3.14148
    D3        3.14150   0.00000  -0.00007   0.00028   0.00020  -3.14148
    D4        0.00000   0.00000   0.00000   0.00000   0.00000   0.00000
         Item               Value     Threshold  Converged?
 Maximum Force            0.000275     0.000450     YES
 RMS     Force            0.000117     0.000300     YES
 Maximum Displacement     0.000555     0.001800     YES
 RMS     Displacement     0.000311     0.001200     YES
 Predicted change in Energy=-3.351259D-07
 Optimization completed.
    -- Stationary point found.
                           ----------------------------
                           !   Optimized Parameters   !
                           ! (Angstroms and Degrees)  !
 --------------------------                            --------------------------
 ! Name  Definition              Value          Derivative Info.                !
 --------------------------------------------------------------------------------
 ! R1    R(1,2)                  1.3285         -DE/DX =    0.0002              !
 ! R2    R(1,4)                  1.7211         -DE/DX =   -0.0003              !
 ! R3    R(1,5)                  1.0833         -DE/DX =    0.0                 !
 ! R4    R(2,3)                  1.7211         -DE/DX =   -0.0003              !
 ! R5    R(2,6)                  1.0833         -DE/DX =    0.0                 !
 ! A1    A(2,1,4)              124.5512         -DE/DX =    0.0                 !
 ! A2    A(2,1,5)              120.8229         -DE/DX =    0.0                 !
 ! A3    A(4,1,5)              114.6259         -DE/DX =    0.0                 !
 ! A4    A(1,2,3)              124.5515         -DE/DX =    0.0                 !
 ! A5    A(1,2,6)              120.8232         -DE/DX =    0.0                 !
 ! A6    A(3,2,6)              114.6253         -DE/DX =    0.0                 !
 ! D1    D(4,1,2,3)              0.0            -DE/DX =    0.0                 !
 ! D2    D(4,1,2,6)            180.0054         -DE/DX =    0.0                 !
 ! D3    D(5,1,2,3)           -180.0052         -DE/DX =    0.0                 !
 ! D4    D(5,1,2,6)              0.0001         -DE/DX =    0.0                 !
 --------------------------------------------------------------------------------
 GradGradGradGradGradGradGradGradGradGradGradGradGradGradGradGradGradGrad

                          Input orientation:                          
 ---------------------------------------------------------------------
 Center     Atomic      Atomic             Coordinates (Angstroms)
 Number     Number       Type             X           Y           Z
 ---------------------------------------------------------------------
      1          6           0       -0.626443    0.074948   -0.208856
      2          6           0        0.634884   -0.096085    0.171612
      3         17           0        1.831501   -0.915398   -0.755271
      4         17           0       -1.283347   -0.493033   -1.694838
      5          1           0       -1.330572    0.601564    0.423975
      6          1           0        0.984777    0.287604    1.122378
 ---------------------------------------------------------------------
                    Distance matrix (angstroms):
                    1          2          3          4          5
     1  C    0.000000
     2  C    1.328516   0.000000
     3  Cl   2.705706   1.721127   0.000000
     4  Cl   1.721124   2.705701   3.280771   0.000000
     5  H    1.083327   2.100815   3.700068   2.385318   0.000000
     6  H    2.100818   1.083327   2.385313   3.700066   2.438684
                    6
     6  H    0.000000
 Stoichiometry    C2H2Cl2
 Framework group  C1[X(C2H2Cl2)]
 Deg. of freedom    12
 Full point group                 C1      NOp   1
 Largest Abelian subgroup         C1      NOp   1
 Largest concise Abelian subgroup C1      NOp   1
                         Standard orientation:                         
 ---------------------------------------------------------------------
 Center     Atomic      Atomic             Coordinates (Angstroms)
 Number     Number       Type             X           Y           Z
 ---------------------------------------------------------------------
      1          6           0        0.664261    0.965335    0.000016
      2          6           0       -0.664256    0.965335    0.000016
      3         17           0       -1.640386   -0.452214   -0.000002
      4         17           0        1.640384   -0.452216   -0.000002
      5          1           0        1.219342    1.895648   -0.000057
      6          1           0       -1.219342    1.895645   -0.000059
 ---------------------------------------------------------------------
 Rotational constants (GHZ):     11.5684159      2.5046109      2.0588592

 **********************************************************************

            Population analysis using the SCF density.

 **********************************************************************

 Orbital symmetries:
       Occupied  (A) (A) (A) (A) (A) (A) (A) (A) (A) (A) (A) (A)
                 (A) (A) (A) (A) (A) (A) (A) (A) (A) (A) (A) (A)
       Virtual   (A) (A) (A) (A) (A) (A) (A) (A) (A) (A) (A) (A)
                 (A) (A) (A) (A) (A) (A) (A) (A) (A) (A) (A) (A)
                 (A) (A) (A) (A) (A) (A) (A) (A) (A) (A) (A) (A)
                 (A) (A) (A) (A) (A) (A) (A) (A) (A) (A) (A) (A)
                 (A) (A) (A) (A) (A) (A) (A) (A) (A) (A) (A) (A)
                 (A) (A) (A) (A)
 The electronic state is 1-A.
 Alpha  occ. eigenvalues -- -102.68632-102.68632 -10.63221 -10.63107  -9.83319
 Alpha  occ. eigenvalues --   -9.83318  -7.55737  -7.55736  -7.55062  -7.55062
 Alpha  occ. eigenvalues --   -7.55020  -7.55020  -1.01294  -0.96292  -0.84041
 Alpha  occ. eigenvalues --   -0.66547  -0.59526  -0.53497  -0.47560  -0.47181
 Alpha  occ. eigenvalues --   -0.41522  -0.39598  -0.38390  -0.31787
 Alpha virt. eigenvalues --    0.01158   0.01840   0.02640   0.03990   0.04849
 Alpha virt. eigenvalues --    0.07031   0.07352   0.09329   0.10366   0.10763
 Alpha virt. eigenvalues --    0.11396   0.12297   0.12429   0.14692   0.15069
 Alpha virt. eigenvalues --    0.15739   0.17313   0.19252   0.22710   0.24183
 Alpha virt. eigenvalues --    0.33079   0.36180   0.53926   0.57922   0.62092
 Alpha virt. eigenvalues --    0.62133   0.62570   0.67155   0.68572   0.68763
 Alpha virt. eigenvalues --    0.69556   0.72046   0.72345   0.77051   0.85850
 Alpha virt. eigenvalues --    0.88945   0.90658   0.92220   0.92239   0.93282
 Alpha virt. eigenvalues --    0.94659   0.97782   1.00088   1.01218   1.04841
 Alpha virt. eigenvalues --    1.13633   1.16518   1.19458   1.23292   1.43047
 Alpha virt. eigenvalues --    1.46655   1.64187   1.91384   1.94993   2.00045
 Alpha virt. eigenvalues --    2.12518   2.32572   2.35723   2.67760   2.70045
 Alpha virt. eigenvalues --    4.11248   4.23973   4.41762   4.48938
          Condensed to atoms (all electrons):
               1          2          3          4          5          6
     1  C    5.313856   0.514274  -0.100508   0.229368   0.358106  -0.035951
     2  C    0.514274   5.313857   0.229369  -0.100509  -0.035951   0.358106
     3  Cl  -0.100508   0.229369  16.837279   0.040960   0.003217  -0.031770
     4  Cl   0.229368  -0.100509   0.040960  16.837278  -0.031770   0.003217
     5  H    0.358106  -0.035951   0.003217  -0.031770   0.449893  -0.001185
     6  H   -0.035951   0.358106  -0.031770   0.003217  -0.001185   0.449894
 Mulliken charges:
               1
     1  C   -0.279144
     2  C   -0.279145
     3  Cl   0.021454
     4  Cl   0.021455
     5  H    0.257690
     6  H    0.257690
 Sum of Mulliken charges =   0.00000
 Mulliken charges with hydrogens summed into heavy atoms:
               1
     1  C   -0.021454
     2  C   -0.021455
     3  Cl   0.021454
     4  Cl   0.021455
 Electronic spatial extent (au):  <R**2>=            528.0596
 Charge=              0.0000 electrons
 Dipole moment (field-independent basis, Debye):
    X=              0.0000    Y=              2.0885    Z=             -0.0001  Tot=              2.0885
 Quadrupole moment (field-independent basis, Debye-Ang):
   XX=            -37.7348   YY=            -32.7249   ZZ=            -39.0128
   XY=              0.0000   XZ=              0.0000   YZ=             -0.0003
 Traceless Quadrupole moment (field-independent basis, Debye-Ang):
   XX=             -1.2440   YY=              3.7659   ZZ=             -2.5220
   XY=              0.0000   XZ=              0.0000   YZ=             -0.0003
 Octapole moment (field-independent basis, Debye-Ang**2):
  XXX=              0.0000  YYY=              2.0197  ZZZ=             -0.0002  XYY=              0.0000
  XXY=             -0.1918  XXZ=             -0.0004  XZZ=              0.0000  YZZ=             -2.5070
  YYZ=             -0.0007  XYZ=              0.0000
 Hexadecapole moment (field-independent basis, Debye-Ang**3):
 XXXX=           -493.2407 YYYY=           -139.8543 ZZZZ=            -45.4299 XXXY=              0.0000
 XXXZ=              0.0000 YYYX=              0.0000 YYYZ=             -0.0014 ZZZX=              0.0000
 ZZZY=             -0.0004 XXYY=            -91.0711 XXZZ=            -91.7159 YYZZ=            -36.8104
 XXYZ=             -0.0003 YYXZ=              0.0000 ZZXY=              0.0000
 N-N= 1.850809741012D+02 E-N=-2.736550243718D+03  KE= 9.945676873780D+02
 1\1\GINC-KATANA2\FOpt\RM062X\6-31+G(d)\C2H2Cl2\Z5358697\14-Mar-2025\0\
 \#m062X/6-31+G(d) OPT Freq=noraman\\(Z)-1,2-dichloroethylene\\0,1\C,-0
 .6264430903,0.0749483234,-0.2088557912\C,0.6348843644,-0.0960853208,0.
 171612342\Cl,1.8315007173,-0.915398434,-0.7552709244\Cl,-1.2833470245,
 -0.493032679,-1.6948382558\H,-1.3305722979,0.6015642504,0.4239747805\H
 ,0.9847773309,0.2876038601,1.1223778489\\Version=ES64L-G09RevD.01\Stat
 e=1-A\HF=-997.6796509\RMSD=2.941e-09\RMSF=1.687e-04\Dipole=-0.1564384,
 0.4020192,0.6993356\Quadrupole=-0.8490895,-0.7401212,1.5892107,-0.5516
 002,-0.4991201,1.9116979\PG=C01 [X(C2H2Cl2)]\\@


 WE STILL HAVE JUDGEMENT HERE,
 THAT WE TEACH BUT BLOODY INSTRUCTIONS,
 WHICH, BEING TAUGHT,
 RETURN TO PLAGUE THE INVENTOR.
           MACBETH ACT I, SCENE VII
 Job cpu time:       0 days  0 hours  0 minutes 29.9 seconds.
 File lengths (MBytes):  RWF=    132 Int=      0 D2E=      0 Chk=      2 Scr=      2
 Normal termination of Gaussian 09 at Fri Mar 14 14:04:12 2025.
 Link1:  Proceeding to internal job step number  2.
 ---------------------------------------------------------------------
 #N Geom=AllCheck Guess=TCheck SCRF=Check GenChk RM062X/6-31+G(d) Freq
 ---------------------------------------------------------------------
 1/10=4,29=7,30=1,38=1,40=1/1,3;
 2/12=2,40=1/2;
 3/5=1,6=6,7=11,11=2,14=-4,16=1,25=1,30=1,70=2,71=2,74=-55,116=1,140=1/1,2,3;
 4/5=101/1;
 5/5=2,98=1/2;
 8/6=4,10=90,11=11/1;
 11/6=1,8=1,9=11,15=111,16=1/1,2,10;
 10/6=1/2;
 6/7=2,8=2,9=2,10=2,18=1,28=1/1;
 7/8=1,10=1,25=1/1,2,3,16;
 1/10=4,30=1/3;
 99//99;
 Structure from the checkpoint file:  "/srv/scratch/z5358697/gauss/Gau-2169542.chk"
 ------------------------
 (Z)-1,2-dichloroethylene
 ------------------------
 Charge =  0 Multiplicity = 1
 Redundant internal coordinates found in file.
 C,0,-0.6264430903,0.0749483234,-0.2088557912
 C,0,0.6348843644,-0.0960853208,0.171612342
 Cl,0,1.8315007173,-0.915398434,-0.7552709244
 Cl,0,-1.2833470245,-0.493032679,-1.6948382558
 H,0,-1.3305722979,0.6015642504,0.4239747805
 H,0,0.9847773309,0.2876038601,1.1223778489
 Recover connectivity data from disk.

 GradGradGradGradGradGradGradGradGradGradGradGradGradGradGradGradGradGrad
 Berny optimization.
 Initialization pass.
                           ----------------------------
                           !    Initial Parameters    !
                           ! (Angstroms and Degrees)  !
 --------------------------                            --------------------------
 ! Name  Definition              Value          Derivative Info.                !
 --------------------------------------------------------------------------------
 ! R1    R(1,2)                  1.3285         calculate D2E/DX2 analytically  !
 ! R2    R(1,4)                  1.7211         calculate D2E/DX2 analytically  !
 ! R3    R(1,5)                  1.0833         calculate D2E/DX2 analytically  !
 ! R4    R(2,3)                  1.7211         calculate D2E/DX2 analytically  !
 ! R5    R(2,6)                  1.0833         calculate D2E/DX2 analytically  !
 ! A1    A(2,1,4)              124.5512         calculate D2E/DX2 analytically  !
 ! A2    A(2,1,5)              120.8229         calculate D2E/DX2 analytically  !
 ! A3    A(4,1,5)              114.6259         calculate D2E/DX2 analytically  !
 ! A4    A(1,2,3)              124.5515         calculate D2E/DX2 analytically  !
 ! A5    A(1,2,6)              120.8232         calculate D2E/DX2 analytically  !
 ! A6    A(3,2,6)              114.6253         calculate D2E/DX2 analytically  !
 ! D1    D(4,1,2,3)              0.0            calculate D2E/DX2 analytically  !
 ! D2    D(4,1,2,6)           -179.9946         calculate D2E/DX2 analytically  !
 ! D3    D(5,1,2,3)            179.9948         calculate D2E/DX2 analytically  !
 ! D4    D(5,1,2,6)              0.0001         calculate D2E/DX2 analytically  !
 --------------------------------------------------------------------------------
 Trust Radius=3.00D-01 FncErr=1.00D-07 GrdErr=1.00D-07
 Number of steps in this run=      2 maximum allowed number of steps=      2.
 GradGradGradGradGradGradGradGradGradGradGradGradGradGradGradGradGradGrad

                          Input orientation:                          
 ---------------------------------------------------------------------
 Center     Atomic      Atomic             Coordinates (Angstroms)
 Number     Number       Type             X           Y           Z
 ---------------------------------------------------------------------
      1          6           0       -0.626443    0.074948   -0.208856
      2          6           0        0.634884   -0.096085    0.171612
      3         17           0        1.831501   -0.915398   -0.755271
      4         17           0       -1.283347   -0.493033   -1.694838
      5          1           0       -1.330572    0.601564    0.423975
      6          1           0        0.984777    0.287604    1.122378
 ---------------------------------------------------------------------
                    Distance matrix (angstroms):
                    1          2          3          4          5
     1  C    0.000000
     2  C    1.328516   0.000000
     3  Cl   2.705706   1.721127   0.000000
     4  Cl   1.721124   2.705701   3.280771   0.000000
     5  H    1.083327   2.100815   3.700068   2.385318   0.000000
     6  H    2.100818   1.083327   2.385313   3.700066   2.438684
                    6
     6  H    0.000000
 Stoichiometry    C2H2Cl2
 Framework group  C1[X(C2H2Cl2)]
 Deg. of freedom    12
 Full point group                 C1      NOp   1
 Largest Abelian subgroup         C1      NOp   1
 Largest concise Abelian subgroup C1      NOp   1
                         Standard orientation:                         
 ---------------------------------------------------------------------
 Center     Atomic      Atomic             Coordinates (Angstroms)
 Number     Number       Type             X           Y           Z
 ---------------------------------------------------------------------
      1          6           0        0.664261    0.965335    0.000016
      2          6           0       -0.664256    0.965335    0.000016
      3         17           0       -1.640386   -0.452214   -0.000002
      4         17           0        1.640384   -0.452216   -0.000002
      5          1           0        1.219342    1.895648   -0.000057
      6          1           0       -1.219342    1.895645   -0.000059
 ---------------------------------------------------------------------
 Rotational constants (GHZ):     11.5684159      2.5046109      2.0588592
 Standard basis: 6-31+G(d) (6D, 7F)
 There are    88 symmetry adapted cartesian basis functions of A   symmetry.
 There are    88 symmetry adapted basis functions of A   symmetry.
    88 basis functions,   184 primitive gaussians,    88 cartesian basis functions
    24 alpha electrons       24 beta electrons
       nuclear repulsion energy       185.0809741012 Hartrees.
 NAtoms=    6 NActive=    6 NUniq=    6 SFac= 1.00D+00 NAtFMM=   60 NAOKFM=F Big=F
 Integral buffers will be    131072 words long.
 Raffenetti 2 integral format.
 Two-electron integral symmetry is turned on.
 One-electron integrals computed using PRISM.
 NBasis=    88 RedAO= T EigKep=  6.72D-05  NBF=    88
 NBsUse=    88 1.00D-06 EigRej= -1.00D+00 NBFU=    88
 Initial guess from the checkpoint file:  "/srv/scratch/z5358697/gauss/Gau-2169542.chk"
 B after Tr=     0.000000    0.000000    0.000000
         Rot=    1.000000    0.000000    0.000000    0.000000 Ang=   0.00 deg.
 Keep R1 ints in memory in canonical form, NReq=8623566.
 Requested convergence on RMS density matrix=1.00D-08 within 128 cycles.
 Requested convergence on MAX density matrix=1.00D-06.
 Requested convergence on             energy=1.00D-06.
 No special actions if energy rises.
 SCF Done:  E(RM062X) =  -997.679650938     A.U. after    1 cycles
            NFock=  1  Conv=0.21D-08     -V/T= 2.0031
 DoSCS=F DFT=T ScalE2(SS,OS)=  1.000000  1.000000
 Range of M.O.s used for correlation:     1    88
 NBasis=    88 NAE=    24 NBE=    24 NFC=     0 NFV=     0
 NROrb=     88 NOA=    24 NOB=    24 NVA=    64 NVB=    64

 **** Warning!!: The largest alpha MO coefficient is  0.53695951D+02

 Symmetrizing basis deriv contribution to polar:
 IMax=3 JMax=2 DiffMx= 0.00D+00
 G2DrvN: will do     7 centers at a time, making    1 passes.
 Calling FoFCou, ICntrl=  3107 FMM=F I1Cent=   0 AccDes= 0.00D+00.
 End of G2Drv F.D. properties file   721 does not exist.
 End of G2Drv F.D. properties file   722 does not exist.
 End of G2Drv F.D. properties file   788 does not exist.
          IDoAtm=111111
          Differentiating once with respect to electric field.
                with respect to dipole field.
          Differentiating once with respect to nuclear coordinates.
 Keep R1 ints in memory in canonical form, NReq=8581198.
          There are    21 degrees of freedom in the 1st order CPHF.  IDoFFX=6 NUNeed=     3.
     18 vectors produced by pass  0 Test12= 7.31D-15 4.76D-09 XBig12= 3.86D+01 4.66D+00.
 AX will form    18 AO Fock derivatives at one time.
     18 vectors produced by pass  1 Test12= 7.31D-15 4.76D-09 XBig12= 3.94D+00 5.63D-01.
     18 vectors produced by pass  2 Test12= 7.31D-15 4.76D-09 XBig12= 8.07D-02 6.52D-02.
     18 vectors produced by pass  3 Test12= 7.31D-15 4.76D-09 XBig12= 1.29D-03 7.87D-03.
     18 vectors produced by pass  4 Test12= 7.31D-15 4.76D-09 XBig12= 9.25D-06 7.67D-04.
     18 vectors produced by pass  5 Test12= 7.31D-15 4.76D-09 XBig12= 2.45D-08 3.24D-05.
     13 vectors produced by pass  6 Test12= 7.31D-15 4.76D-09 XBig12= 1.04D-10 2.06D-06.
      4 vectors produced by pass  7 Test12= 7.31D-15 4.76D-09 XBig12= 3.84D-13 1.51D-07.
      3 vectors produced by pass  8 Test12= 7.31D-15 4.76D-09 XBig12= 2.95D-15 1.54D-08.
 InvSVY:  IOpt=1 It=  1 EMax= 4.44D-15
 Solved reduced A of dimension   128 with    21 vectors.
 Isotropic polarizability for W=    0.000000       45.46 Bohr**3.
 End of Minotr F.D. properties file   721 does not exist.
 End of Minotr F.D. properties file   722 does not exist.
 End of Minotr F.D. properties file   788 does not exist.

 **********************************************************************

            Population analysis using the SCF density.

 **********************************************************************

 Orbital symmetries:
       Occupied  (A) (A) (A) (A) (A) (A) (A) (A) (A) (A) (A) (A)
                 (A) (A) (A) (A) (A) (A) (A) (A) (A) (A) (A) (A)
       Virtual   (A) (A) (A) (A) (A) (A) (A) (A) (A) (A) (A) (A)
                 (A) (A) (A) (A) (A) (A) (A) (A) (A) (A) (A) (A)
                 (A) (A) (A) (A) (A) (A) (A) (A) (A) (A) (A) (A)
                 (A) (A) (A) (A) (A) (A) (A) (A) (A) (A) (A) (A)
                 (A) (A) (A) (A) (A) (A) (A) (A) (A) (A) (A) (A)
                 (A) (A) (A) (A)
 The electronic state is 1-A.
 Alpha  occ. eigenvalues -- -102.68632-102.68632 -10.63221 -10.63107  -9.83319
 Alpha  occ. eigenvalues --   -9.83318  -7.55737  -7.55736  -7.55062  -7.55062
 Alpha  occ. eigenvalues --   -7.55020  -7.55020  -1.01294  -0.96292  -0.84041
 Alpha  occ. eigenvalues --   -0.66547  -0.59526  -0.53497  -0.47560  -0.47181
 Alpha  occ. eigenvalues --   -0.41522  -0.39598  -0.38390  -0.31787
 Alpha virt. eigenvalues --    0.01158   0.01840   0.02640   0.03990   0.04849
 Alpha virt. eigenvalues --    0.07031   0.07352   0.09329   0.10366   0.10763
 Alpha virt. eigenvalues --    0.11396   0.12297   0.12429   0.14692   0.15069
 Alpha virt. eigenvalues --    0.15739   0.17313   0.19252   0.22710   0.24183
 Alpha virt. eigenvalues --    0.33079   0.36180   0.53926   0.57922   0.62092
 Alpha virt. eigenvalues --    0.62133   0.62570   0.67155   0.68572   0.68763
 Alpha virt. eigenvalues --    0.69556   0.72046   0.72345   0.77051   0.85850
 Alpha virt. eigenvalues --    0.88945   0.90658   0.92220   0.92239   0.93282
 Alpha virt. eigenvalues --    0.94659   0.97782   1.00088   1.01218   1.04841
 Alpha virt. eigenvalues --    1.13633   1.16518   1.19458   1.23292   1.43047
 Alpha virt. eigenvalues --    1.46655   1.64187   1.91384   1.94993   2.00045
 Alpha virt. eigenvalues --    2.12518   2.32572   2.35723   2.67760   2.70045
 Alpha virt. eigenvalues --    4.11248   4.23973   4.41762   4.48938
          Condensed to atoms (all electrons):
               1          2          3          4          5          6
     1  C    5.313856   0.514274  -0.100508   0.229368   0.358106  -0.035951
     2  C    0.514274   5.313858   0.229369  -0.100509  -0.035951   0.358106
     3  Cl  -0.100508   0.229369  16.837279   0.040960   0.003217  -0.031770
     4  Cl   0.229368  -0.100509   0.040960  16.837278  -0.031770   0.003217
     5  H    0.358106  -0.035951   0.003217  -0.031770   0.449893  -0.001185
     6  H   -0.035951   0.358106  -0.031770   0.003217  -0.001185   0.449894
 Mulliken charges:
               1
     1  C   -0.279144
     2  C   -0.279146
     3  Cl   0.021454
     4  Cl   0.021455
     5  H    0.257690
     6  H    0.257690
 Sum of Mulliken charges =   0.00000
 Mulliken charges with hydrogens summed into heavy atoms:
               1
     1  C   -0.021454
     2  C   -0.021455
     3  Cl   0.021454
     4  Cl   0.021455
 APT charges:
               1
     1  C    0.180496
     2  C    0.180497
     3  Cl  -0.241895
     4  Cl  -0.241894
     5  H    0.061398
     6  H    0.061397
 Sum of APT charges =   0.00000
 APT charges with hydrogens summed into heavy atoms:
               1
     1  C    0.241894
     2  C    0.241895
     3  Cl  -0.241895
     4  Cl  -0.241894
 Electronic spatial extent (au):  <R**2>=            528.0596
 Charge=              0.0000 electrons
 Dipole moment (field-independent basis, Debye):
    X=              0.0000    Y=              2.0885    Z=             -0.0001  Tot=              2.0885
 Quadrupole moment (field-independent basis, Debye-Ang):
   XX=            -37.7348   YY=            -32.7249   ZZ=            -39.0128
   XY=              0.0000   XZ=              0.0000   YZ=             -0.0003
 Traceless Quadrupole moment (field-independent basis, Debye-Ang):
   XX=             -1.2440   YY=              3.7659   ZZ=             -2.5220
   XY=              0.0000   XZ=              0.0000   YZ=             -0.0003
 Octapole moment (field-independent basis, Debye-Ang**2):
  XXX=              0.0000  YYY=              2.0197  ZZZ=             -0.0002  XYY=              0.0000
  XXY=             -0.1918  XXZ=             -0.0004  XZZ=              0.0000  YZZ=             -2.5070
  YYZ=             -0.0007  XYZ=              0.0000
 Hexadecapole moment (field-independent basis, Debye-Ang**3):
 XXXX=           -493.2407 YYYY=           -139.8543 ZZZZ=            -45.4299 XXXY=              0.0000
 XXXZ=              0.0000 YYYX=              0.0000 YYYZ=             -0.0014 ZZZX=              0.0000
 ZZZY=             -0.0004 XXYY=            -91.0711 XXZZ=            -91.7159 YYZZ=            -36.8104
 XXYZ=             -0.0003 YYXZ=              0.0000 ZZXY=              0.0000
 N-N= 1.850809741012D+02 E-N=-2.736550244427D+03  KE= 9.945676876543D+02
  Exact polarizability:  62.363   0.000  45.921   0.000   0.000  28.104
 Approx polarizability:  71.119   0.000  55.196   0.000   0.000  32.284
 Calling FoFJK, ICntrl=    100127 FMM=F ISym2X=0 I1Cent= 0 IOpClX= 0 NMat=1 NMatS=1 NMatT=0.
 Full mass-weighted force constant matrix:
 Low frequencies ---  -21.2841  -18.8678    0.0057    0.0061    0.0065   34.1000
 Low frequencies ---  173.7207  416.2108  583.2926
 Diagonal vibrational polarizability:
        3.7554331       1.7293255       3.4880292
 Harmonic frequencies (cm**-1), IR intensities (KM/Mole), Raman scattering
 activities (A**4/AMU), depolarization ratios for plane and unpolarized
 incident light, reduced masses (AMU), force constants (mDyne/A),
 and normal coordinates:
                      1                      2                      3
                      A                      A                      A
 Frequencies --    173.7207               416.2101               583.2863
 Red. masses --     26.5472                 3.8317                 9.1036
 Frc consts  --      0.4720                 0.3911                 1.8248
 IR Inten    --      0.2672                 0.0000                 4.0638
  Atom  AN      X      Y      Z        X      Y      Z        X      Y      Z
     1   6    -0.01   0.28   0.00     0.00   0.00   0.34     0.44   0.23   0.00
     2   6     0.01   0.28   0.00     0.00   0.00  -0.34     0.44  -0.23   0.00
     3  17     0.58  -0.10   0.00     0.00   0.00   0.06    -0.16  -0.11   0.00
     4  17    -0.58  -0.10   0.00     0.00   0.00  -0.06    -0.16   0.11   0.00
     5   1     0.22   0.14   0.00     0.00   0.00   0.62     0.35   0.30   0.00
     6   1    -0.22   0.14   0.00     0.00   0.00  -0.62     0.35  -0.30   0.00
                      4                      5                      6
                      A                      A                      A
 Frequencies --    735.9342               744.6590               883.1052
 Red. masses --      1.2283                 8.9692                 4.2648
 Frc consts  --      0.3920                 2.9303                 1.9596
 IR Inten    --     70.1980                23.2968                86.4635
  Atom  AN      X      Y      Z        X      Y      Z        X      Y      Z
     1   6     0.00   0.00   0.10     0.06   0.48   0.00    -0.08   0.33   0.00
     2   6     0.00   0.00   0.10    -0.06   0.48   0.00    -0.08  -0.33   0.00
     3  17     0.00   0.00  -0.01    -0.12  -0.17   0.00     0.04   0.09   0.00
     4  17     0.00   0.00  -0.01     0.12  -0.17   0.00     0.04  -0.09   0.00
     5   1     0.00   0.00  -0.70     0.36   0.31   0.00    -0.35   0.50   0.00
     6   1     0.00   0.00  -0.70    -0.36   0.31   0.00    -0.35  -0.50   0.00
                      7                      8                      9
                      A                      A                      A
 Frequencies --    942.5799              1231.4088              1338.0956
 Red. masses --      1.2541                 1.0439                 1.2468
 Frc consts  --      0.6565                 0.9326                 1.3153
 IR Inten    --      0.0000                 0.0087                26.8932
  Atom  AN      X      Y      Z        X      Y      Z        X      Y      Z
     1   6     0.00   0.00  -0.11     0.03  -0.01   0.00     0.06  -0.08   0.00
     2   6     0.00   0.00   0.11    -0.03  -0.01   0.00     0.06   0.08   0.00
     3  17     0.00   0.00   0.00     0.00   0.01   0.00     0.00   0.00   0.00
     4  17     0.00   0.00   0.00     0.00   0.01   0.00     0.00   0.00   0.00
     5   1     0.00   0.00   0.70     0.61  -0.36   0.00    -0.62   0.33   0.00
     6   1     0.00   0.00  -0.70    -0.61  -0.36   0.00    -0.62  -0.33   0.00
                     10                     11                     12
                      A                      A                      A
 Frequencies --   1699.6625              3254.8566              3273.9998
 Red. masses --      7.6951                 1.0854                 1.1004
 Frc consts  --     13.0976                 6.7751                 6.9498
 IR Inten    --     38.5767                18.1829                 0.3569
  Atom  AN      X      Y      Z        X      Y      Z        X      Y      Z
     1   6     0.55  -0.07   0.00     0.03   0.05   0.00    -0.04  -0.05   0.00
     2   6    -0.55  -0.07   0.00     0.03  -0.05   0.00     0.04  -0.05   0.00
     3  17     0.01   0.01   0.00     0.00   0.00   0.00     0.00   0.00   0.00
     4  17    -0.01   0.01   0.00     0.00   0.00   0.00     0.00   0.00   0.00
     5   1    -0.10   0.43   0.00    -0.37  -0.60   0.00     0.37   0.60   0.00
     6   1     0.10   0.43   0.00    -0.37   0.60   0.00    -0.37   0.60   0.00

 -------------------
 - Thermochemistry -
 -------------------
 Temperature   298.150 Kelvin.  Pressure   1.00000 Atm.
 Atom     1 has atomic number  6 and mass  12.00000
 Atom     2 has atomic number  6 and mass  12.00000
 Atom     3 has atomic number 17 and mass  34.96885
 Atom     4 has atomic number 17 and mass  34.96885
 Atom     5 has atomic number  1 and mass   1.00783
 Atom     6 has atomic number  1 and mass   1.00783
 Molecular mass:    95.95336 amu.
 Principal axes and moments of inertia in atomic units:
                           1         2         3
     Eigenvalues --   156.00591 720.56749 876.57340
           X            1.00000   0.00000   0.00000
           Y            0.00000   1.00000  -0.00001
           Z            0.00000   0.00001   1.00000
 This molecule is an asymmetric top.
 Rotational symmetry number  1.
 Rotational temperatures (Kelvin)      0.55520     0.12020     0.09881
 Rotational constants (GHZ):          11.56842     2.50461     2.05886
 Zero-point vibrational energy      91379.9 (Joules/Mol)
                                   21.84031 (Kcal/Mol)
 Warning -- explicit consideration of   3 degrees of freedom as
           vibrations may cause significant error
 Vibrational temperatures:    249.95   598.83   839.22  1058.84  1071.40
          (Kelvin)           1270.59  1356.16  1771.72  1925.22  2445.43
                             4683.01  4710.55
 
 Zero-point correction=                           0.034805 (Hartree/Particle)
 Thermal correction to Energy=                    0.039029
 Thermal correction to Enthalpy=                  0.039973
 Thermal correction to Gibbs Free Energy=         0.006561
 Sum of electronic and zero-point Energies=           -997.644846
 Sum of electronic and thermal Energies=              -997.640622
 Sum of electronic and thermal Enthalpies=            -997.639678
 Sum of electronic and thermal Free Energies=         -997.673090
 
                     E (Thermal)             CV                S
                      KCal/Mol        Cal/Mol-Kelvin    Cal/Mol-Kelvin
 Total                   24.491             13.168             70.321
 Electronic               0.000              0.000              0.000
 Translational            0.889              2.981             39.595
 Rotational               0.889              2.981             26.091
 Vibrational             22.713              7.206              4.634
 Vibration     1          0.627              1.875              2.395
 Vibration     2          0.779              1.435              0.905
 Vibration     3          0.940              1.067              0.479
                       Q            Log10(Q)             Ln(Q)
 Total Bot       0.959478D-03         -3.017965         -6.949121
 Total V=0       0.979657D+13         12.991074         29.913053
 Vib (Bot)       0.231122D-15        -15.636159        -36.003586
 Vib (Bot)    1  0.115863D+01          0.063947          0.147243
 Vib (Bot)    2  0.423096D+00         -0.373561         -0.860157
 Vib (Bot)    3  0.260387D+00         -0.584380         -1.345585
 Vib (V=0)       0.235983D+01          0.372880          0.858588
 Vib (V=0)    1  0.176192D+01          0.245985          0.566403
 Vib (V=0)    2  0.115499D+01          0.062578          0.144090
 Vib (V=0)    3  0.106374D+01          0.026835          0.061790
 Electronic      0.100000D+01          0.000000          0.000000
 Translational   0.369441D+08          7.567545         17.424917
 Rotational      0.112369D+06          5.050648         11.629548
 ***** Axes restored to original set *****
 -------------------------------------------------------------------
 Center     Atomic                   Forces (Hartrees/Bohr)
 Number     Number              X              Y              Z
 -------------------------------------------------------------------
      1        6          -0.000312519   -0.000057790   -0.000280551
      2        6           0.000391150   -0.000153416   -0.000068446
      3       17          -0.000184301    0.000133711    0.000153571
      4       17           0.000096178    0.000095523    0.000237758
      5        1          -0.000000087   -0.000008458   -0.000022674
      6        1           0.000009579   -0.000009570   -0.000019658
 -------------------------------------------------------------------
 Cartesian Forces:  Max     0.000391150 RMS     0.000168725
 FormGI is forming the generalized inverse of G from B-inverse, IUseBI=4.

 GradGradGradGradGradGradGradGradGradGradGradGradGradGradGradGradGradGrad
 Berny optimization.
 Internal  Forces:  Max     0.000274492 RMS     0.000116665
 Search for a local minimum.
 Step number   1 out of a maximum of    2
 All quantities printed in internal units (Hartrees-Bohrs-Radians)
 Second derivative matrix not updated -- analytic derivatives used.
 The second derivative matrix:
                          R1        R2        R3        R4        R5
           R1           0.65094
           R2           0.02697   0.27538
           R3           0.00358   0.00534   0.37461
           R4           0.02697   0.00170  -0.00138   0.27538
           R5           0.00358  -0.00138   0.00043   0.00534   0.37461
           A1           0.02464   0.02637  -0.00763  -0.00760   0.00198
           A2           0.00159  -0.03790   0.00799   0.00772  -0.00113
           A3          -0.02623   0.01153  -0.00037  -0.00012  -0.00085
           A4           0.02464  -0.00760   0.00198   0.02637  -0.00763
           A5           0.00159   0.00772  -0.00113  -0.03790   0.00799
           A6          -0.02623  -0.00012  -0.00085   0.01153  -0.00037
           D1           0.00000   0.00000   0.00000   0.00000   0.00000
           D2           0.00000   0.00000   0.00000   0.00000   0.00000
           D3           0.00000   0.00000   0.00000   0.00000   0.00000
           D4           0.00000   0.00000   0.00000   0.00000   0.00000
                          A1        A2        A3        A4        A5
           A1           0.13210
           A2          -0.06271   0.09096
           A3          -0.06939  -0.02825   0.09765
           A4           0.01316  -0.00127  -0.01189   0.13210
           A5          -0.00127  -0.00183   0.00311  -0.06271   0.09096
           A6          -0.01189   0.00311   0.00879  -0.06939  -0.02825
           D1           0.00000   0.00000   0.00000   0.00000   0.00000
           D2           0.00000   0.00000   0.00000   0.00000   0.00000
           D3           0.00000   0.00000   0.00000   0.00000   0.00000
           D4           0.00000   0.00000   0.00000   0.00000   0.00000
                          A6        D1        D2        D3        D4
           A6           0.09765
           D1           0.00000   0.02938
           D2           0.00000   0.00897   0.03242
           D3           0.00000   0.00897  -0.01749   0.03242
           D4           0.00000  -0.01144   0.00597   0.00597   0.02338
 ITU=  0
     Eigenvalues ---    0.02803   0.03966   0.04991   0.11092   0.11241
     Eigenvalues ---    0.16435   0.21203   0.28332   0.29802   0.37516
     Eigenvalues ---    0.37543   0.66068
 Angle between quadratic step and forces=  19.06 degrees.
 Linear search not attempted -- first point.
 Iteration  1 RMS(Cart)=  0.00030942 RMS(Int)=  0.00000002
 Iteration  2 RMS(Cart)=  0.00000003 RMS(Int)=  0.00000000
 Variable       Old X    -DE/DX   Delta X   Delta X   Delta X     New X
                                 (Linear)    (Quad)   (Total)
    R1        2.51053   0.00023   0.00000   0.00044   0.00044   2.51097
    R2        3.25245  -0.00027   0.00000  -0.00105  -0.00105   3.25140
    R3        2.04719  -0.00002   0.00000  -0.00003  -0.00003   2.04716
    R4        3.25246  -0.00027   0.00000  -0.00106  -0.00106   3.25140
    R5        2.04719  -0.00002   0.00000  -0.00004  -0.00004   2.04716
    A1        2.17383   0.00001   0.00000   0.00009   0.00009   2.17392
    A2        2.10876   0.00001   0.00000  -0.00014  -0.00014   2.10861
    A3        2.00060  -0.00002   0.00000   0.00005   0.00005   2.00065
    A4        2.17383   0.00001   0.00000   0.00009   0.00009   2.17392
    A5        2.10876   0.00001   0.00000  -0.00015  -0.00015   2.10861
    A6        2.00059  -0.00002   0.00000   0.00006   0.00006   2.00065
    D1        0.00000   0.00000   0.00000   0.00000   0.00000   0.00000
    D2       -3.14150   0.00000   0.00000  -0.00010  -0.00010   3.14159
    D3        3.14150   0.00000   0.00000   0.00009   0.00009  -3.14159
    D4        0.00000   0.00000   0.00000   0.00000   0.00000   0.00000
         Item               Value     Threshold  Converged?
 Maximum Force            0.000274     0.000450     YES
 RMS     Force            0.000117     0.000300     YES
 Maximum Displacement     0.000581     0.001800     YES
 RMS     Displacement     0.000309     0.001200     YES
 Predicted change in Energy=-3.378298D-07
 Optimization completed.
    -- Stationary point found.
                           ----------------------------
                           !   Optimized Parameters   !
                           ! (Angstroms and Degrees)  !
 --------------------------                            --------------------------
 ! Name  Definition              Value          Derivative Info.                !
 --------------------------------------------------------------------------------
 ! R1    R(1,2)                  1.3285         -DE/DX =    0.0002              !
 ! R2    R(1,4)                  1.7211         -DE/DX =   -0.0003              !
 ! R3    R(1,5)                  1.0833         -DE/DX =    0.0                 !
 ! R4    R(2,3)                  1.7211         -DE/DX =   -0.0003              !
 ! R5    R(2,6)                  1.0833         -DE/DX =    0.0                 !
 ! A1    A(2,1,4)              124.5512         -DE/DX =    0.0                 !
 ! A2    A(2,1,5)              120.8229         -DE/DX =    0.0                 !
 ! A3    A(4,1,5)              114.6259         -DE/DX =    0.0                 !
 ! A4    A(1,2,3)              124.5515         -DE/DX =    0.0                 !
 ! A5    A(1,2,6)              120.8232         -DE/DX =    0.0                 !
 ! A6    A(3,2,6)              114.6253         -DE/DX =    0.0                 !
 ! D1    D(4,1,2,3)              0.0            -DE/DX =    0.0                 !
 ! D2    D(4,1,2,6)            180.0054         -DE/DX =    0.0                 !
 ! D3    D(5,1,2,3)           -180.0052         -DE/DX =    0.0                 !
 ! D4    D(5,1,2,6)              0.0001         -DE/DX =    0.0                 !
 --------------------------------------------------------------------------------
 GradGradGradGradGradGradGradGradGradGradGradGradGradGradGradGradGradGrad

 1\1\GINC-KATANA2\Freq\RM062X\6-31+G(d)\C2H2Cl2\Z5358697\14-Mar-2025\0\
 \#N Geom=AllCheck Guess=TCheck SCRF=Check GenChk RM062X/6-31+G(d) Freq
 \\(Z)-1,2-dichloroethylene\\0,1\C,-0.6264430903,0.0749483234,-0.208855
 7912\C,0.6348843644,-0.0960853208,0.171612342\Cl,1.8315007173,-0.91539
 8434,-0.7552709244\Cl,-1.2833470245,-0.493032679,-1.6948382558\H,-1.33
 05722979,0.6015642504,0.4239747805\H,0.9847773309,0.2876038601,1.12237
 78489\\Version=ES64L-G09RevD.01\State=1-A\HF=-997.6796509\RMSD=2.072e-
 09\RMSF=1.687e-04\ZeroPoint=0.0348047\Thermal=0.0390286\Dipole=-0.1564
 388,0.4020193,0.6993355\DipoleDeriv=0.0875805,0.1063617,0.3504124,0.25
 19414,-0.1006439,0.2644683,0.6356738,0.1818788,0.5545528,0.515274,-0.3
 26826,-0.255905,-0.4724035,0.0484508,0.1456855,-0.5411641,0.2282822,-0
 .0222329,-0.4403621,0.1615109,0.0823713,0.2783247,-0.148727,-0.079442,
 0.3112969,-0.1457122,-0.136597,-0.2176233,-0.0230631,-0.1530098,-0.139
 8734,-0.0710869,-0.1645605,-0.3819352,-0.0982766,-0.4369705,0.0419054,
 0.0309814,-0.0234471,0.012196,0.1410061,-0.0896179,-0.0602224,-0.07897
 63,0.0012818,0.0132254,0.0510351,-0.0004218,0.0698147,0.131001,-0.0765
 334,0.0363509,-0.087196,0.0399658\Polar=59.6310243,-5.8470648,32.93811
 69,6.4282421,6.156715,43.8195807\PG=C01 [X(C2H2Cl2)]\NImag=0\\0.807445
 96,-0.17144299,0.22237596,0.06864759,0.15402059,0.43504959,-0.52553470
 ,0.06893562,-0.13472961,0.74863784,0.06634885,-0.06723434,0.00377688,-
 0.09191453,0.20188845,-0.13981002,0.00524601,-0.11900850,0.19121722,0.
 15898194,0.51434182,-0.03104454,0.02427881,0.02646005,-0.11724512,0.05
 828326,0.06084477,0.15422024,0.01367431,-0.00368071,-0.01158549,0.0586
 2066,-0.06687098,-0.05244286,-0.08567995,0.07049542,0.00567548,-0.0055
 6866,-0.00150394,0.06150336,-0.05263180,-0.09141343,-0.08644870,0.0687
 6715,0.09634501,-0.06215698,-0.01591743,-0.05333295,-0.01181200,-0.012
 34710,-0.03441536,-0.00090403,-0.00207349,-0.00220827,0.07196664,-0.01
 625373,-0.04767006,-0.05729381,-0.00174274,0.00302260,-0.00719482,-0.0
 0042582,-0.00193478,0.00415127,0.02561084,0.04182664,-0.05399117,-0.05
 710099,-0.16570642,-0.01363082,-0.01321215,-0.02744013,0.00102284,0.00
 321614,0.00270755,0.08501372,0.07572394,0.20727121,-0.18457326,0.10326
 813,0.11658214,-0.01235781,0.01343469,0.01592593,-0.00258689,0.0021208
 4,-0.00162860,0.00608843,-0.00881014,-0.01546846,0.19373288,0.10536143
 ,-0.11033765,-0.09132628,0.00200053,0.00368159,-0.00338555,0.00081639,
 0.00630922,-0.00208862,0.00180098,-0.00134618,-0.00732900,-0.10872329,
 0.10569881,0.12068910,-0.09251684,-0.14613270,-0.00649020,0.00310345,0
 .00838836,-0.00418677,-0.00134791,0.00259241,0.00533076,-0.01334861,-0
 .02022725,-0.11588867,0.10171036,0.15596893,-0.00413648,-0.00912215,-0
 .02362721,-0.08168820,-0.03380517,-0.09376255,-0.00243966,0.01333763,0
 .02310673,-0.00318206,0.00162159,-0.00294612,-0.00030334,-0.00125603,0
 .00054577,0.09174975,0.00231214,0.00654680,0.00240811,-0.03589954,-0.0
 7448732,-0.10120471,0.00272731,-0.00431817,-0.01262934,0.00292621,0.00
 610178,-0.00129794,-0.00129024,-0.00400577,0.00239954,0.02922412,0.070
 16269,-0.00121098,-0.00408011,-0.00269803,-0.09786996,-0.10001831,-0.2
 8486812,0.00230780,-0.00660703,-0.00872760,-0.00038790,-0.00203797,0.0
 0339504,0.00047766,0.00241909,-0.00058974,0.09668337,0.11032433,0.2934
 8845\\0.00031252,0.00005779,0.00028055,-0.00039115,0.00015342,0.000068
 45,0.00018430,-0.00013371,-0.00015357,-0.00009618,-0.00009552,-0.00023
 776,0.00000009,0.00000846,0.00002267,-0.00000958,0.00000957,0.00001966
 \\\@


    UPON JULIA'S CLOTHES

 WHENAS IN SILKS MY JULIA GOES,
 THEN, THEN, METHINKS, HOW SWEETLY FLOWS
 THAT LIQUEFACTION OF HER CLOTHES.

 NEXT, WHEN I CAST MINE EYES, AND SEE
 THAT BRAVE VIBRATION, EACH WAY FREE,
 O, HOW THAT GLITTERING TAKETH ME!
     -- ROBERT HERRICK, 1648
 Job cpu time:       0 days  0 hours  0 minutes 26.0 seconds.
 File lengths (MBytes):  RWF=    132 Int=      0 D2E=      0 Chk=      2 Scr=      2
 Normal termination of Gaussian 09 at Fri Mar 14 14:04:40 2025.
