 Entering Gaussian System, Link 0=g09
 Initial command:
 /apps/z_install_tree/linux-rocky8-ivybridge/gcc-12.2.0/gaussian-09-D.01-wczn3gur5lpur3omlkzwa2l5ecyxp5ef/g09/l1.exe "/srv/scratch/z5358697/gauss/Gau-2107693.inp" -scrdir="/srv/scratch/z5358697/gauss/"
 Entering Link 1 = /apps/z_install_tree/linux-rocky8-ivybridge/gcc-12.2.0/gaussian-09-D.01-wczn3gur5lpur3omlkzwa2l5ecyxp5ef/g09/l1.exe PID=   2107707.
  
 Copyright (c) 1988,1990,1992,1993,1995,1998,2003,2009,2013,
            Gaussian, Inc.  All Rights Reserved.
  
 This is part of the Gaussian(R) 09 program.  It is based on
 the Gaussian(R) 03 system (copyright 2003, Gaussian, Inc.),
 the Gaussian(R) 98 system (copyright 1998, Gaussian, Inc.),
 the Gaussian(R) 94 system (copyright 1995, Gaussian, Inc.),
 the Gaussian 92(TM) system (copyright 1992, Gaussian, Inc.),
 the Gaussian 90(TM) system (copyright 1990, Gaussian, Inc.),
 the Gaussian 88(TM) system (copyright 1988, Gaussian, Inc.),
 the Gaussian 86(TM) system (copyright 1986, Carnegie Mellon
 University), and the Gaussian 82(TM) system (copyright 1983,
 Carnegie Mellon University). Gaussian is a federally registered
 trademark of Gaussian, Inc.
  
 This software contains proprietary and confidential information,
 including trade secrets, belonging to Gaussian, Inc.
  
 This software is provided under written license and may be
 used, copied, transmitted, or stored only in accord with that
 written license.
  
 The following legend is applicable only to US Government
 contracts under FAR:
  
                    RESTRICTED RIGHTS LEGEND
  
 Use, reproduction and disclosure by the US Government is
 subject to restrictions as set forth in subparagraphs (a)
 and (c) of the Commercial Computer Software - Restricted
 Rights clause in FAR 52.227-19.
  
 Gaussian, Inc.
 340 Quinnipiac St., Bldg. 40, Wallingford CT 06492
  
  
 ---------------------------------------------------------------
 Warning -- This program may not be used in any manner that
 competes with the business of Gaussian, Inc. or will provide
 assistance to any competitor of Gaussian, Inc.  The licensee
 of this program is prohibited from giving any competitor of
 Gaussian, Inc. access to this program.  By using this program,
 the user acknowledges that Gaussian, Inc. is engaged in the
 business of creating and licensing software in the field of
 computational chemistry and represents and warrants to the
 licensee that it is not a competitor of Gaussian, Inc. and that
 it will not use this program in any manner prohibited above.
 ---------------------------------------------------------------
  

 Cite this work as:
 Gaussian 09, Revision D.01,
 M. J. Frisch, G. W. Trucks, H. B. Schlegel, G. E. Scuseria, 
 M. A. Robb, J. R. Cheeseman, G. Scalmani, V. Barone, B. Mennucci, 
 G. A. Petersson, H. Nakatsuji, M. Caricato, X. Li, H. P. Hratchian, 
 A. F. Izmaylov, J. Bloino, G. Zheng, J. L. Sonnenberg, M. Hada, 
 M. Ehara, K. Toyota, R. Fukuda, J. Hasegawa, M. Ishida, T. Nakajima, 
 Y. Honda, O. Kitao, H. Nakai, T. Vreven, J. A. Montgomery, Jr., 
 J. E. Peralta, F. Ogliaro, M. Bearpark, J. J. Heyd, E. Brothers, 
 K. N. Kudin, V. N. Staroverov, T. Keith, R. Kobayashi, J. Normand, 
 K. Raghavachari, A. Rendell, J. C. Burant, S. S. Iyengar, J. Tomasi, 
 M. Cossi, N. Rega, J. M. Millam, M. Klene, J. E. Knox, J. B. Cross, 
 V. Bakken, C. Adamo, J. Jaramillo, R. Gomperts, R. E. Stratmann, 
 O. Yazyev, A. J. Austin, R. Cammi, C. Pomelli, J. W. Ochterski, 
 R. L. Martin, K. Morokuma, V. G. Zakrzewski, G. A. Voth, 
 P. Salvador, J. J. Dannenberg, S. Dapprich, A. D. Daniels, 
 O. Farkas, J. B. Foresman, J. V. Ortiz, J. Cioslowski, 
 and D. J. Fox, Gaussian, Inc., Wallingford CT, 2013.
 
 ******************************************
 Gaussian 09:  ES64L-G09RevD.01 24-Apr-2013
                17-Mar-2025 
 ******************************************
 ---------------------------------
 #m062X/6-31+G(d) OPT Freq=noraman
 ---------------------------------
 1/14=-1,18=20,19=15,26=3,38=1/1,3;
 2/9=110,12=2,17=6,18=5,40=1/2;
 3/5=1,6=6,7=11,11=2,16=1,25=1,30=1,71=1,74=-55/1,2,3;
 4//1;
 5/5=2,38=5/2;
 6/7=2,8=2,9=2,10=2,28=1/1;
 7//1,2,3,16;
 1/14=-1,18=20,19=15,26=3/3(2);
 2/9=110/2;
 99//99;
 2/9=110/2;
 3/5=1,6=6,7=11,11=2,16=1,25=1,30=1,71=1,74=-55/1,2,3;
 4/5=5,16=3,69=1/1;
 5/5=2,38=5/2;
 7//1,2,3,16;
 1/14=-1,18=20,19=15,26=3/3(-5);
 2/9=110/2;
 6/7=2,8=2,9=2,10=2,19=2,28=1/1;
 99/9=1/99;
 ---------
 isobutane
 ---------
 Symbolic Z-matrix:
 Charge =  0 Multiplicity = 1
 C                     0.6623   -0.3793   -0.7853 
 C                     0.1007   -0.0597   -2.1688 
 C                    -0.069     1.4478   -2.3443 
 C                     1.005    -0.6288   -3.2598 
 H                     0.7892   -1.4585   -0.6459 
 H                     1.6377    0.0974   -0.6422 
 H                    -0.0072   -0.0129    0. 
 H                    -0.8858   -0.5306   -2.258 
 H                    -0.4716    1.691    -3.3337 
 H                     0.8911    1.9625   -2.2337 
 H                    -0.7541    1.8517   -1.5914 
 H                     0.6134   -0.4064   -4.2584 
 H                     1.0919   -1.7163   -3.1645 
 H                     2.0126   -0.2053   -3.1894 
 

 GradGradGradGradGradGradGradGradGradGradGradGradGradGradGradGradGradGrad
 Berny optimization.
 Initialization pass.
                           ----------------------------
                           !    Initial Parameters    !
                           ! (Angstroms and Degrees)  !
 --------------------------                            --------------------------
 ! Name  Definition              Value          Derivative Info.                !
 --------------------------------------------------------------------------------
 ! R1    R(1,2)                  1.527          estimate D2E/DX2                !
 ! R2    R(1,5)                  1.0955         estimate D2E/DX2                !
 ! R3    R(1,6)                  1.095          estimate D2E/DX2                !
 ! R4    R(1,7)                  1.0951         estimate D2E/DX2                !
 ! R5    R(2,3)                  1.5271         estimate D2E/DX2                !
 ! R6    R(2,4)                  1.5271         estimate D2E/DX2                !
 ! R7    R(2,8)                  1.0968         estimate D2E/DX2                !
 ! R8    R(3,9)                  1.0955         estimate D2E/DX2                !
 ! R9    R(3,10)                 1.095          estimate D2E/DX2                !
 ! R10   R(3,11)                 1.0952         estimate D2E/DX2                !
 ! R11   R(4,12)                 1.0955         estimate D2E/DX2                !
 ! R12   R(4,13)                 1.0951         estimate D2E/DX2                !
 ! R13   R(4,14)                 1.0952         estimate D2E/DX2                !
 ! A1    A(2,1,5)              111.3506         estimate D2E/DX2                !
 ! A2    A(2,1,6)              110.7867         estimate D2E/DX2                !
 ! A3    A(2,1,7)              110.7848         estimate D2E/DX2                !
 ! A4    A(5,1,6)              108.0005         estimate D2E/DX2                !
 ! A5    A(5,1,7)              108.0092         estimate D2E/DX2                !
 ! A6    A(6,1,7)              107.7707         estimate D2E/DX2                !
 ! A7    A(1,2,3)              110.5856         estimate D2E/DX2                !
 ! A8    A(1,2,4)              110.5803         estimate D2E/DX2                !
 ! A9    A(1,2,8)              108.3389         estimate D2E/DX2                !
 ! A10   A(3,2,4)              110.5843         estimate D2E/DX2                !
 ! A11   A(3,2,8)              108.3328         estimate D2E/DX2                !
 ! A12   A(4,2,8)              108.3326         estimate D2E/DX2                !
 ! A13   A(2,3,9)              111.3318         estimate D2E/DX2                !
 ! A14   A(2,3,10)             110.7918         estimate D2E/DX2                !
 ! A15   A(2,3,11)             110.7673         estimate D2E/DX2                !
 ! A16   A(9,3,10)             108.0055         estimate D2E/DX2                !
 ! A17   A(9,3,11)             108.0063         estimate D2E/DX2                !
 ! A18   A(10,3,11)            107.8016         estimate D2E/DX2                !
 ! A19   A(2,4,12)             111.3414         estimate D2E/DX2                !
 ! A20   A(2,4,13)             110.7874         estimate D2E/DX2                !
 ! A21   A(2,4,14)             110.7792         estimate D2E/DX2                !
 ! A22   A(12,4,13)            108.0173         estimate D2E/DX2                !
 ! A23   A(12,4,14)            107.9968         estimate D2E/DX2                !
 ! A24   A(13,4,14)            107.7813         estimate D2E/DX2                !
 ! D1    D(5,1,2,3)           -179.9979         estimate D2E/DX2                !
 ! D2    D(5,1,2,4)            -57.1647         estimate D2E/DX2                !
 ! D3    D(5,1,2,8)             61.417          estimate D2E/DX2                !
 ! D4    D(6,1,2,3)            -59.7804         estimate D2E/DX2                !
 ! D5    D(6,1,2,4)             63.0528         estimate D2E/DX2                !
 ! D6    D(6,1,2,8)           -178.3655         estimate D2E/DX2                !
 ! D7    D(7,1,2,3)             59.775          estimate D2E/DX2                !
 ! D8    D(7,1,2,4)           -177.3918         estimate D2E/DX2                !
 ! D9    D(7,1,2,8)            -58.8101         estimate D2E/DX2                !
 ! D10   D(1,2,3,9)            179.9996         estimate D2E/DX2                !
 ! D11   D(1,2,3,10)            59.7849         estimate D2E/DX2                !
 ! D12   D(1,2,3,11)           -59.8011         estimate D2E/DX2                !
 ! D13   D(4,2,3,9)             57.1688         estimate D2E/DX2                !
 ! D14   D(4,2,3,10)           -63.0459         estimate D2E/DX2                !
 ! D15   D(4,2,3,11)           177.3681         estimate D2E/DX2                !
 ! D16   D(8,2,3,9)            -61.4115         estimate D2E/DX2                !
 ! D17   D(8,2,3,10)           178.3738         estimate D2E/DX2                !
 ! D18   D(8,2,3,11)            58.7878         estimate D2E/DX2                !
 ! D19   D(1,2,4,12)          -179.9951         estimate D2E/DX2                !
 ! D20   D(1,2,4,13)            59.7719         estimate D2E/DX2                !
 ! D21   D(1,2,4,14)           -59.7936         estimate D2E/DX2                !
 ! D22   D(3,2,4,12)           -57.1612         estimate D2E/DX2                !
 ! D23   D(3,2,4,13)          -177.3942         estimate D2E/DX2                !
 ! D24   D(3,2,4,14)            63.0403         estimate D2E/DX2                !
 ! D25   D(8,2,4,12)            61.4192         estimate D2E/DX2                !
 ! D26   D(8,2,4,13)           -58.8137         estimate D2E/DX2                !
 ! D27   D(8,2,4,14)          -178.3792         estimate D2E/DX2                !
 --------------------------------------------------------------------------------
 Trust Radius=3.00D-01 FncErr=1.00D-07 GrdErr=1.00D-06
 Number of steps in this run=     74 maximum allowed number of steps=    100.
 GradGradGradGradGradGradGradGradGradGradGradGradGradGradGradGradGradGrad

                          Input orientation:                          
 ---------------------------------------------------------------------
 Center     Atomic      Atomic             Coordinates (Angstroms)
 Number     Number       Type             X           Y           Z
 ---------------------------------------------------------------------
      1          6           0        0.662300   -0.379300   -0.785300
      2          6           0        0.100700   -0.059700   -2.168800
      3          6           0       -0.069000    1.447800   -2.344300
      4          6           0        1.005000   -0.628800   -3.259800
      5          1           0        0.789200   -1.458500   -0.645900
      6          1           0        1.637700    0.097400   -0.642200
      7          1           0       -0.007200   -0.012900    0.000000
      8          1           0       -0.885800   -0.530600   -2.258000
      9          1           0       -0.471600    1.691000   -3.333700
     10          1           0        0.891100    1.962500   -2.233700
     11          1           0       -0.754100    1.851700   -1.591400
     12          1           0        0.613400   -0.406400   -4.258400
     13          1           0        1.091900   -1.716300   -3.164500
     14          1           0        2.012600   -0.205300   -3.189400
 ---------------------------------------------------------------------
                    Distance matrix (angstroms):
                    1          2          3          4          5
     1  C    0.000000
     2  C    1.526961   0.000000
     3  C    2.510692   1.527139   0.000000
     4  C    2.510547   1.527061   2.510754   0.000000
     5  H    1.095540   2.179426   3.473852   2.750899   0.000000
     6  H    1.095046   2.171994   2.762888   2.789176   1.772228
     7  H    1.095069   2.171987   2.762826   3.468455   1.772343
     8  H    2.142044   1.096761   2.142120   2.142048   2.503096
     9  H    3.473646   2.179328   1.095511   2.750869   4.328191
    10  H    2.763013   2.172150   1.094961   2.789389   3.772895
    11  H    2.762851   2.171986   1.095151   3.468555   3.772687
    12  H    3.473550   2.179333   2.750910   1.095452   3.766693
    13  H    2.762737   2.172146   3.468710   1.095121   2.549791
    14  H    2.762840   2.172138   2.789264   1.095247   3.088140
                    6          7          8          9         10
     6  H    0.000000
     7  H    1.769261   0.000000
     8  H    3.061576   2.477603   0.000000
     9  H    3.772649   3.772598   2.502838   0.000000
    10  H    2.562983   3.114252   3.061619   1.772192   0.000000
    11  H    3.114363   2.562644   2.477308   1.772354   1.769607
    12  H    3.792085   4.321337   2.502924   2.536017   3.128612
    13  H    3.154267   3.758145   2.477685   3.752713   3.800037
    14  H    2.592374   3.780064   3.061707   3.128582   2.621160
                   11         12         13         14
    11  H    0.000000
    12  H    3.752594   0.000000
    13  H    4.314277   1.772404   0.000000
    14  H    3.799932   1.772276   1.769585   0.000000
 Stoichiometry    C4H10
 Framework group  C1[X(C4H10)]
 Deg. of freedom    36
 Full point group                 C1      NOp   1
 Largest Abelian subgroup         C1      NOp   1
 Largest concise Abelian subgroup C1      NOp   1
                         Standard orientation:                         
 ---------------------------------------------------------------------
 Center     Atomic      Atomic             Coordinates (Angstroms)
 Number     Number       Type             X           Y           Z
 ---------------------------------------------------------------------
      1          6           0        0.246687    1.427874    0.097950
      2          6           0       -0.000341   -0.000411   -0.382250
      3          6           0        1.113153   -0.928567    0.098178
      4          6           0       -1.360843   -0.500517    0.098210
      5          1           0       -0.545527    2.104924   -0.239995
      6          1           0        0.283512    1.469284    1.191593
      7          1           0        1.200961    1.806405   -0.283168
      8          1           0       -0.000398   -0.000584   -1.479012
      9          1           0        0.947915   -1.957448   -0.239825
     10          1           0        1.167996   -0.936245    1.191738
     11          1           0        2.085242   -0.598838   -0.283499
     12          1           0       -1.550975   -1.525097   -0.239577
     13          1           0       -2.165878    0.136661   -0.282858
     14          1           0       -1.414784   -0.489337    1.192071
 ---------------------------------------------------------------------
 Rotational constants (GHZ):      7.8390008      7.8353793      4.5550892
 Standard basis: 6-31+G(d) (6D, 7F)
 There are    96 symmetry adapted cartesian basis functions of A   symmetry.
 There are    96 symmetry adapted basis functions of A   symmetry.
    96 basis functions,   168 primitive gaussians,    96 cartesian basis functions
    17 alpha electrons       17 beta electrons
       nuclear repulsion energy       134.8082750720 Hartrees.
 NAtoms=   14 NActive=   14 NUniq=   14 SFac= 1.00D+00 NAtFMM=   60 NAOKFM=F Big=F
 Integral buffers will be    131072 words long.
 Raffenetti 2 integral format.
 Two-electron integral symmetry is turned on.
 One-electron integrals computed using PRISM.
 NBasis=    96 RedAO= T EigKep=  9.98D-05  NBF=    96
 NBsUse=    96 1.00D-06 EigRej= -1.00D+00 NBFU=    96
 ExpMin= 4.38D-02 ExpMax= 3.05D+03 ExpMxC= 4.57D+02 IAcc=2 IRadAn=         4 AccDes= 0.00D+00
 Harris functional with IExCor= 1009 and IRadAn=       4 diagonalized for initial guess.
 HarFok:  IExCor= 1009 AccDes= 0.00D+00 IRadAn=         4 IDoV= 1 UseB2=F ITyADJ=14
 ICtDFT=  3500011 ScaDFX=  1.000000  1.000000  1.000000  1.000000
 FoFCou: FMM=F IPFlag=           0 FMFlag=      100000 FMFlg1=           0
         NFxFlg=           0 DoJE=T BraDBF=F KetDBF=T FulRan=T
         wScrn=  0.000000 ICntrl=     500 IOpCl=  0 I1Cent=   200000004 NGrid=           0
         NMat0=    1 NMatS0=      1 NMatT0=    0 NMatD0=    1 NMtDS0=    0 NMtDT0=    0
 Petite list used in FoFCou.
 Keep R1 ints in memory in canonical form, NReq=11808970.
 Requested convergence on RMS density matrix=1.00D-08 within 128 cycles.
 Requested convergence on MAX density matrix=1.00D-06.
 Requested convergence on             energy=1.00D-06.
 No special actions if energy rises.
 SCF Done:  E(RM062X) =  -158.363306462     A.U. after   11 cycles
            NFock= 11  Conv=0.18D-08     -V/T= 2.0093

 **********************************************************************

            Population analysis using the SCF density.

 **********************************************************************

 Orbital symmetries:
       Occupied  (A) (A) (A) (A) (A) (A) (A) (A) (A) (A) (A) (A)
                 (A) (A) (A) (A) (A)
       Virtual   (A) (A) (A) (A) (A) (A) (A) (A) (A) (A) (A) (A)
                 (A) (A) (A) (A) (A) (A) (A) (A) (A) (A) (A) (A)
                 (A) (A) (A) (A) (A) (A) (A) (A) (A) (A) (A) (A)
                 (A) (A) (A) (A) (A) (A) (A) (A) (A) (A) (A) (A)
                 (A) (A) (A) (A) (A) (A) (A) (A) (A) (A) (A) (A)
                 (A) (A) (A) (A) (A) (A) (A) (A) (A) (A) (A) (A)
                 (A) (A) (A) (A) (A) (A) (A)
 The electronic state is 1-A.
 Alpha  occ. eigenvalues --  -10.54715 -10.53149 -10.53133 -10.53118  -0.90423
 Alpha  occ. eigenvalues --   -0.77256  -0.77249  -0.63991  -0.53478  -0.49869
 Alpha  occ. eigenvalues --   -0.49857  -0.44789  -0.44718  -0.42451  -0.38460
 Alpha  occ. eigenvalues --   -0.38350  -0.38236
 Alpha virt. eigenvalues --    0.02757   0.04414   0.04426   0.05006   0.07506
 Alpha virt. eigenvalues --    0.07995   0.08009   0.08743   0.08765   0.11627
 Alpha virt. eigenvalues --    0.12279   0.13064   0.13085   0.15041   0.15056
 Alpha virt. eigenvalues --    0.18833   0.23253   0.25016   0.25179   0.28144
 Alpha virt. eigenvalues --    0.28235   0.30049   0.31949   0.32096   0.32491
 Alpha virt. eigenvalues --    0.35265   0.36748   0.36757   0.48764   0.66116
 Alpha virt. eigenvalues --    0.66230   0.66417   0.69049   0.69073   0.75627
 Alpha virt. eigenvalues --    0.77609   0.80982   0.81028   0.85164   0.85401
 Alpha virt. eigenvalues --    0.92491   1.02898   1.03186   1.05087   1.05286
 Alpha virt. eigenvalues --    1.06770   1.06877   1.11896   1.15067   1.19823
 Alpha virt. eigenvalues --    1.19838   1.20749   1.47791   1.48088   1.50389
 Alpha virt. eigenvalues --    1.50856   1.71230   1.78740   1.86335   1.86516
 Alpha virt. eigenvalues --    2.00493   2.00805   2.06721   2.16216   2.17015
 Alpha virt. eigenvalues --    2.21738   2.30991   2.31972   2.32088   2.34630
 Alpha virt. eigenvalues --    2.56323   2.56838   2.57116   2.75331   2.75445
 Alpha virt. eigenvalues --    4.24594   4.35955   4.35980   4.60902
          Condensed to atoms (all electrons):
               1          2          3          4          5          6
     1  C    5.552400   0.244020  -0.171195  -0.169884   0.396735   0.394362
     2  C    0.244020   5.590377   0.245552   0.247075  -0.056109  -0.009204
     3  C   -0.171195   0.245552   5.551851  -0.168861   0.019922  -0.022686
     4  C   -0.169884   0.247075  -0.168861   5.551221  -0.012609  -0.023872
     5  H    0.396735  -0.056109   0.019922  -0.012609   0.501377  -0.029149
     6  H    0.394362  -0.009204  -0.022686  -0.023872  -0.029149   0.497807
     7  H    0.397018  -0.055118  -0.014109   0.020034  -0.023957  -0.029437
     8  H   -0.053122   0.431802  -0.053938  -0.054793  -0.003495   0.004389
     9  H    0.020244  -0.056430   0.397231  -0.013266  -0.000125  -0.000035
    10  H   -0.023261  -0.008375   0.393643  -0.023155  -0.000035   0.002990
    11  H   -0.013782  -0.055561   0.397164   0.019973   0.000016  -0.000289
    12  H    0.020150  -0.056948  -0.012908   0.397446   0.000035  -0.000048
    13  H   -0.014396  -0.055837   0.020257   0.397634   0.002527  -0.000226
    14  H   -0.022544  -0.007491  -0.023761   0.392854  -0.000329   0.002825
               7          8          9         10         11         12
     1  C    0.397018  -0.053122   0.020244  -0.023261  -0.013782   0.020150
     2  C   -0.055118   0.431802  -0.056430  -0.008375  -0.055561  -0.056948
     3  C   -0.014109  -0.053938   0.397231   0.393643   0.397164  -0.012908
     4  C    0.020034  -0.054793  -0.013266  -0.023155   0.019973   0.397446
     5  H   -0.023957  -0.003495  -0.000125  -0.000035   0.000016   0.000035
     6  H   -0.029437   0.004389  -0.000035   0.002990  -0.000289  -0.000048
     7  H    0.501522  -0.003942   0.000017  -0.000283   0.002472  -0.000128
     8  H   -0.003942   0.536581  -0.003458   0.004391  -0.003988  -0.003500
     9  H    0.000017  -0.003458   0.501536  -0.029128  -0.023928   0.002590
    10  H   -0.000283   0.004391  -0.029128   0.497709  -0.029494  -0.000264
    11  H    0.002472  -0.003988  -0.023928  -0.029494   0.501900   0.000036
    12  H   -0.000128  -0.003500   0.002590  -0.000264   0.000036   0.501916
    13  H    0.000017  -0.003948   0.000037  -0.000049  -0.000131  -0.023887
    14  H   -0.000036   0.004395  -0.000259   0.002677  -0.000049  -0.029224
              13         14
     1  C   -0.014396  -0.022544
     2  C   -0.055837  -0.007491
     3  C    0.020257  -0.023761
     4  C    0.397634   0.392854
     5  H    0.002527  -0.000329
     6  H   -0.000226   0.002825
     7  H    0.000017  -0.000036
     8  H   -0.003948   0.004395
     9  H    0.000037  -0.000259
    10  H   -0.000049   0.002677
    11  H   -0.000131  -0.000049
    12  H   -0.023887  -0.029224
    13  H    0.502041  -0.029482
    14  H   -0.029482   0.497735
 Mulliken charges:
               1
     1  C   -0.556745
     2  C   -0.397753
     3  C   -0.558163
     4  C   -0.559797
     5  H    0.205197
     6  H    0.212571
     7  H    0.205929
     8  H    0.202627
     9  H    0.204972
    10  H    0.212633
    11  H    0.205663
    12  H    0.204734
    13  H    0.205442
    14  H    0.212689
 Sum of Mulliken charges =   0.00000
 Mulliken charges with hydrogens summed into heavy atoms:
               1
     1  C    0.066952
     2  C   -0.195126
     3  C    0.065106
     4  C    0.063068
 Electronic spatial extent (au):  <R**2>=            353.1831
 Charge=              0.0000 electrons
 Dipole moment (field-independent basis, Debye):
    X=              0.0040    Y=              0.0044    Z=             -0.1342  Tot=              0.1344
 Quadrupole moment (field-independent basis, Debye-Ang):
   XX=            -29.2803   YY=            -29.2359   ZZ=            -28.5956
   XY=             -0.0036   XZ=              0.0018   YZ=              0.0021
 Traceless Quadrupole moment (field-independent basis, Debye-Ang):
   XX=             -0.2431   YY=             -0.1986   ZZ=              0.4417
   XY=             -0.0036   XZ=              0.0018   YZ=              0.0021
 Octapole moment (field-independent basis, Debye-Ang**2):
  XXX=              0.9060  YYY=             -1.7315  ZZZ=              0.7533  XYY=             -0.9697
  XXY=              1.6567  XXZ=             -1.4078  XZZ=              0.0564  YZZ=              0.0644
  YYZ=             -1.3760  XYZ=             -0.0023
 Hexadecapole moment (field-independent basis, Debye-Ang**3):
 XXXX=           -220.0912 YYYY=           -219.1583 ZZZZ=            -67.6422 XXXY=             -0.0399
 XXXZ=             -0.5353 YYYX=             -0.0266 YYYZ=              0.8552 ZZZX=              0.0473
 ZZZY=              0.0534 XXYY=            -73.2124 XXZZ=            -48.8099 YYZZ=            -49.0525
 XXYZ=             -0.9264 YYXZ=              0.4761 ZZXY=              0.0241
 N-N= 1.348082750720D+02 E-N=-6.347460237026D+02  KE= 1.569035880653D+02
 Calling FoFJK, ICntrl=      2127 FMM=F ISym2X=0 I1Cent= 0 IOpClX= 0 NMat=1 NMatS=1 NMatT=0.
 ***** Axes restored to original set *****
 -------------------------------------------------------------------
 Center     Atomic                   Forces (Hartrees/Bohr)
 Number     Number              X              Y              Z
 -------------------------------------------------------------------
      1        6          -0.002807391   -0.000954463    0.001006778
      2        6           0.003656026    0.001550690   -0.001014477
      3        6          -0.003151880   -0.000140282    0.000501152
      4        6          -0.001623977   -0.002201920   -0.000631645
      5        1           0.000176150   -0.000062214    0.000200430
      6        1           0.001387229    0.000516862   -0.000339866
      7        1           0.000217007   -0.000059776    0.001034611
      8        1          -0.001253022   -0.000593780   -0.000244412
      9        1           0.000057089    0.000211400   -0.000051769
     10        1           0.001557533    0.000271758   -0.000075250
     11        1          -0.000110451    0.001030643    0.000150834
     12        1           0.000195289    0.000001056   -0.000238320
     13        1           0.000664792   -0.000541945   -0.000566514
     14        1           0.001035607    0.000971970    0.000268448
 -------------------------------------------------------------------
 Cartesian Forces:  Max     0.003656026 RMS     0.001165740

 GradGradGradGradGradGradGradGradGradGradGradGradGradGradGradGradGradGrad
 Berny optimization.
 FormGI is forming the generalized inverse of G from B-inverse, IUseBI=4.
 Internal  Forces:  Max     0.001642760 RMS     0.000668830
 Search for a local minimum.
 Step number   1 out of a maximum of   74
 All quantities printed in internal units (Hartrees-Bohrs-Radians)
 Mixed Optimization -- En-DIIS/RFO-DIIS
 Second derivative matrix not updated -- first step.
 ITU=  0
     Eigenvalues ---    0.00407   0.00408   0.00409   0.03705   0.04817
     Eigenvalues ---    0.04818   0.05519   0.05519   0.05521   0.05594
     Eigenvalues ---    0.05594   0.05595   0.16000   0.16000   0.16000
     Eigenvalues ---    0.16000   0.16000   0.16000   0.16000   0.16000
     Eigenvalues ---    0.16000   0.16622   0.16622   0.29689   0.29697
     Eigenvalues ---    0.29706   0.34043   0.34180   0.34183   0.34190
     Eigenvalues ---    0.34213   0.34224   0.34227   0.34233   0.34236
     Eigenvalues ---    0.34246
 RFO step:  Lambda=-2.01348350D-04 EMin= 4.06945885D-03
 Linear search not attempted -- first point.
 Iteration  1 RMS(Cart)=  0.01305594 RMS(Int)=  0.00011308
 Iteration  2 RMS(Cart)=  0.00011986 RMS(Int)=  0.00001494
 Iteration  3 RMS(Cart)=  0.00000001 RMS(Int)=  0.00001494
 Variable       Old X    -DE/DX   Delta X   Delta X   Delta X     New X
                                 (Linear)    (Quad)   (Total)
    R1        2.88554   0.00148   0.00000   0.00497   0.00497   2.89051
    R2        2.07027   0.00011   0.00000   0.00031   0.00031   2.07058
    R3        2.06934   0.00143   0.00000   0.00417   0.00417   2.07351
    R4        2.06938   0.00058   0.00000   0.00170   0.00170   2.07108
    R5        2.88588   0.00148   0.00000   0.00497   0.00497   2.89085
    R6        2.88573   0.00164   0.00000   0.00553   0.00553   2.89125
    R7        2.07258   0.00140   0.00000   0.00412   0.00412   2.07669
    R8        2.07022   0.00007   0.00000   0.00021   0.00021   2.07043
    R9        2.06918   0.00148   0.00000   0.00433   0.00433   2.07351
   R10        2.06954   0.00055   0.00000   0.00162   0.00162   2.07116
   R11        2.07010   0.00015   0.00000   0.00045   0.00045   2.07055
   R12        2.06948   0.00054   0.00000   0.00159   0.00159   2.07107
   R13        2.06972   0.00133   0.00000   0.00390   0.00390   2.07361
    A1        1.94343   0.00021   0.00000   0.00090   0.00088   1.94431
    A2        1.93359  -0.00099   0.00000  -0.00769  -0.00769   1.92591
    A3        1.93356   0.00145   0.00000   0.01099   0.01098   1.94454
    A4        1.88497   0.00003   0.00000  -0.00340  -0.00342   1.88154
    A5        1.88512  -0.00058   0.00000  -0.00083  -0.00086   1.88425
    A6        1.88095  -0.00015   0.00000  -0.00018  -0.00015   1.88080
    A7        1.93008  -0.00016   0.00000   0.00171   0.00167   1.93175
    A8        1.92999   0.00013   0.00000   0.00384   0.00382   1.93381
    A9        1.89087  -0.00009   0.00000  -0.00480  -0.00479   1.88608
   A10        1.93006   0.00046   0.00000   0.00608   0.00606   1.93612
   A11        1.89076  -0.00016   0.00000  -0.00423  -0.00423   1.88654
   A12        1.89076  -0.00020   0.00000  -0.00313  -0.00311   1.88765
   A13        1.94311   0.00016   0.00000   0.00078   0.00075   1.94386
   A14        1.93368  -0.00099   0.00000  -0.00779  -0.00779   1.92589
   A15        1.93325   0.00143   0.00000   0.01077   0.01077   1.94402
   A16        1.88505   0.00007   0.00000  -0.00299  -0.00301   1.88204
   A17        1.88507  -0.00052   0.00000  -0.00028  -0.00031   1.88476
   A18        1.88149  -0.00018   0.00000  -0.00068  -0.00066   1.88084
   A19        1.94327   0.00022   0.00000   0.00112   0.00109   1.94437
   A20        1.93361   0.00140   0.00000   0.01048   0.01047   1.94408
   A21        1.93346  -0.00097   0.00000  -0.00758  -0.00757   1.92589
   A22        1.88526  -0.00055   0.00000  -0.00060  -0.00063   1.88463
   A23        1.88490   0.00004   0.00000  -0.00306  -0.00307   1.88183
   A24        1.88114  -0.00017   0.00000  -0.00057  -0.00055   1.88059
    D1       -3.14156  -0.00008   0.00000  -0.01667  -0.01667   3.12496
    D2       -0.99771   0.00049   0.00000  -0.00512  -0.00511  -1.00282
    D3        1.07193   0.00027   0.00000  -0.00960  -0.00960   1.06233
    D4       -1.04336  -0.00057   0.00000  -0.02555  -0.02554  -1.06890
    D5        1.10048  -0.00001   0.00000  -0.01399  -0.01398   1.08650
    D6       -3.11306  -0.00023   0.00000  -0.01848  -0.01847  -3.13153
    D7        1.04327  -0.00046   0.00000  -0.02362  -0.02364   1.01963
    D8       -3.09607   0.00010   0.00000  -0.01207  -0.01208  -3.10815
    D9       -1.02643  -0.00012   0.00000  -0.01655  -0.01657  -1.04299
   D10        3.14159   0.00002   0.00000   0.02174   0.02174  -3.11986
   D11        1.04344   0.00049   0.00000   0.03025   0.03024   1.07369
   D12       -1.04373   0.00043   0.00000   0.02915   0.02917  -1.01455
   D13        0.99778  -0.00035   0.00000   0.01149   0.01148   1.00926
   D14       -1.10036   0.00012   0.00000   0.02000   0.01998  -1.08038
   D15        3.09566   0.00006   0.00000   0.01890   0.01891   3.11457
   D16       -1.07183  -0.00028   0.00000   0.01432   0.01432  -1.05751
   D17        3.11321   0.00019   0.00000   0.02283   0.02283   3.13604
   D18        1.02604   0.00013   0.00000   0.02174   0.02175   1.04780
   D19       -3.14151   0.00009   0.00000  -0.01553  -0.01554   3.12614
   D20        1.04322  -0.00030   0.00000  -0.02258  -0.02260   1.02061
   D21       -1.04359  -0.00036   0.00000  -0.02375  -0.02375  -1.06734
   D22       -0.99765   0.00030   0.00000  -0.00652  -0.00651  -1.00416
   D23       -3.09611  -0.00009   0.00000  -0.01357  -0.01358  -3.10969
   D24        1.10026  -0.00015   0.00000  -0.01474  -0.01472   1.08554
   D25        1.07197   0.00025   0.00000  -0.01004  -0.01003   1.06194
   D26       -1.02649  -0.00014   0.00000  -0.01708  -0.01710  -1.04359
   D27       -3.11330  -0.00021   0.00000  -0.01825  -0.01824  -3.13155
         Item               Value     Threshold  Converged?
 Maximum Force            0.001643     0.000450     NO 
 RMS     Force            0.000669     0.000300     NO 
 Maximum Displacement     0.044058     0.001800     NO 
 RMS     Displacement     0.013060     0.001200     NO 
 Predicted change in Energy=-1.018003D-04
 GradGradGradGradGradGradGradGradGradGradGradGradGradGradGradGradGradGrad

                          Input orientation:                          
 ---------------------------------------------------------------------
 Center     Atomic      Atomic             Coordinates (Angstroms)
 Number     Number       Type             X           Y           Z
 ---------------------------------------------------------------------
      1          6           0        0.654779   -0.382796   -0.781188
      2          6           0        0.103045   -0.058776   -2.170521
      3          6           0       -0.073681    1.450925   -2.343055
      4          6           0        1.009421   -0.631286   -3.262113
      5          1           0        0.770233   -1.463056   -0.638804
      6          1           0        1.639790    0.080835   -0.644206
      7          1           0       -0.004738   -0.006355    0.009049
      8          1           0       -0.884986   -0.530830   -2.263411
      9          1           0       -0.489278    1.694440   -3.327111
     10          1           0        0.893335    1.961205   -2.251061
     11          1           0       -0.743869    1.864527   -1.580812
     12          1           0        0.614931   -0.418213   -4.261869
     13          1           0        1.115215   -1.717763   -3.164619
     14          1           0        2.012002   -0.190257   -3.195679
 ---------------------------------------------------------------------
                    Distance matrix (angstroms):
                    1          2          3          4          5
     1  C    0.000000
     2  C    1.529590   0.000000
     3  C    2.516469   1.529771   0.000000
     4  C    2.518433   1.529986   2.520591   0.000000
     5  H    1.095703   2.182498   3.479648   2.762390   0.000000
     6  H    1.097253   2.170418   2.774746   2.785304   1.771936
     7  H    1.095968   2.182863   2.767817   3.481316   1.772647
     8  H    2.142375   1.098939   2.142875   2.143893   2.499628
     9  H    3.479296   2.182273   1.095622   2.767548   4.333953
    10  H    2.777008   2.170569   1.097254   2.785087   3.786831
    11  H    2.765154   2.182686   1.096008   3.482798   3.775274
    12  H    3.481089   2.182879   2.765812   1.095690   3.773913
    13  H    2.770357   2.182878   3.482675   1.095961   2.561957
    14  H    2.776489   2.170795   2.787565   1.097309   3.114420
                    6          7          8          9         10
     6  H    0.000000
     7  H    1.771671   0.000000
     8  H    3.061119   2.492787   0.000000
     9  H    3.786111   3.775904   2.497974   0.000000
    10  H    2.583596   3.128246   3.061505   1.772193   0.000000
    11  H    3.120997   2.564015   2.494713   1.772938   1.771728
    12  H    3.793003   4.335247   2.501254   2.560538   3.127697
    13  H    3.140480   3.775630   2.494351   3.774113   3.797186
    14  H    2.592691   3.790955   3.062295   3.134607   2.602404
                   11         12         13         14
    11  H    0.000000
    12  H    3.774296   0.000000
    13  H    4.335602   1.772871   0.000000
    14  H    3.797994   1.772155   1.771572   0.000000
 Stoichiometry    C4H10
 Framework group  C1[X(C4H10)]
 Deg. of freedom    36
 Full point group                 C1      NOp   1
 Largest Abelian subgroup         C1      NOp   1
 Largest concise Abelian subgroup C1      NOp   1
                         Standard orientation:                         
 ---------------------------------------------------------------------
 Center     Atomic      Atomic             Coordinates (Angstroms)
 Number     Number       Type             X           Y           Z
 ---------------------------------------------------------------------
      1          6           0        0.368332    1.405422    0.096090
      2          6           0       -0.000729   -0.000872   -0.379067
      3          6           0        1.035332   -1.021041    0.096362
      4          6           0       -1.403507   -0.384296    0.096388
      5          1           0       -0.357572    2.148525   -0.252374
      6          1           0        0.388586    1.444626    1.192456
      7          1           0        1.358286    1.703686   -0.267472
      8          1           0        0.000134   -0.000431   -1.478006
      9          1           0        0.793613   -2.029741   -0.256463
     10          1           0        1.069258   -1.047693    1.192768
     11          1           0        2.039338   -0.768220   -0.263206
     12          1           0       -1.684288   -1.384496   -0.251891
     13          1           0       -2.156353    0.324302   -0.267262
     14          1           0       -1.447574   -0.385829    1.192811
 ---------------------------------------------------------------------
 Rotational constants (GHZ):      7.8146582      7.7907912      4.5280074
 Standard basis: 6-31+G(d) (6D, 7F)
 There are    96 symmetry adapted cartesian basis functions of A   symmetry.
 There are    96 symmetry adapted basis functions of A   symmetry.
    96 basis functions,   168 primitive gaussians,    96 cartesian basis functions
    17 alpha electrons       17 beta electrons
       nuclear repulsion energy       134.5449159834 Hartrees.
 NAtoms=   14 NActive=   14 NUniq=   14 SFac= 1.00D+00 NAtFMM=   60 NAOKFM=F Big=F
 Integral buffers will be    131072 words long.
 Raffenetti 2 integral format.
 Two-electron integral symmetry is turned on.
 One-electron integrals computed using PRISM.
 NBasis=    96 RedAO= T EigKep=  1.01D-04  NBF=    96
 NBsUse=    96 1.00D-06 EigRej= -1.00D+00 NBFU=    96
 Initial guess from the checkpoint file:  "/srv/scratch/z5358697/gauss/Gau-2107707.chk"
 B after Tr=     0.000000    0.000000    0.000000
         Rot=    0.999109   -0.000937    0.000891    0.042174 Ang=  -4.84 deg.
 ExpMin= 4.38D-02 ExpMax= 3.05D+03 ExpMxC= 4.57D+02 IAcc=2 IRadAn=         4 AccDes= 0.00D+00
 Harris functional with IExCor= 1009 and IRadAn=       4 diagonalized for initial guess.
 HarFok:  IExCor= 1009 AccDes= 0.00D+00 IRadAn=         4 IDoV= 1 UseB2=F ITyADJ=14
 ICtDFT=  3500011 ScaDFX=  1.000000  1.000000  1.000000  1.000000
 FoFCou: FMM=F IPFlag=           0 FMFlag=      100000 FMFlg1=           0
         NFxFlg=           0 DoJE=T BraDBF=F KetDBF=T FulRan=T
         wScrn=  0.000000 ICntrl=     500 IOpCl=  0 I1Cent=   200000004 NGrid=           0
         NMat0=    1 NMatS0=      1 NMatT0=    0 NMatD0=    1 NMtDS0=    0 NMtDT0=    0
 Petite list used in FoFCou.
 Keep R1 ints in memory in canonical form, NReq=11808970.
 Requested convergence on RMS density matrix=1.00D-08 within 128 cycles.
 Requested convergence on MAX density matrix=1.00D-06.
 Requested convergence on             energy=1.00D-06.
 No special actions if energy rises.
 SCF Done:  E(RM062X) =  -158.363412090     A.U. after    9 cycles
            NFock=  9  Conv=0.33D-08     -V/T= 2.0095
 Calling FoFJK, ICntrl=      2127 FMM=F ISym2X=0 I1Cent= 0 IOpClX= 0 NMat=1 NMatS=1 NMatT=0.
 ***** Axes restored to original set *****
 -------------------------------------------------------------------
 Center     Atomic                   Forces (Hartrees/Bohr)
 Number     Number              X              Y              Z
 -------------------------------------------------------------------
      1        6          -0.000174043   -0.000005709   -0.000164775
      2        6          -0.000276459   -0.000074344    0.000228638
      3        6           0.000030312   -0.000451406   -0.000014291
      4        6          -0.000267441    0.000204910    0.000451496
      5        1          -0.000004527    0.000017228   -0.000105298
      6        1           0.000247393    0.000007974    0.000021804
      7        1           0.000106032    0.000040534   -0.000246135
      8        1          -0.000209942   -0.000147651   -0.000173915
      9        1           0.000068111    0.000003889   -0.000042437
     10        1           0.000227307    0.000127943   -0.000063220
     11        1           0.000181830   -0.000197119   -0.000093385
     12        1           0.000001027    0.000086755    0.000088773
     13        1          -0.000094654    0.000262204    0.000163194
     14        1           0.000165056    0.000124793   -0.000050448
 -------------------------------------------------------------------
 Cartesian Forces:  Max     0.000451496 RMS     0.000174638

 GradGradGradGradGradGradGradGradGradGradGradGradGradGradGradGradGradGrad
 Berny optimization.
 Using GEDIIS/GDIIS optimizer.
 FormGI is forming the generalized inverse of G from B-inverse, IUseBI=4.
 Internal  Forces:  Max     0.000830872 RMS     0.000189385
 Search for a local minimum.
 Step number   2 out of a maximum of   74
 All quantities printed in internal units (Hartrees-Bohrs-Radians)
 Mixed Optimization -- En-DIIS/RFO-DIIS
 Swapping is turned off.
 Update second derivatives using D2CorX and points    1    2
 DE= -1.06D-04 DEPred=-1.02D-04 R= 1.04D+00
 TightC=F SS=  1.41D+00  RLast= 1.01D-01 DXNew= 5.0454D-01 3.0291D-01
 Trust test= 1.04D+00 RLast= 1.01D-01 DXMaxT set to 3.03D-01
 ITU=  1  0
     Eigenvalues ---    0.00372   0.00408   0.00410   0.03950   0.04826
     Eigenvalues ---    0.04875   0.05386   0.05477   0.05479   0.05569
     Eigenvalues ---    0.05607   0.05607   0.15853   0.16000   0.16000
     Eigenvalues ---    0.16000   0.16000   0.16000   0.16000   0.16000
     Eigenvalues ---    0.16225   0.16718   0.17563   0.29644   0.29694
     Eigenvalues ---    0.32199   0.32768   0.34098   0.34180   0.34183
     Eigenvalues ---    0.34191   0.34221   0.34226   0.34231   0.34241
     Eigenvalues ---    0.35308
 En-DIIS/RFO-DIIS IScMMF=        0 using points:     2    1
 RFO step:  Lambda=-4.93335555D-06.
 DidBck=F Rises=F RFO-DIIS coefs:    0.91750    0.08250
 Iteration  1 RMS(Cart)=  0.00454394 RMS(Int)=  0.00001138
 Iteration  2 RMS(Cart)=  0.00001267 RMS(Int)=  0.00000146
 Iteration  3 RMS(Cart)=  0.00000000 RMS(Int)=  0.00000146
 Variable       Old X    -DE/DX   Delta X   Delta X   Delta X     New X
                                 (Linear)    (Quad)   (Total)
    R1        2.89051  -0.00039  -0.00041  -0.00048  -0.00089   2.88962
    R2        2.07058  -0.00003  -0.00003  -0.00004  -0.00007   2.07051
    R3        2.07351   0.00024  -0.00034   0.00124   0.00090   2.07441
    R4        2.07108  -0.00023  -0.00014  -0.00037  -0.00051   2.07057
    R5        2.89085  -0.00056  -0.00041  -0.00099  -0.00140   2.88945
    R6        2.89125  -0.00083  -0.00046  -0.00176  -0.00221   2.88904
    R7        2.07669   0.00027  -0.00034   0.00132   0.00098   2.07768
    R8        2.07043   0.00002  -0.00002   0.00008   0.00006   2.07048
    R9        2.07351   0.00024  -0.00036   0.00129   0.00093   2.07444
   R10        2.07116  -0.00025  -0.00013  -0.00042  -0.00056   2.07060
   R11        2.07055  -0.00007  -0.00004  -0.00011  -0.00015   2.07041
   R12        2.07107  -0.00026  -0.00013  -0.00046  -0.00059   2.07048
   R13        2.07361   0.00020  -0.00032   0.00112   0.00079   2.07441
    A1        1.94431  -0.00011  -0.00007  -0.00053  -0.00060   1.94371
    A2        1.92591   0.00007   0.00063  -0.00081  -0.00018   1.92573
    A3        1.94454  -0.00014  -0.00091   0.00095   0.00004   1.94458
    A4        1.88154  -0.00001   0.00028  -0.00077  -0.00049   1.88106
    A5        1.88425   0.00015   0.00007   0.00086   0.00093   1.88518
    A6        1.88080   0.00004   0.00001   0.00031   0.00032   1.88112
    A7        1.93175   0.00023  -0.00014   0.00035   0.00021   1.93196
    A8        1.93381  -0.00014  -0.00031  -0.00172  -0.00204   1.93177
    A9        1.88608   0.00003   0.00040   0.00183   0.00222   1.88830
   A10        1.93612  -0.00032  -0.00050  -0.00258  -0.00308   1.93304
   A11        1.88654   0.00007   0.00035   0.00150   0.00185   1.88838
   A12        1.88765   0.00014   0.00026   0.00085   0.00111   1.88876
   A13        1.94386   0.00000  -0.00006   0.00011   0.00005   1.94390
   A14        1.92589   0.00007   0.00064  -0.00082  -0.00017   1.92572
   A15        1.94402  -0.00018  -0.00089   0.00062  -0.00027   1.94375
   A16        1.88204  -0.00005   0.00025  -0.00090  -0.00065   1.88139
   A17        1.88476   0.00011   0.00003   0.00068   0.00071   1.88546
   A18        1.88084   0.00006   0.00005   0.00031   0.00036   1.88119
   A19        1.94437  -0.00007  -0.00009  -0.00026  -0.00035   1.94402
   A20        1.94408  -0.00024  -0.00086   0.00025  -0.00062   1.94346
   A21        1.92589   0.00007   0.00062  -0.00077  -0.00014   1.92575
   A22        1.88463   0.00018   0.00005   0.00103   0.00109   1.88572
   A23        1.88183  -0.00002   0.00025  -0.00070  -0.00045   1.88138
   A24        1.88059   0.00009   0.00005   0.00047   0.00052   1.88110
    D1        3.12496   0.00018   0.00138  -0.00495  -0.00358   3.12138
    D2       -1.00282  -0.00016   0.00042  -0.00923  -0.00881  -1.01163
    D3        1.06233  -0.00005   0.00079  -0.00807  -0.00728   1.05505
    D4       -1.06890   0.00015   0.00211  -0.00680  -0.00469  -1.07360
    D5        1.08650  -0.00019   0.00115  -0.01108  -0.00992   1.07657
    D6       -3.13153  -0.00009   0.00152  -0.00992  -0.00840  -3.13993
    D7        1.01963   0.00016   0.00195  -0.00634  -0.00438   1.01525
    D8       -3.10815  -0.00018   0.00100  -0.01061  -0.00961  -3.11776
    D9       -1.04299  -0.00007   0.00137  -0.00946  -0.00809  -1.05108
   D10       -3.11986  -0.00015  -0.00179   0.00283   0.00104  -3.11882
   D11        1.07369  -0.00013  -0.00250   0.00444   0.00194   1.07563
   D12       -1.01455  -0.00013  -0.00241   0.00420   0.00179  -1.01277
   D13        1.00926   0.00009  -0.00095   0.00662   0.00567   1.01493
   D14       -1.08038   0.00011  -0.00165   0.00822   0.00657  -1.07381
   D15        3.11457   0.00010  -0.00156   0.00798   0.00642   3.12098
   D16       -1.05751   0.00006  -0.00118   0.00615   0.00497  -1.05254
   D17        3.13604   0.00009  -0.00188   0.00776   0.00588  -3.14127
   D18        1.04780   0.00008  -0.00179   0.00752   0.00572   1.05351
   D19        3.12614   0.00002   0.00128  -0.00390  -0.00262   3.12352
   D20        1.02061   0.00000   0.00186  -0.00521  -0.00335   1.01727
   D21       -1.06734   0.00000   0.00196  -0.00546  -0.00350  -1.07084
   D22       -1.00416  -0.00001   0.00054  -0.00649  -0.00596  -1.01012
   D23       -3.10969  -0.00002   0.00112  -0.00780  -0.00668  -3.11637
   D24        1.08554  -0.00003   0.00121  -0.00805  -0.00684   1.07870
   D25        1.06194  -0.00003   0.00083  -0.00564  -0.00482   1.05712
   D26       -1.04359  -0.00004   0.00141  -0.00695  -0.00554  -1.04913
   D27       -3.13155  -0.00005   0.00151  -0.00720  -0.00570  -3.13724
         Item               Value     Threshold  Converged?
 Maximum Force            0.000831     0.000450     NO 
 RMS     Force            0.000189     0.000300     YES
 Maximum Displacement     0.015767     0.001800     NO 
 RMS     Displacement     0.004545     0.001200     NO 
 Predicted change in Energy=-7.424693D-06
 GradGradGradGradGradGradGradGradGradGradGradGradGradGradGradGradGradGrad

                          Input orientation:                          
 ---------------------------------------------------------------------
 Center     Atomic      Atomic             Coordinates (Angstroms)
 Number     Number       Type             X           Y           Z
 ---------------------------------------------------------------------
      1          6           0        0.653670   -0.383936   -0.782037
      2          6           0        0.100692   -0.059738   -2.170316
      3          6           0       -0.073588    1.449412   -2.343589
      4          6           0        1.009604   -0.628787   -3.259968
      5          1           0        0.763750   -1.464575   -0.638558
      6          1           0        1.642222    0.074285   -0.648595
      7          1           0       -0.001592   -0.002144    0.008802
      8          1           0       -0.887338   -0.532596   -2.265257
      9          1           0       -0.491158    1.692934   -3.326843
     10          1           0        0.895240    1.957951   -2.255237
     11          1           0       -0.740401    1.864619   -1.579681
     12          1           0        0.614251   -0.418710   -4.259933
     13          1           0        1.120759   -1.714201   -3.160116
     14          1           0        2.010090   -0.181914   -3.194073
 ---------------------------------------------------------------------
                    Distance matrix (angstroms):
                    1          2          3          4          5
     1  C    0.000000
     2  C    1.529120   0.000000
     3  C    2.515654   1.529029   0.000000
     4  C    2.515310   1.528816   2.516340   0.000000
     5  H    1.095666   2.181626   3.478446   2.762386   0.000000
     6  H    1.097729   2.170233   2.776326   2.777370   1.771977
     7  H    1.095700   2.182277   2.765129   3.478513   1.773000
     8  H    2.144002   1.099460   2.143987   2.144083   2.498165
     9  H    3.478514   2.181674   1.095653   2.765348   4.332613
    10  H    2.777248   2.170158   1.097746   2.777368   3.787429
    11  H    2.763271   2.181613   1.095715   3.478930   3.772494
    12  H    3.478293   2.181537   2.763218   1.095612   3.772339
    13  H    2.764605   2.181167   3.478740   1.095650   2.558911
    14  H    2.774636   2.169978   2.779615   1.097730   3.119173
                    6          7          8          9         10
     6  H    0.000000
     7  H    1.772043   0.000000
     8  H    3.062772   2.497452   0.000000
     9  H    3.787394   3.773525   2.497380   0.000000
    10  H    2.586016   3.126044   3.062761   1.772194   0.000000
    11  H    3.122357   2.560062   2.497648   1.773181   1.772119
    12  H    3.787021   4.332999   2.499295   2.559615   3.121903
    13  H    3.127035   3.772645   2.495880   3.772883   3.788716
    14  H    2.584651   3.786501   3.062804   3.128725   2.589077
                   11         12         13         14
    11  H    0.000000
    12  H    3.772588   0.000000
    13  H    4.332395   1.773258   0.000000
    14  H    3.789426   1.772144   1.771996   0.000000
 Stoichiometry    C4H10
 Framework group  C1[X(C4H10)]
 Deg. of freedom    36
 Full point group                 C1      NOp   1
 Largest Abelian subgroup         C1      NOp   1
 Largest concise Abelian subgroup C1      NOp   1
                         Standard orientation:                         
 ---------------------------------------------------------------------
 Center     Atomic      Atomic             Coordinates (Angstroms)
 Number     Number       Type             X           Y           Z
 ---------------------------------------------------------------------
      1          6           0       -0.288843    1.423160    0.096411
      2          6           0        0.000102   -0.000464   -0.381098
      3          6           0        1.377503   -0.461463    0.096579
      4          6           0       -1.088632   -0.961609    0.096538
      5          1           0       -1.265336    1.772332   -0.257178
      6          1           0       -0.295541    1.463622    1.193373
      7          1           0        0.471878    2.126747   -0.259717
      8          1           0        0.000308   -0.000324   -1.480559
      9          1           0        1.605789   -1.472382   -0.258927
     10          1           0        1.416051   -0.474916    1.193566
     11          1           0        2.168111    0.209273   -0.257881
     12          1           0       -0.902473   -1.982513   -0.254839
     13          1           0       -2.077337   -0.654323   -0.261913
     14          1           0       -1.122231   -0.985257    1.193499
 ---------------------------------------------------------------------
 Rotational constants (GHZ):      7.8160264      7.8101749      4.5373579
 Standard basis: 6-31+G(d) (6D, 7F)
 There are    96 symmetry adapted cartesian basis functions of A   symmetry.
 There are    96 symmetry adapted basis functions of A   symmetry.
    96 basis functions,   168 primitive gaussians,    96 cartesian basis functions
    17 alpha electrons       17 beta electrons
       nuclear repulsion energy       134.6133609966 Hartrees.
 NAtoms=   14 NActive=   14 NUniq=   14 SFac= 1.00D+00 NAtFMM=   60 NAOKFM=F Big=F
 Integral buffers will be    131072 words long.
 Raffenetti 2 integral format.
 Two-electron integral symmetry is turned on.
 One-electron integrals computed using PRISM.
 NBasis=    96 RedAO= T EigKep=  1.01D-04  NBF=    96
 NBsUse=    96 1.00D-06 EigRej= -1.00D+00 NBFU=    96
 Initial guess from the checkpoint file:  "/srv/scratch/z5358697/gauss/Gau-2107707.chk"
 B after Tr=     0.000000    0.000000    0.000000
         Rot=    0.974127   -0.000317    0.000286   -0.225999 Ang= -26.12 deg.
 Keep R1 ints in memory in canonical form, NReq=11808970.
 Requested convergence on RMS density matrix=1.00D-08 within 128 cycles.
 Requested convergence on MAX density matrix=1.00D-06.
 Requested convergence on             energy=1.00D-06.
 No special actions if energy rises.
 SCF Done:  E(RM062X) =  -158.363407286     A.U. after    8 cycles
            NFock=  8  Conv=0.84D-08     -V/T= 2.0095
 Calling FoFJK, ICntrl=      2127 FMM=F ISym2X=0 I1Cent= 0 IOpClX= 0 NMat=1 NMatS=1 NMatT=0.
 ***** Axes restored to original set *****
 -------------------------------------------------------------------
 Center     Atomic                   Forces (Hartrees/Bohr)
 Number     Number              X              Y              Z
 -------------------------------------------------------------------
      1        6           0.000029173   -0.000075704   -0.000073494
      2        6          -0.000162844    0.000126831    0.000134430
      3        6           0.000064467    0.000042888    0.000014742
      4        6           0.000087354   -0.000007164   -0.000017592
      5        1          -0.000003511    0.000026873    0.000050354
      6        1          -0.000066039   -0.000049072    0.000016065
      7        1           0.000003817   -0.000017111   -0.000050462
      8        1           0.000104972    0.000034041   -0.000031594
      9        1           0.000039520   -0.000017998   -0.000002653
     10        1          -0.000088878   -0.000038426    0.000022067
     11        1           0.000054283   -0.000044428   -0.000022492
     12        1          -0.000010624    0.000011790   -0.000018264
     13        1           0.000005381    0.000028786   -0.000020206
     14        1          -0.000057071   -0.000021307   -0.000000901
 -------------------------------------------------------------------
 Cartesian Forces:  Max     0.000162844 RMS     0.000056891

 GradGradGradGradGradGradGradGradGradGradGradGradGradGradGradGradGradGrad
 Berny optimization.
 Using GEDIIS/GDIIS optimizer.
 FormGI is forming the generalized inverse of G from B-inverse, IUseBI=4.
 Internal  Forces:  Max     0.000106240 RMS     0.000034375
 Search for a local minimum.
 Step number   3 out of a maximum of   74
 All quantities printed in internal units (Hartrees-Bohrs-Radians)
 Mixed Optimization -- En-DIIS/RFO-DIIS
 Swapping is turned off.
 Update second derivatives using D2CorX and points    1    2    3
 DE=  4.80D-06 DEPred=-7.42D-06 R=-6.47D-01
 Trust test=-6.47D-01 RLast= 3.18D-02 DXMaxT set to 1.51D-01
 ITU= -1  1  0
     Eigenvalues ---    0.00356   0.00409   0.00415   0.04052   0.04755
     Eigenvalues ---    0.04828   0.05392   0.05479   0.05482   0.05585
     Eigenvalues ---    0.05611   0.05635   0.15856   0.15999   0.16000
     Eigenvalues ---    0.16000   0.16000   0.16000   0.16000   0.16146
     Eigenvalues ---    0.16175   0.16687   0.17391   0.29646   0.29740
     Eigenvalues ---    0.32031   0.33990   0.34107   0.34183   0.34184
     Eigenvalues ---    0.34210   0.34221   0.34231   0.34236   0.34473
     Eigenvalues ---    0.35240
 En-DIIS/RFO-DIIS IScMMF=        0 using points:     3    2    1
 RFO step:  Lambda=-1.64262494D-07.
 DidBck=F Rises=F RFO-DIIS coefs:    0.98195    0.00273    0.01533
 Iteration  1 RMS(Cart)=  0.00085160 RMS(Int)=  0.00000052
 Iteration  2 RMS(Cart)=  0.00000049 RMS(Int)=  0.00000022
 Variable       Old X    -DE/DX   Delta X   Delta X   Delta X     New X
                                 (Linear)    (Quad)   (Total)
    R1        2.88962  -0.00003  -0.00006  -0.00003  -0.00009   2.88952
    R2        2.07051  -0.00003   0.00000  -0.00008  -0.00009   2.07042
    R3        2.07441  -0.00006  -0.00008  -0.00008  -0.00016   2.07425
    R4        2.07057  -0.00005  -0.00002  -0.00012  -0.00014   2.07044
    R5        2.88945  -0.00008  -0.00005  -0.00021  -0.00027   2.88918
    R6        2.88904   0.00004  -0.00004   0.00016   0.00012   2.88916
    R7        2.07768  -0.00011  -0.00008  -0.00020  -0.00028   2.07740
    R8        2.07048  -0.00001   0.00000  -0.00002  -0.00002   2.07046
    R9        2.07444  -0.00010  -0.00008  -0.00019  -0.00027   2.07417
   R10        2.07060  -0.00007  -0.00001  -0.00019  -0.00020   2.07040
   R11        2.07041   0.00002   0.00000   0.00006   0.00006   2.07047
   R12        2.07048  -0.00002  -0.00001  -0.00006  -0.00008   2.07040
   R13        2.07441  -0.00007  -0.00007  -0.00010  -0.00017   2.07424
    A1        1.94371   0.00010   0.00000   0.00070   0.00070   1.94441
    A2        1.92573   0.00002   0.00012  -0.00004   0.00008   1.92581
    A3        1.94458  -0.00005  -0.00017  -0.00023  -0.00040   1.94419
    A4        1.88106  -0.00004   0.00006  -0.00018  -0.00012   1.88094
    A5        1.88518  -0.00002   0.00000  -0.00013  -0.00014   1.88505
    A6        1.88112   0.00000   0.00000  -0.00015  -0.00015   1.88097
    A7        1.93196   0.00003  -0.00003   0.00031   0.00028   1.93224
    A8        1.93177   0.00002  -0.00002   0.00010   0.00008   1.93185
    A9        1.88830  -0.00001   0.00003   0.00009   0.00012   1.88842
   A10        1.93304  -0.00004  -0.00004  -0.00023  -0.00026   1.93277
   A11        1.88838   0.00001   0.00003   0.00010   0.00013   1.88851
   A12        1.88876  -0.00001   0.00003  -0.00038  -0.00035   1.88841
   A13        1.94390  -0.00004  -0.00001  -0.00020  -0.00021   1.94369
   A14        1.92572   0.00002   0.00012  -0.00002   0.00010   1.92582
   A15        1.94375  -0.00003  -0.00016  -0.00001  -0.00017   1.94358
   A16        1.88139   0.00001   0.00006  -0.00002   0.00003   1.88142
   A17        1.88546   0.00004  -0.00001   0.00032   0.00031   1.88577
   A18        1.88119   0.00000   0.00000  -0.00006  -0.00005   1.88114
   A19        1.94402  -0.00002  -0.00001  -0.00012  -0.00013   1.94389
   A20        1.94346   0.00002  -0.00015   0.00029   0.00014   1.94360
   A21        1.92575   0.00000   0.00012  -0.00011   0.00000   1.92575
   A22        1.88572   0.00000  -0.00001  -0.00003  -0.00004   1.88568
   A23        1.88138   0.00001   0.00006  -0.00004   0.00001   1.88140
   A24        1.88110  -0.00001   0.00000   0.00002   0.00001   1.88112
    D1        3.12138   0.00000   0.00032  -0.00113  -0.00081   3.12057
    D2       -1.01163  -0.00001   0.00024  -0.00113  -0.00090  -1.01253
    D3        1.05505  -0.00002   0.00028  -0.00148  -0.00120   1.05385
    D4       -1.07360   0.00003   0.00048  -0.00093  -0.00045  -1.07405
    D5        1.07657   0.00001   0.00039  -0.00093  -0.00054   1.07604
    D6       -3.13993   0.00000   0.00043  -0.00128  -0.00084  -3.14077
    D7        1.01525   0.00000   0.00044  -0.00129  -0.00085   1.01440
    D8       -3.11776  -0.00001   0.00036  -0.00129  -0.00093  -3.11870
    D9       -1.05108  -0.00002   0.00040  -0.00164  -0.00123  -1.05232
   D10       -3.11882  -0.00001  -0.00035  -0.00098  -0.00134  -3.12015
   D11        1.07563  -0.00001  -0.00050  -0.00081  -0.00131   1.07432
   D12       -1.01277   0.00000  -0.00048  -0.00072  -0.00120  -1.01397
   D13        1.01493  -0.00002  -0.00028  -0.00117  -0.00145   1.01348
   D14       -1.07381  -0.00002  -0.00042  -0.00100  -0.00143  -1.07523
   D15        3.12098  -0.00002  -0.00041  -0.00091  -0.00132   3.11966
   D16       -1.05254   0.00001  -0.00031  -0.00064  -0.00095  -1.05349
   D17       -3.14127   0.00001  -0.00046  -0.00047  -0.00093   3.14098
   D18        1.05351   0.00001  -0.00044  -0.00038  -0.00082   1.05270
   D19        3.12352  -0.00001   0.00029  -0.00163  -0.00134   3.12218
   D20        1.01727  -0.00001   0.00041  -0.00170  -0.00130   1.01597
   D21       -1.07084  -0.00002   0.00043  -0.00184  -0.00141  -1.07225
   D22       -1.01012   0.00001   0.00021  -0.00132  -0.00111  -1.01123
   D23       -3.11637   0.00001   0.00033  -0.00140  -0.00107  -3.11744
   D24        1.07870   0.00000   0.00035  -0.00153  -0.00118   1.07753
   D25        1.05712  -0.00001   0.00024  -0.00157  -0.00132   1.05580
   D26       -1.04913   0.00000   0.00036  -0.00164  -0.00128  -1.05041
   D27       -3.13724  -0.00001   0.00038  -0.00177  -0.00139  -3.13863
         Item               Value     Threshold  Converged?
 Maximum Force            0.000106     0.000450     YES
 RMS     Force            0.000034     0.000300     YES
 Maximum Displacement     0.002606     0.001800     NO 
 RMS     Displacement     0.000852     0.001200     YES
 Predicted change in Energy=-2.443304D-07
 GradGradGradGradGradGradGradGradGradGradGradGradGradGradGradGradGradGrad

                          Input orientation:                          
 ---------------------------------------------------------------------
 Center     Atomic      Atomic             Coordinates (Angstroms)
 Number     Number       Type             X           Y           Z
 ---------------------------------------------------------------------
      1          6           0        0.653718   -0.384175   -0.782001
      2          6           0        0.100706   -0.059652   -2.170136
      3          6           0       -0.073428    1.449359   -2.343526
      4          6           0        1.009439   -0.628574   -3.260092
      5          1           0        0.763091   -1.464732   -0.637709
      6          1           0        1.642500    0.073377   -0.648665
      7          1           0       -0.001197   -0.001506    0.008602
      8          1           0       -0.887127   -0.532526   -2.265329
      9          1           0       -0.489779    1.692688   -3.327330
     10          1           0        0.895086    1.957979   -2.253983
     11          1           0       -0.741072    1.864297   -1.580351
     12          1           0        0.613152   -0.419315   -4.259892
     13          1           0        1.121618   -1.713806   -3.159856
     14          1           0        2.009492   -0.180814   -3.195134
 ---------------------------------------------------------------------
                    Distance matrix (angstroms):
                    1          2          3          4          5
     1  C    0.000000
     2  C    1.529071   0.000000
     3  C    2.515740   1.528889   0.000000
     4  C    2.515393   1.528879   2.516048   0.000000
     5  H    1.095621   2.182048   3.478721   2.763465   0.000000
     6  H    1.097644   2.170185   2.776741   2.777238   1.771796
     7  H    1.095628   2.181894   2.764549   3.478355   1.772818
     8  H    2.143939   1.099311   2.143849   2.143768   2.498274
     9  H    3.478454   2.181391   1.095640   2.764133   4.332787
    10  H    2.776810   2.170002   1.097603   2.777694   3.787441
    11  H    2.763771   2.181288   1.095609   3.478537   3.772732
    12  H    3.478305   2.181522   2.763293   1.095643   3.773008
    13  H    2.764244   2.181292   3.478526   1.095610   2.559649
    14  H    2.775372   2.169969   2.778714   1.097640   3.121279
                    6          7          8          9         10
     6  H    0.000000
     7  H    1.771821   0.000000
     8  H    3.062636   2.497522   0.000000
     9  H    3.787351   3.773254   2.497460   0.000000
    10  H    2.586000   3.124451   3.062520   1.772090   0.000000
    11  H    3.123596   2.559962   2.497055   1.773283   1.771883
    12  H    3.787250   4.332670   2.498386   2.558649   3.123249
    13  H    3.125928   3.772507   2.496129   3.772115   3.788658
    14  H    2.585305   3.786680   3.062457   3.126314   2.588842
                   11         12         13         14
    11  H    0.000000
    12  H    3.772101   0.000000
    13  H    4.332121   1.773224   0.000000
    14  H    3.788879   1.772106   1.771900   0.000000
 Stoichiometry    C4H10
 Framework group  C1[X(C4H10)]
 Deg. of freedom    36
 Full point group                 C1      NOp   1
 Largest Abelian subgroup         C1      NOp   1
 Largest concise Abelian subgroup C1      NOp   1
                         Standard orientation:                         
 ---------------------------------------------------------------------
 Center     Atomic      Atomic             Coordinates (Angstroms)
 Number     Number       Type             X           Y           Z
 ---------------------------------------------------------------------
      1          6           0       -0.472884    1.373130    0.096382
      2          6           0        0.000211   -0.000297   -0.381044
      3          6           0        1.425953   -0.277132    0.096580
      4          6           0       -0.953114   -1.095996    0.096540
      5          1           0       -1.486296    1.592313   -0.257654
      6          1           0       -0.485437    1.412300    1.193255
      7          1           0        0.189785    2.169925   -0.259132
      8          1           0        0.000197   -0.000394   -1.480355
      9          1           0        1.783855   -1.250073   -0.257991
     10          1           0        1.466281   -0.284225    1.193418
     11          1           0        2.122013    0.490669   -0.258865
     12          1           0       -0.635265   -2.083463   -0.256041
     13          1           0       -1.973832   -0.920475   -0.260796
     14          1           0       -0.982293   -1.124812    1.193414
 ---------------------------------------------------------------------
 Rotational constants (GHZ):      7.8151885      7.8119410      4.5375079
 Standard basis: 6-31+G(d) (6D, 7F)
 There are    96 symmetry adapted cartesian basis functions of A   symmetry.
 There are    96 symmetry adapted basis functions of A   symmetry.
    96 basis functions,   168 primitive gaussians,    96 cartesian basis functions
    17 alpha electrons       17 beta electrons
       nuclear repulsion energy       134.6181437567 Hartrees.
 NAtoms=   14 NActive=   14 NUniq=   14 SFac= 1.00D+00 NAtFMM=   60 NAOKFM=F Big=F
 Integral buffers will be    131072 words long.
 Raffenetti 2 integral format.
 Two-electron integral symmetry is turned on.
 One-electron integrals computed using PRISM.
 NBasis=    96 RedAO= T EigKep=  1.01D-04  NBF=    96
 NBsUse=    96 1.00D-06 EigRej= -1.00D+00 NBFU=    96
 Initial guess from the checkpoint file:  "/srv/scratch/z5358697/gauss/Gau-2107707.chk"
 B after Tr=     0.000000    0.000000    0.000000
         Rot=    0.997845   -0.000003   -0.000023   -0.065621 Ang=  -7.52 deg.
 Keep R1 ints in memory in canonical form, NReq=11808970.
 Requested convergence on RMS density matrix=1.00D-08 within 128 cycles.
 Requested convergence on MAX density matrix=1.00D-06.
 Requested convergence on             energy=1.00D-06.
 No special actions if energy rises.
 SCF Done:  E(RM062X) =  -158.363404359     A.U. after    7 cycles
            NFock=  7  Conv=0.60D-08     -V/T= 2.0095
 Calling FoFJK, ICntrl=      2127 FMM=F ISym2X=0 I1Cent= 0 IOpClX= 0 NMat=1 NMatS=1 NMatT=0.
 ***** Axes restored to original set *****
 -------------------------------------------------------------------
 Center     Atomic                   Forces (Hartrees/Bohr)
 Number     Number              X              Y              Z
 -------------------------------------------------------------------
      1        6           0.000022251    0.000049298    0.000095800
      2        6           0.000057611   -0.000203485    0.000216114
      3        6           0.000021884   -0.000115421   -0.000075788
      4        6           0.000032317    0.000032997   -0.000066815
      5        1          -0.000006787   -0.000027928   -0.000086084
      6        1          -0.000039265    0.000036403   -0.000019579
      7        1          -0.000018308    0.000050058   -0.000029908
      8        1           0.000010496    0.000007106   -0.000014167
      9        1          -0.000019265    0.000065267    0.000051766
     10        1          -0.000014487    0.000038722   -0.000034044
     11        1          -0.000036922    0.000056218   -0.000035504
     12        1           0.000004680   -0.000019772    0.000025731
     13        1           0.000005176   -0.000011837    0.000008529
     14        1          -0.000019381    0.000042373   -0.000036052
 -------------------------------------------------------------------
 Cartesian Forces:  Max     0.000216114 RMS     0.000062869

 GradGradGradGradGradGradGradGradGradGradGradGradGradGradGradGradGradGrad
 Berny optimization.
 Using GEDIIS/GDIIS optimizer.
 FormGI is forming the generalized inverse of G from B-inverse, IUseBI=4.
 Internal  Forces:  Max     0.000123920 RMS     0.000042410
 Search for a local minimum.
 Step number   4 out of a maximum of   74
 All quantities printed in internal units (Hartrees-Bohrs-Radians)
 Mixed Optimization -- En-DIIS/RFO-DIIS
 Swapping is turned off.
 Update second derivatives using D2CorX and points    1    2    3    4
 DE=  2.93D-06 DEPred=-2.44D-07 R=-1.20D+01
 Trust test=-1.20D+01 RLast= 6.06D-03 DXMaxT set to 7.57D-02
 ITU= -1 -1  1  0
     Eigenvalues ---    0.00169   0.00396   0.00478   0.04020   0.04149
     Eigenvalues ---    0.04907   0.05375   0.05425   0.05481   0.05502
     Eigenvalues ---    0.05607   0.05701   0.13159   0.15910   0.16000
     Eigenvalues ---    0.16000   0.16000   0.16000   0.16000   0.16128
     Eigenvalues ---    0.16309   0.17314   0.25188   0.28633   0.30876
     Eigenvalues ---    0.32627   0.33728   0.34082   0.34139   0.34184
     Eigenvalues ---    0.34211   0.34220   0.34226   0.34231   0.35231
     Eigenvalues ---    0.59489
 En-DIIS/RFO-DIIS IScMMF=        0 using points:     4    3    2    1
 RFO step:  Lambda=-2.03752681D-07.
 DidBck=F Rises=F RFO-DIIS coefs:    0.87074    0.19369   -0.07896    0.01454
 Iteration  1 RMS(Cart)=  0.00226487 RMS(Int)=  0.00000446
 Iteration  2 RMS(Cart)=  0.00000460 RMS(Int)=  0.00000027
 Iteration  3 RMS(Cart)=  0.00000000 RMS(Int)=  0.00000027
 Variable       Old X    -DE/DX   Delta X   Delta X   Delta X     New X
                                 (Linear)    (Quad)   (Total)
    R1        2.88952  -0.00008  -0.00012  -0.00031  -0.00043   2.88909
    R2        2.07042   0.00002   0.00000  -0.00010  -0.00010   2.07033
    R3        2.07425  -0.00003   0.00002  -0.00030  -0.00028   2.07397
    R4        2.07044   0.00001  -0.00004  -0.00021  -0.00025   2.07019
    R5        2.88918   0.00008  -0.00013  -0.00019  -0.00032   2.88887
    R6        2.88916   0.00004  -0.00024   0.00046   0.00022   2.88938
    R7        2.07740  -0.00001   0.00004  -0.00047  -0.00043   2.07696
    R8        2.07046  -0.00003   0.00000  -0.00012  -0.00012   2.07034
    R9        2.07417   0.00002   0.00003  -0.00038  -0.00035   2.07382
   R10        2.07040   0.00002  -0.00003  -0.00030  -0.00033   2.07007
   R11        2.07047  -0.00002  -0.00002   0.00006   0.00004   2.07050
   R12        2.07040   0.00001  -0.00005  -0.00009  -0.00014   2.07027
   R13        2.07424  -0.00001   0.00002  -0.00025  -0.00024   2.07400
    A1        1.94441  -0.00012  -0.00014   0.00070   0.00056   1.94496
    A2        1.92581   0.00000   0.00009  -0.00003   0.00006   1.92587
    A3        1.94419  -0.00005  -0.00011  -0.00078  -0.00088   1.94330
    A4        1.88094   0.00007   0.00003   0.00009   0.00013   1.88106
    A5        1.88505   0.00009   0.00009   0.00021   0.00030   1.88534
    A6        1.88097   0.00002   0.00004  -0.00019  -0.00014   1.88082
    A7        1.93224   0.00000  -0.00005   0.00061   0.00056   1.93280
    A8        1.93185   0.00010  -0.00020   0.00080   0.00060   1.93245
    A9        1.88842  -0.00003   0.00020   0.00012   0.00032   1.88874
   A10        1.93277  -0.00010  -0.00025  -0.00089  -0.00114   1.93163
   A11        1.88851   0.00003   0.00016   0.00012   0.00029   1.88880
   A12        1.88841   0.00000   0.00016  -0.00080  -0.00063   1.88778
   A13        1.94369   0.00010   0.00002   0.00014   0.00016   1.94386
   A14        1.92582   0.00002   0.00009   0.00014   0.00023   1.92605
   A15        1.94358   0.00007  -0.00015   0.00026   0.00011   1.94369
   A16        1.88142  -0.00006   0.00000  -0.00034  -0.00035   1.88108
   A17        1.88577  -0.00010   0.00001   0.00004   0.00005   1.88582
   A18        1.88114  -0.00004   0.00004  -0.00027  -0.00023   1.88091
   A19        1.94389  -0.00001  -0.00002  -0.00037  -0.00039   1.94349
   A20        1.94360   0.00000  -0.00021   0.00052   0.00031   1.94391
   A21        1.92575   0.00001   0.00010  -0.00008   0.00002   1.92577
   A22        1.88568   0.00000   0.00008  -0.00014  -0.00006   1.88562
   A23        1.88140  -0.00001   0.00001  -0.00021  -0.00020   1.88120
   A24        1.88112   0.00002   0.00004   0.00028   0.00032   1.88143
    D1        3.12057   0.00003   0.00012  -0.00131  -0.00119   3.11938
    D2       -1.01253  -0.00003  -0.00038  -0.00146  -0.00184  -1.01436
    D3        1.05385   0.00001  -0.00017  -0.00189  -0.00206   1.05178
    D4       -1.07405   0.00003   0.00013  -0.00076  -0.00063  -1.07469
    D5        1.07604  -0.00002  -0.00037  -0.00091  -0.00128   1.07476
    D6       -3.14077   0.00001  -0.00016  -0.00134  -0.00150   3.14091
    D7        1.01440   0.00003   0.00017  -0.00152  -0.00135   1.01305
    D8       -3.11870  -0.00003  -0.00032  -0.00167  -0.00199  -3.12068
    D9       -1.05232   0.00001  -0.00012  -0.00210  -0.00222  -1.05454
   D10       -3.12015   0.00003  -0.00008  -0.00123  -0.00131  -3.12146
   D11        1.07432   0.00003  -0.00014  -0.00099  -0.00113   1.07319
   D12       -1.01397   0.00003  -0.00015  -0.00090  -0.00106  -1.01502
   D13        1.01348  -0.00003   0.00039  -0.00205  -0.00167   1.01181
   D14       -1.07523  -0.00003   0.00032  -0.00181  -0.00149  -1.07673
   D15        3.11966  -0.00003   0.00031  -0.00173  -0.00142   3.11824
   D16       -1.05349   0.00001   0.00024  -0.00065  -0.00041  -1.05390
   D17        3.14098   0.00001   0.00017  -0.00041  -0.00024   3.14074
   D18        1.05270   0.00001   0.00016  -0.00032  -0.00016   1.05253
   D19        3.12218   0.00000   0.00023  -0.00501  -0.00478   3.11740
   D20        1.01597   0.00001   0.00028  -0.00493  -0.00465   1.01132
   D21       -1.07225  -0.00002   0.00030  -0.00557  -0.00527  -1.07752
   D22       -1.01123   0.00000  -0.00015  -0.00429  -0.00444  -1.01567
   D23       -3.11744   0.00001  -0.00010  -0.00421  -0.00431  -3.12174
   D24        1.07753  -0.00002  -0.00007  -0.00485  -0.00493   1.07260
   D25        1.05580  -0.00002   0.00001  -0.00514  -0.00513   1.05066
   D26       -1.05041  -0.00001   0.00006  -0.00506  -0.00500  -1.05541
   D27       -3.13863  -0.00004   0.00008  -0.00570  -0.00562   3.13893
         Item               Value     Threshold  Converged?
 Maximum Force            0.000124     0.000450     YES
 RMS     Force            0.000042     0.000300     YES
 Maximum Displacement     0.008258     0.001800     NO 
 RMS     Displacement     0.002265     0.001200     NO 
 Predicted change in Energy=-4.831181D-07
 GradGradGradGradGradGradGradGradGradGradGradGradGradGradGradGradGradGrad

                          Input orientation:                          
 ---------------------------------------------------------------------
 Center     Atomic      Atomic             Coordinates (Angstroms)
 Number     Number       Type             X           Y           Z
 ---------------------------------------------------------------------
      1          6           0        0.653328   -0.384926   -0.781629
      2          6           0        0.100758   -0.059806   -2.169549
      3          6           0       -0.072681    1.449061   -2.343415
      4          6           0        1.009244   -0.627989   -3.260260
      5          1           0        0.761077   -1.465491   -0.636562
      6          1           0        1.642535    0.071350   -0.648278
      7          1           0       -0.001263   -0.000521    0.008219
      8          1           0       -0.886794   -0.532559   -2.265592
      9          1           0       -0.487520    1.692509   -3.327757
     10          1           0        0.895597    1.957540   -2.252794
     11          1           0       -0.740984    1.864391   -1.581284
     12          1           0        0.609877   -0.421937   -4.259522
     13          1           0        1.125363   -1.712579   -3.158361
     14          1           0        2.007664   -0.176444   -3.198615
 ---------------------------------------------------------------------
                    Distance matrix (angstroms):
                    1          2          3          4          5
     1  C    0.000000
     2  C    1.528843   0.000000
     3  C    2.515904   1.528722   0.000000
     4  C    2.515823   1.528995   2.515015   0.000000
     5  H    1.095570   2.182206   3.478953   2.765283   0.000000
     6  H    1.097498   2.169918   2.777327   2.777153   1.771718
     7  H    1.095498   2.180962   2.763435   3.478188   1.772862
     8  H    2.143810   1.099081   2.143748   2.143229   2.497915
     9  H    3.478511   2.181313   1.095576   2.762167   4.332954
    10  H    2.776719   2.169881   1.097418   2.777204   3.787802
    11  H    2.764594   2.181082   1.095432   3.477673   3.773168
    12  H    3.478361   2.181359   2.763690   1.095662   3.773288
    13  H    2.763030   2.181565   3.477847   1.095538   2.559928
    14  H    2.778402   2.169994   2.775153   1.097514   3.127258
                    6          7          8          9         10
     6  H    0.000000
     7  H    1.771503   0.000000
     8  H    3.062339   2.497488   0.000000
     9  H    3.787466   3.772471   2.497708   0.000000
    10  H    2.586522   3.122585   3.062299   1.771666   0.000000
    11  H    3.125165   2.559610   2.496980   1.773120   1.771439
    12  H    3.788244   4.331823   2.495600   2.557997   3.125781
    13  H    3.122561   3.771957   2.497651   3.771567   3.787165
    14  H    2.588231   3.788208   3.061902   3.120194   2.585568
                   11         12         13         14
    11  H    0.000000
    12  H    3.771615   0.000000
    13  H    4.331875   1.773143   0.000000
    14  H    3.786269   1.771891   1.771944   0.000000
 Stoichiometry    C4H10
 Framework group  C1[X(C4H10)]
 Deg. of freedom    36
[...]
 Search for a local minimum.
 Step number   1 out of a maximum of    2
 All quantities printed in internal units (Hartrees-Bohrs-Radians)
 Second derivative matrix not updated -- analytic derivatives used.
 ITU=  0
     Eigenvalues ---    0.00198   0.00318   0.00332   0.03624   0.04178
     Eigenvalues ---    0.04219   0.04622   0.04719   0.04727   0.04731
     Eigenvalues ---    0.04766   0.04774   0.12157   0.12249   0.12308
     Eigenvalues ---    0.12340   0.12925   0.13992   0.14758   0.14821
     Eigenvalues ---    0.15475   0.18757   0.18782   0.30020   0.30086
     Eigenvalues ---    0.31515   0.33649   0.33830   0.33843   0.34058
     Eigenvalues ---    0.34134   0.34362   0.34397   0.34909   0.34977
     Eigenvalues ---    0.35175
 Angle between quadratic step and forces=  73.77 degrees.
 Linear search not attempted -- first point.
 Iteration  1 RMS(Cart)=  0.00175423 RMS(Int)=  0.00000222
 Iteration  2 RMS(Cart)=  0.00000234 RMS(Int)=  0.00000004
 Iteration  3 RMS(Cart)=  0.00000000 RMS(Int)=  0.00000004
 Variable       Old X    -DE/DX   Delta X   Delta X   Delta X     New X
                                 (Linear)    (Quad)   (Total)
    R1        2.88927  -0.00004   0.00000  -0.00005  -0.00005   2.88921
    R2        2.07052  -0.00002   0.00000  -0.00003  -0.00003   2.07049
    R3        2.07424   0.00001   0.00000  -0.00001  -0.00001   2.07423
    R4        2.07048  -0.00003   0.00000  -0.00011  -0.00011   2.07037
    R5        2.88930  -0.00001   0.00000   0.00008   0.00008   2.88937
    R6        2.88922   0.00006   0.00000   0.00012   0.00012   2.88934
    R7        2.07741  -0.00001   0.00000  -0.00004  -0.00004   2.07738
    R8        2.07045  -0.00002   0.00000  -0.00008  -0.00008   2.07037
    R9        2.07420   0.00000   0.00000  -0.00003  -0.00003   2.07416
   R10        2.07044  -0.00003   0.00000  -0.00007  -0.00007   2.07037
   R11        2.07042   0.00002   0.00000   0.00007   0.00007   2.07049
   R12        2.07047   0.00001   0.00000   0.00003   0.00003   2.07050
   R13        2.07417  -0.00001   0.00000  -0.00003  -0.00003   2.07414
    A1        1.94401  -0.00002   0.00000  -0.00006  -0.00006   1.94394
    A2        1.92617   0.00001   0.00000   0.00008   0.00008   1.92626
    A3        1.94381  -0.00002   0.00000  -0.00022  -0.00022   1.94359
    A4        1.88084   0.00001   0.00000   0.00007   0.00007   1.88092
    A5        1.88560   0.00001   0.00000  -0.00002  -0.00002   1.88557
    A6        1.88096   0.00001   0.00000   0.00016   0.00016   1.88111
    A7        1.93277  -0.00009   0.00000  -0.00073  -0.00073   1.93203
    A8        1.93266   0.00003   0.00000   0.00018   0.00018   1.93284
    A9        1.88822   0.00002   0.00000   0.00001   0.00001   1.88823
   A10        1.93219   0.00005   0.00000   0.00041   0.00041   1.93260
   A11        1.88815   0.00000   0.00000  -0.00008  -0.00008   1.88807
   A12        1.88818  -0.00002   0.00000   0.00022   0.00022   1.88841
   A13        1.94363   0.00001   0.00000   0.00022   0.00022   1.94385
   A14        1.92600  -0.00001   0.00000  -0.00003  -0.00003   1.92597
   A15        1.94416  -0.00008   0.00000  -0.00080  -0.00080   1.94336
   A16        1.88095   0.00003   0.00000   0.00054   0.00054   1.88149
   A17        1.88553   0.00002   0.00000   0.00000   0.00000   1.88553
   A18        1.88112   0.00003   0.00000   0.00011   0.00011   1.88123
   A19        1.94378  -0.00003   0.00000  -0.00022  -0.00022   1.94357
   A20        1.94392   0.00006   0.00000   0.00030   0.00030   1.94423
   A21        1.92594  -0.00001   0.00000  -0.00005  -0.00005   1.92589
   A22        1.88556  -0.00002   0.00000  -0.00027  -0.00027   1.88529
   A23        1.88116   0.00003   0.00000   0.00029   0.00029   1.88145
   A24        1.88104  -0.00002   0.00000  -0.00006  -0.00006   1.88098
    D1        3.11946  -0.00002   0.00000   0.00214   0.00214   3.12160
    D2       -1.01345   0.00001   0.00000   0.00228   0.00228  -1.01117
    D3        1.05299   0.00001   0.00000   0.00266   0.00266   1.05565
    D4       -1.07530  -0.00001   0.00000   0.00225   0.00225  -1.07305
    D5        1.07497   0.00001   0.00000   0.00238   0.00238   1.07736
    D6        3.14142   0.00002   0.00000   0.00277   0.00277  -3.13900
    D7        1.01313  -0.00001   0.00000   0.00236   0.00236   1.01549
    D8       -3.11978   0.00002   0.00000   0.00250   0.00250  -3.11728
    D9       -1.05334   0.00002   0.00000   0.00288   0.00288  -1.05046
   D10       -3.11961   0.00003   0.00000   0.00000   0.00000  -3.11961
   D11        1.07538  -0.00001   0.00000  -0.00080  -0.00080   1.07457
   D12       -1.01338   0.00001   0.00000  -0.00041  -0.00041  -1.01378
   D13        1.01303   0.00001   0.00000  -0.00001  -0.00001   1.01302
   D14       -1.07517  -0.00002   0.00000  -0.00081  -0.00081  -1.07598
   D15        3.11926   0.00000   0.00000  -0.00041  -0.00041   3.11885
   D16       -1.05310   0.00000   0.00000  -0.00047  -0.00047  -1.05357
   D17       -3.14130  -0.00003   0.00000  -0.00127  -0.00127   3.14062
   D18        1.05313  -0.00002   0.00000  -0.00087  -0.00087   1.05226
   D19        3.11499   0.00003   0.00000   0.00343   0.00343   3.11842
   D20        1.00878   0.00004   0.00000   0.00371   0.00371   1.01249
   D21       -1.07968   0.00004   0.00000   0.00362   0.00362  -1.07606
   D22       -1.01759  -0.00002   0.00000   0.00291   0.00291  -1.01468
   D23       -3.12380  -0.00001   0.00000   0.00319   0.00319  -3.12061
   D24        1.07093  -0.00002   0.00000   0.00310   0.00310   1.07403
   D25        1.04852   0.00000   0.00000   0.00319   0.00319   1.05171
   D26       -1.05769   0.00001   0.00000   0.00347   0.00347  -1.05422
   D27        3.13704   0.00001   0.00000   0.00338   0.00338   3.14042
         Item               Value     Threshold  Converged?
 Maximum Force            0.000087     0.000450     YES
 RMS     Force            0.000027     0.000300     YES
 Maximum Displacement     0.006012     0.001800     NO 
 RMS     Displacement     0.001754     0.001200     NO 
 Predicted change in Energy=-3.903075D-07
 GradGradGradGradGradGradGradGradGradGradGradGradGradGradGradGradGradGrad

 1\1\GINC-KATANA1\Freq\RM062X\6-31+G(d)\C4H10\Z5358697\17-Mar-2025\0\\#
 N Geom=AllCheck Guess=TCheck SCRF=Check GenChk RM062X/6-31+G(d) Freq\\
 isobutane\\0,1\C,0.6529350836,-0.3850540155,-0.7815655452\C,0.10108490
 38,-0.0596055587,-2.1697967771\C,-0.0726144428,1.449509193,-2.34326383
 42\C,1.0094906168,-0.6280915892,-3.260294141\H,0.7605766937,-1.4659015
 67,-0.637764597\H,1.6423746066,0.0708243988,-0.6473880966\H,-0.0020047
 308,-0.0012714843,0.0085049933\H,-0.886969676,-0.5319050908,-2.2656448
 234\H,-0.488693931,1.6928578675,-3.3271698594\H,0.8960177297,1.9579984
 813,-2.2540794895\H,-0.7402082759,1.8652368457,-1.580443892\H,0.609490
 2593,-0.4239815719,-4.2596533365\H,1.1271035979,-1.7124978581,-3.15697
 37072\H,2.0076175649,-0.1755180506,-3.1998668941\\Version=ES64L-G09Rev
 D.01\State=1-A\HF=-158.3633988\RMSD=8.324e-10\RMSF=3.140e-05\ZeroPoint
 =0.1329765\Thermal=0.1386358\Dipole=-0.0478313,-0.0227339,-0.0045995\D
 ipoleDeriv=0.0973251,0.0258971,-0.0075565,0.0396401,0.0584386,0.026093
 9,-0.0348552,0.0083003,-0.0070708,0.1183574,-0.0143348,-0.0033187,-0.0
 16548,0.1420211,-0.0020918,-0.0055043,-0.0006998,0.1492142,0.1078206,0
 .050597,0.0002538,0.0160054,-0.0087449,0.0084285,0.0051682,0.0155612,0
 .0521664,0.0810028,0.0315096,0.0205162,0.0542884,0.0508262,-0.0199081,
 0.0492143,-0.0096359,0.0137972,0.0581866,0.0225465,-0.0252629,0.034917
 7,-0.166829,0.0672662,-0.0174119,0.0090152,0.0333162,-0.1159599,-0.069
 1516,-0.0567819,-0.1023067,0.0210863,-0.0169269,0.0195595,0.0217944,0.
 0379272,-0.0241586,0.0513491,0.1116109,0.056011,0.0396849,-0.0775705,0
 .0649638,-0.0379316,-0.094659,-0.1652452,-0.073759,-0.0131454,-0.07400
 7,-0.044569,-0.0084194,-0.0141013,-0.0080207,-0.0117939,0.0363741,0.02
 82766,-0.0746516,0.0128311,0.0142904,0.0266176,-0.0895266,0.0838675,-0
 .1277821,-0.1218344,-0.1198464,-0.0141131,-0.0288921,0.0005434,0.00171
 15,-0.0231746,-0.011596,0.0641219,-0.0193367,0.0720607,0.0947737,0.042
 2921,-0.0098514,-0.0365372,0.1125599,-0.0889043,-0.0498958,0.019229,0.
 0233012,-0.0819711,0.0257399,0.0589939,0.0536854,-0.0358474,0.0137712,
 -0.1543456,0.046825,0.0236945,0.023596,0.0505941,-0.1717435,-0.014167,
 0.0109814,0.0404712,0.0503583,-0.1185858,-0.0521406,0.0260505,-0.11056
 59,0.015853,-0.0081821,-0.0420257,-0.0359927,0.0446457\Polar=46.089102
 4,-1.900838,49.0163054,-0.4395067,-0.1500115,49.9938368\PG=C01 [X(C4H1
 0)]\NImag=0\\0.56425148,0.00215239,0.58272358,-0.03649751,0.01780666,0
 .50771742,-0.09787021,0.00797117,-0.04174726,0.58439748,0.00924321,-0.
 08341607,0.02355926,0.04211284,0.51813901,-0.04450460,0.02207542,-0.17
 964414,0.00870093,0.00361565,0.49725174,-0.00234160,0.01442392,-0.0033
 5882,-0.08088082,0.00860435,-0.00128910,0.57836698,0.00289397,-0.01192
 676,0.00658255,0.01184598,-0.20146194,0.01372254,0.00315857,0.48781424
 ,-0.00471354,0.03465206,-0.00689198,-0.00156447,0.01325708,-0.07961794
 ,-0.00250655,0.01123996,0.58818438,0.00777198,-0.00495573,-0.00678154,
 -0.12637092,0.02764279,0.05519108,-0.00401987,0.00523798,0.00362462,0.
 53954671,-0.00453236,0.00274498,0.00325193,0.02560058,-0.09456374,-0.0
 3148915,0.02355845,-0.01893780,-0.02646551,0.01625181,0.57391754,0.019
 61970,-0.01174434,-0.03176202,0.05256244,-0.03220603,-0.14030219,-0.00
 065489,-0.00276653,0.00187737,0.04333175,-0.02550224,0.53897017,-0.050
 88892,0.02401575,-0.00270077,-0.00222469,0.01305496,-0.00082437,-0.000
 71951,-0.00004385,-0.00256932,0.00008818,-0.00039609,0.00068578,0.0507
 0111,0.02400842,-0.31017029,0.03178684,0.00011683,-0.00625032,-0.00066
 096,0.00110288,0.00117821,0.00219290,-0.00023438,0.00047387,-0.0007516
 7,-0.02719351,0.33613161,-0.00282610,0.03098252,-0.05178860,-0.0010228
 7,0.03073587,-0.00300996,-0.00233736,-0.00007775,-0.00607840,-0.000273
 79,0.00134602,0.00166653,0.00498950,-0.03576791,0.05562548,-0.26124290
 ,-0.09951990,-0.02525829,-0.01309897,-0.00553315,-0.00178951,0.0004581
 8,-0.00052571,0.00068301,0.00097793,0.00040589,0.00091735,0.00405707,0
 .00191226,0.00093263,0.28428849,-0.09965903,-0.09515768,-0.01243941,0.
 00649097,0.00191247,0.00092914,0.00134095,0.00110152,-0.00005210,-0.00
 008275,-0.00006729,-0.00032028,-0.03036947,-0.01247759,-0.00356599,0.1
 0992725,0.09917473,-0.02543705,-0.01237918,-0.05058425,-0.02886957,-0.
 01338871,-0.00463584,-0.00000520,-0.00153865,0.00114209,-0.00148250,-0
 .00043274,0.00170001,0.00386094,0.00118321,-0.00070932,0.03094450,0.01
 238648,0.05553403,-0.14866674,0.05783091,0.11710125,0.00798992,-0.0048
 6615,-0.01000776,0.00039059,-0.00057402,-0.00005822,-0.00032907,0.0006
 1170,-0.00205132,-0.00193935,0.00013732,0.00070648,-0.01707951,0.01177
 715,0.02111164,0.15812223,0.05814013,-0.08315908,-0.06805974,-0.005073
 67,0.00080789,0.00501756,-0.00076389,0.00079959,0.00068070,0.00033967,
 -0.00011385,0.00116834,0.02027939,-0.01005028,-0.02386405,-0.00873037,
 0.00498392,0.01146728,-0.06441119,0.08579976,0.11651866,-0.06757335,-0
 .18490937,0.02001756,-0.01089634,-0.02017932,0.00099234,-0.00131902,0.
 00105162,-0.00430690,0.00242408,-0.00528250,-0.00353732,0.00131850,0.0
 0346691,-0.00275935,0.00219605,0.00313249,-0.12684730,0.07392804,0.202
 12185,-0.01118212,-0.00487384,-0.00208241,-0.25430084,-0.09855249,-0.0
 1997783,0.00410225,0.00217415,0.00040297,-0.01899395,-0.00797865,-0.00
 061486,0.00001432,0.00039441,0.00014397,0.00049039,0.00098244,-0.00234
 400,0.00067374,-0.00005384,-0.00023007,0.27727109,0.00734837,0.0031714
 9,0.00117094,-0.09875853,-0.09515189,-0.00951586,-0.03037776,-0.017624
 43,-0.00265504,0.01258324,0.00520983,0.00047415,0.00015759,0.00043982,
 -0.00059078,0.00113174,0.00046496,0.00155755,-0.00040265,-0.00003501,-
 0.00044867,0.10547433,0.10722060,-0.02932022,-0.01313307,-0.00526014,-
 0.02010452,-0.00950497,-0.04995350,0.00359960,0.00201313,0.00013445,0.
 02358580,0.01007021,0.00072165,0.00055701,0.00024472,0.00120820,-0.002
 65221,0.00137712,-0.00565627,0.00064719,-0.00055536,0.00105841,0.02142
 601,0.01018579,0.05894134,0.00043778,0.00114342,0.00038825,-0.00238552
 ,-0.00033518,-0.00193544,-0.08800105,0.02163472,-0.09204369,-0.0001060
 0,-0.00024068,-0.00063811,0.00041873,0.00009206,-0.00041453,0.00040891
 ,-0.00011902,0.00038495,0.00005066,-0.00007851,-0.00034286,0.00026105,
 0.00015242,0.00046709,0.09059299,0.00028894,-0.00720134,-0.00079017,0.
 01375022,-0.00551778,0.03055750,0.02137260,-0.05935033,0.04967167,-0.0
 0035843,0.00147586,0.00139692,0.00090183,-0.00050964,0.00208910,0.0002
 0412,0.00004377,-0.00016960,-0.00027958,0.00005669,-0.00012419,-0.0006
 1431,0.00135168,-0.00018875,-0.02431531,0.06481040,0.00049492,0.001602
 75,0.00104427,-0.00047724,-0.00044991,-0.00352523,-0.09239430,0.050367
 92,-0.26545114,0.00030219,-0.00066123,0.00082952,-0.00034481,0.0001675
 5,-0.00016031,0.00006819,-0.00017311,0.00009817,-0.00000756,-0.0001976
 1,0.00036811,0.00030985,0.00040274,0.00010703,0.10163620,-0.05594331,0
 .28693115,0.00098268,0.00046838,0.00022654,0.00190257,0.00122204,0.000
 23164,-0.25578442,-0.10535024,-0.01937354,0.00126489,0.00059907,-0.000
 02598,0.00025285,-0.00000465,0.00016936,0.00003367,-0.00033785,0.00042
 112,-0.00011857,-0.00010776,-0.00006817,0.00148192,0.00101116,0.000034
 33,-0.01040577,-0.00473820,0.00004027,0.27699216,-0.00105893,0.0014636
 2,-0.00123933,-0.03108514,-0.01737986,-0.00287073,-0.10566358,-0.10023
 393,-0.01020331,-0.00161591,0.00142942,0.00065636,0.00035215,0.0003457
 9,-0.00023822,0.00079846,0.00010587,0.00067180,0.00011855,-0.00003899,
 0.00009611,0.00140232,-0.00668131,0.00090452,0.00714254,0.00288308,-0.
 00010481,0.11659411,0.11216800,0.00122616,0.00031828,0.00038060,0.0033
 8264,0.00178987,-0.00077229,-0.01940948,-0.01010467,-0.05049543,-0.000
 71243,-0.00043730,-0.00006932,-0.00010905,-0.00021290,-0.00003606,-0.0
 0033333,0.00023417,0.00004849,0.00013137,-0.00003749,-0.00004871,-0.00
 000863,0.00084257,0.00048329,-0.02700480,-0.01445401,-0.00143221,0.021
 74607,0.01040786,0.04957542,-0.00008262,-0.00029518,0.00040177,-0.0025
 1445,-0.00017157,0.00140114,-0.15039823,0.06084251,0.11513315,0.000754
 53,0.00118968,-0.00071416,0.00011987,-0.00013491,-0.00024542,-0.000121
 90,0.00003428,0.00012063,0.00006451,0.00036769,-0.00049692,0.00046059,
 0.00019482,-0.00041819,0.00876077,-0.00598185,-0.00949756,-0.01703458,
 0.01147318,0.02098384,0.15929700,-0.00005172,0.00132117,-0.00157508,0.
 02133852,-0.01090574,-0.02383914,0.06037699,-0.08423984,-0.06893443,-0
 .00029035,-0.00688570,0.00234407,-0.00044652,0.00020556,-0.00001876,-0
 .00002038,-0.00004148,0.00015703,-0.00004991,-0.00002743,0.00098839,-0
 .00059629,0.00113768,-0.00024170,-0.00541029,0.00206617,0.00472377,-0.
 00875466,0.00562029,0.01184151,-0.06742619,0.09239034,-0.00053219,0.00
 048853,0.00099422,-0.00365072,0.00196100,0.00187881,0.11566025,-0.0694
 7219,-0.18138376,-0.00058271,0.00026113,0.00056957,-0.00005817,-0.0001
 6258,0.00014897,-0.00007092,-0.00009460,-0.00004326,0.00021466,0.00005
 402,0.00027013,-0.00010072,-0.00056772,0.00002199,0.01903449,-0.010837
 14,-0.01933182,-0.00293699,0.00215938,0.00233485,-0.12712386,0.0758149
 7,0.19380697,-0.00228548,0.00179813,0.00247058,0.00817185,-0.00422349,
 0.01938552,0.00059034,-0.00093430,0.00013338,-0.08640558,0.01921112,-0
 .09247875,-0.00021231,0.00002217,-0.00014008,0.00025582,0.00024852,0.0
 0030748,0.00068433,-0.00004280,0.00125346,0.00075219,-0.00061667,-0.00
 050708,0.00003529,0.00016974,-0.00028776,-0.00008549,0.00010697,-0.000
 16267,-0.00002506,-0.00029999,-0.00004501,0.09097496,0.00161007,-0.000
 88162,-0.00147386,-0.00582266,0.00082610,-0.01088614,-0.00074935,0.000
 90462,-0.00089386,0.01951053,-0.05903806,0.04666432,-0.00001106,0.0003
 3787,-0.00029062,0.00020063,-0.00004708,0.00024877,-0.00007604,0.00064
 524,-0.00072433,-0.00018283,0.00015427,0.00067145,0.00047838,-0.000281
 17,0.00003901,-0.00009000,-0.00005269,-0.00002179,-0.00008079,0.000114
 77,0.00023887,-0.02268557,0.05977596,0.00472335,-0.00267193,-0.0023164
 9,-0.01047873,0.00513905,-0.02034286,-0.00093177,0.00113099,0.00071350
 ,-0.09202334,0.04617253,-0.26869494,0.00004180,0.00005466,0.00035093,-
 0.00002088,-0.00007479,0.00033978,-0.00056299,0.00025871,-0.00158373,0
 .00028427,0.00041512,0.00061461,0.00036905,-0.00093624,0.00035233,0.00
 007525,-0.00005881,-0.00006959,0.00024506,0.00009209,0.00038419,0.0990
 5223,-0.04990688,0.29299900,0.00030576,-0.00019236,-0.00101619,-0.0021
 9799,0.02084680,-0.00320426,-0.00238600,0.00069683,0.00347477,-0.05098
 296,0.02583140,-0.00348302,0.00036392,-0.00029493,0.00023378,-0.000031
 76,-0.00018225,0.00008919,-0.00019694,-0.00011530,-0.00017915,0.000270
 97,-0.00014977,-0.00084944,0.00002387,-0.00041859,0.00011634,0.0002558
 8,0.00033892,0.00013936,0.00021501,0.00146775,0.00016585,-0.00203790,0
 .01272799,-0.00063412,0.05206431,-0.00048445,0.00039220,0.00083832,-0.
 00010115,-0.01139125,0.00253637,0.00236829,0.00054549,-0.00284571,0.02
 616313,-0.31094638,0.02736817,-0.00014487,0.00042082,-0.00066342,0.000
 07354,-0.00011565,-0.00007508,0.00004478,0.00037925,-0.00005167,0.0004
 0188,0.00052643,-0.00001522,-0.00012659,0.00021764,0.00011767,-0.00006
 698,0.00040795,0.00010669,0.00020309,-0.00087105,0.00003948,-0.0000584
 2,-0.00463424,0.00032911,-0.03009773,0.33757562,-0.00003322,-0.0012367
 1,0.00140168,0.00044362,-0.02409614,0.00223356,0.00297034,-0.00099901,
 -0.00375149,-0.00348147,0.02821327,-0.05142976,0.00008066,0.00055837,-
 0.00060283,-0.00009446,0.00001543,-0.00007659,-0.00002026,0.00025781,0
 .00029105,-0.00044165,0.00066558,0.00080925,0.00023682,-0.00011205,0.0
 0022014,-0.00005501,0.00021423,-0.00011630,0.00042968,-0.00154729,0.00
 041348,-0.00170206,0.03022864,-0.00189562,0.00141946,-0.02934446,0.053
 44673,0.00081092,0.00003293,-0.00114558,-0.02061742,-0.00904495,-0.001
 37741,0.00062316,-0.00105659,-0.00062258,-0.26319587,-0.10011193,-0.01
 645594,-0.00003126,0.00007602,0.00008444,0.00060457,-0.00005121,0.0008
 9789,0.00035420,0.00025044,-0.00001398,-0.00130158,0.00225171,0.003534
 64,-0.00009170,0.00001881,0.00004129,0.00026220,0.00109636,0.00013096,
 0.00050457,0.00016304,0.00002604,-0.01041297,-0.00482930,-0.00013918,0
 .00433383,0.00182548,0.00024754,0.28815735,0.00010099,0.00009582,0.000
 58109,0.01161404,0.00435312,0.00080781,0.00124758,0.00143136,0.0003556
 0,-0.10019161,-0.09469867,-0.00678125,-0.00015633,-0.00007543,-0.00007
 602,-0.00032439,0.00011953,0.00031185,0.00013913,-0.00004771,0.0001863
 9,0.00202272,-0.00018410,-0.00182786,-0.00001797,-0.00004503,0.0001085
 7,-0.00044441,-0.00003726,-0.00027279,-0.00021476,0.00011526,0.0001168
 5,0.00730459,0.00217604,0.00005637,-0.03045878,-0.01250684,-0.00281766
 ,0.10937919,0.09930391,0.00128165,0.00081236,0.00161880,0.02280820,0.0
 1048432,0.00061918,-0.00033506,0.00122074,0.00056675,-0.01639075,-0.00
 675099,-0.04879408,-0.00007188,0.00004927,-0.00008153,-0.00056673,-0.0
 0041811,-0.00028953,-0.00035719,-0.00011820,0.00024307,0.00323311,-0.0
 0193636,-0.00323030,-0.00013741,-0.00015974,-0.00005002,-0.00048487,-0
 .00039507,0.00021727,-0.00021914,0.00019456,-0.00006433,-0.02727924,-0
 .01389357,-0.00085112,0.00372744,0.00165974,-0.00094330,0.01479187,0.0
 0925105,0.05103913\\0.00000260,-0.00008416,-0.00002524,0.00005081,0.00
 003725,0.00000750,-0.00002319,-0.00008375,0.00001514,-0.00007099,0.000
 02008,-0.00000584,0.00001051,-0.00001184,0.00001914,0.00000807,-0.0000
 0610,-0.00001147,0.00001577,0.00003075,0.00004197,-0.00000203,-0.00001
 201,-0.00001147,0.00001551,0.00001521,-0.00002203,0.00000036,0.0000133
 4,-0.00004358,0.00000792,0.00006701,0.00001216,0.00001174,-0.00000487,
 0.00001456,-0.00001792,0.00000750,0.00004686,-0.00000917,0.00001158,-0
 .00003771\\\@


 BULLDOZER: SOMEONE WHO SLEEPS THROUGH SPEECHES.
 Job cpu time:       0 days  0 hours  1 minutes 40.5 seconds.
 File lengths (MBytes):  RWF=    132 Int=      0 D2E=      0 Chk=      3 Scr=      2
 Normal termination of Gaussian 09 at Mon Mar 17 15:43:49 2025.
