 Entering Gaussian System, Link 0=g09
 Initial command:
 /apps/z_install_tree/linux-rocky8-ivybridge/gcc-12.2.0/gaussian-09-D.01-wczn3gur5lpur3omlkzwa2l5ecyxp5ef/g09/l1.exe "/srv/scratch/z5358697/gauss/Gau-4160472.inp" -scrdir="/srv/scratch/z5358697/gauss/"
 Entering Link 1 = /apps/z_install_tree/linux-rocky8-ivybridge/gcc-12.2.0/gaussian-09-D.01-wczn3gur5lpur3omlkzwa2l5ecyxp5ef/g09/l1.exe PID=   4160512.
  
 Copyright (c) 1988,1990,1992,1993,1995,1998,2003,2009,2013,
            Gaussian, Inc.  All Rights Reserved.
  
 This is part of the Gaussian(R) 09 program.  It is based on
 the Gaussian(R) 03 system (copyright 2003, Gaussian, Inc.),
 the Gaussian(R) 98 system (copyright 1998, Gaussian, Inc.),
 the Gaussian(R) 94 system (copyright 1995, Gaussian, Inc.),
 the Gaussian 92(TM) system (copyright 1992, Gaussian, Inc.),
 the Gaussian 90(TM) system (copyright 1990, Gaussian, Inc.),
 the Gaussian 88(TM) system (copyright 1988, Gaussian, Inc.),
 the Gaussian 86(TM) system (copyright 1986, Carnegie Mellon
 University), and the Gaussian 82(TM) system (copyright 1983,
 Carnegie Mellon University). Gaussian is a federally registered
 trademark of Gaussian, Inc.
  
 This software contains proprietary and confidential information,
 including trade secrets, belonging to Gaussian, Inc.
  
 This software is provided under written license and may be
 used, copied, transmitted, or stored only in accord with that
 written license.
  
 The following legend is applicable only to US Government
 contracts under FAR:
  
                    RESTRICTED RIGHTS LEGEND
  
 Use, reproduction and disclosure by the US Government is
 subject to restrictions as set forth in subparagraphs (a)
 and (c) of the Commercial Computer Software - Restricted
 Rights clause in FAR 52.227-19.
  
 Gaussian, Inc.
 340 Quinnipiac St., Bldg. 40, Wallingford CT 06492
  
  
 ---------------------------------------------------------------
 Warning -- This program may not be used in any manner that
 competes with the business of Gaussian, Inc. or will provide
 assistance to any competitor of Gaussian, Inc.  The licensee
 of this program is prohibited from giving any competitor of
 Gaussian, Inc. access to this program.  By using this program,
 the user acknowledges that Gaussian, Inc. is engaged in the
 business of creating and licensing software in the field of
 computational chemistry and represents and warrants to the
 licensee that it is not a competitor of Gaussian, Inc. and that
 it will not use this program in any manner prohibited above.
 ---------------------------------------------------------------
  

 Cite this work as:
 Gaussian 09, Revision D.01,
 M. J. Frisch, G. W. Trucks, H. B. Schlegel, G. E. Scuseria, 
 M. A. Robb, J. R. Cheeseman, G. Scalmani, V. Barone, B. Mennucci, 
 G. A. Petersson, H. Nakatsuji, M. Caricato, X. Li, H. P. Hratchian, 
 A. F. Izmaylov, J. Bloino, G. Zheng, J. L. Sonnenberg, M. Hada, 
 M. Ehara, K. Toyota, R. Fukuda, J. Hasegawa, M. Ishida, T. Nakajima, 
 Y. Honda, O. Kitao, H. Nakai, T. Vreven, J. A. Montgomery, Jr., 
 J. E. Peralta, F. Ogliaro, M. Bearpark, J. J. Heyd, E. Brothers, 
 K. N. Kudin, V. N. Staroverov, T. Keith, R. Kobayashi, J. Normand, 
 K. Raghavachari, A. Rendell, J. C. Burant, S. S. Iyengar, J. Tomasi, 
 M. Cossi, N. Rega, J. M. Millam, M. Klene, J. E. Knox, J. B. Cross, 
 V. Bakken, C. Adamo, J. Jaramillo, R. Gomperts, R. E. Stratmann, 
 O. Yazyev, A. J. Austin, R. Cammi, C. Pomelli, J. W. Ochterski, 
 R. L. Martin, K. Morokuma, V. G. Zakrzewski, G. A. Voth, 
 P. Salvador, J. J. Dannenberg, S. Dapprich, A. D. Daniels, 
 O. Farkas, J. B. Foresman, J. V. Ortiz, J. Cioslowski, 
 and D. J. Fox, Gaussian, Inc., Wallingford CT, 2013.
 
 ******************************************
 Gaussian 09:  ES64L-G09RevD.01 24-Apr-2013
                18-Mar-2025 
 ******************************************
 ---------------------------------
 #m062X/6-31+G(d) OPT Freq=noraman
 ---------------------------------
 1/14=-1,18=20,19=15,26=3,38=1/1,3;
 2/9=110,12=2,17=6,18=5,40=1/2;
 3/5=1,6=6,7=11,11=2,16=1,25=1,30=1,71=1,74=-55/1,2,3;
 4//1;
 5/5=2,38=5/2;
 6/7=2,8=2,9=2,10=2,28=1/1;
 7//1,2,3,16;
 1/14=-1,18=20,19=15,26=3/3(2);
 2/9=110/2;
 99//99;
 2/9=110/2;
 3/5=1,6=6,7=11,11=2,16=1,25=1,30=1,71=1,74=-55/1,2,3;
 4/5=5,16=3,69=1/1;
 5/5=2,38=5/2;
 7//1,2,3,16;
 1/14=-1,18=20,19=15,26=3/3(-5);
 2/9=110/2;
 6/7=2,8=2,9=2,10=2,19=2,28=1/1;
 99/9=1/99;
 ---------
 quinoline
 ---------
 Symbolic Z-matrix:
 Charge =  0 Multiplicity = 1
 C                     0.1298    2.0977   -0.4527 
 C                    -0.5469    0.8976   -0.2738 
 C                    -1.9323    0.844    -0.4461 
 C                    -2.6683    1.9725   -0.7968 
 C                    -1.9747    3.1875   -0.977 
 C                    -0.5812    3.2417   -0.8037 
 C                    -2.7151    4.3237   -1.3301 
 C                    -4.0902    4.2376   -1.4936 
 C                    -4.6804    3.0058   -1.2959 
 N                    -4.0027    1.8858   -0.9548 
 H                     1.2068    2.1425   -0.3219 
 H                     0.0001    0.       -0.0007 
 H                    -2.4389   -0.1083   -0.2998 
 H                    -0.0422    4.1763   -0.9411 
 H                    -2.2235    5.2822   -1.4809 
 H                    -4.6779    5.1058   -1.7678 
 H                    -5.7519    2.8778   -1.4106 
 

 GradGradGradGradGradGradGradGradGradGradGradGradGradGradGradGradGradGrad
 Berny optimization.
 Initialization pass.
                           ----------------------------
                           !    Initial Parameters    !
                           ! (Angstroms and Degrees)  !
 --------------------------                            --------------------------
 ! Name  Definition              Value          Derivative Info.                !
 --------------------------------------------------------------------------------
 ! R1    R(1,2)                  1.3893         estimate D2E/DX2                !
 ! R2    R(1,6)                  1.3919         estimate D2E/DX2                !
 ! R3    R(1,11)                 1.0858         estimate D2E/DX2                !
 ! R4    R(2,3)                  1.3971         estimate D2E/DX2                !
 ! R5    R(2,12)                 1.086          estimate D2E/DX2                !
 ! R6    R(3,4)                  1.3922         estimate D2E/DX2                !
 ! R7    R(3,13)                 1.0885         estimate D2E/DX2                !
 ! R8    R(4,5)                  1.4106         estimate D2E/DX2                !
 ! R9    R(4,10)                 1.3465         estimate D2E/DX2                !
 ! R10   R(5,6)                  1.4053         estimate D2E/DX2                !
 ! R11   R(5,7)                  1.4014         estimate D2E/DX2                !
 ! R12   R(6,14)                 1.0876         estimate D2E/DX2                !
 ! R13   R(7,8)                  1.3875         estimate D2E/DX2                !
 ! R14   R(7,15)                 1.0877         estimate D2E/DX2                !
 ! R15   R(8,9)                  1.3801         estimate D2E/DX2                !
 ! R16   R(8,16)                 1.0837         estimate D2E/DX2                !
 ! R17   R(9,10)                 1.3528         estimate D2E/DX2                !
 ! R18   R(9,17)                 1.0852         estimate D2E/DX2                !
 ! A1    A(2,1,6)              119.579          estimate D2E/DX2                !
 ! A2    A(2,1,11)             120.2147         estimate D2E/DX2                !
 ! A3    A(6,1,11)             120.2061         estimate D2E/DX2                !
 ! A4    A(1,2,3)              120.0171         estimate D2E/DX2                !
 ! A5    A(1,2,12)             120.0655         estimate D2E/DX2                !
 ! A6    A(3,2,12)             119.9174         estimate D2E/DX2                !
 ! A7    A(2,3,4)              121.6146         estimate D2E/DX2                !
 ! A8    A(2,3,13)             118.5864         estimate D2E/DX2                !
 ! A9    A(4,3,13)             119.799          estimate D2E/DX2                !
 ! A10   A(3,4,5)              118.062          estimate D2E/DX2                !
 ! A11   A(3,4,10)             120.0842         estimate D2E/DX2                !
 ! A12   A(5,4,10)             121.8538         estimate D2E/DX2                !
 ! A13   A(4,5,6)              120.3348         estimate D2E/DX2                !
 ! A14   A(4,5,7)              118.0834         estimate D2E/DX2                !
 ! A15   A(6,5,7)              121.5818         estimate D2E/DX2                !
 ! A16   A(1,6,5)              120.3924         estimate D2E/DX2                !
 ! A17   A(1,6,14)             119.0107         estimate D2E/DX2                !
 ! A18   A(5,6,14)             120.5969         estimate D2E/DX2                !
 ! A19   A(5,7,8)              120.1996         estimate D2E/DX2                !
 ! A20   A(5,7,15)             120.7043         estimate D2E/DX2                !
 ! A21   A(8,7,15)             119.096          estimate D2E/DX2                !
 ! A22   A(7,8,9)              117.5381         estimate D2E/DX2                !
 ! A23   A(7,8,16)             121.1708         estimate D2E/DX2                !
 ! A24   A(9,8,16)             121.2911         estimate D2E/DX2                !
 ! A25   A(8,9,10)             124.113          estimate D2E/DX2                !
 ! A26   A(8,9,17)             120.8223         estimate D2E/DX2                !
 ! A27   A(10,9,17)            115.0646         estimate D2E/DX2                !
 ! A28   A(4,10,9)             118.2121         estimate D2E/DX2                !
 ! D1    D(6,1,2,3)             -0.0025         estimate D2E/DX2                !
 ! D2    D(6,1,2,12)           179.9496         estimate D2E/DX2                !
 ! D3    D(11,1,2,3)          -179.8556         estimate D2E/DX2                !
 ! D4    D(11,1,2,12)            0.0964         estimate D2E/DX2                !
 ! D5    D(2,1,6,5)             -0.0001         estimate D2E/DX2                !
 ! D6    D(2,1,6,14)           179.9811         estimate D2E/DX2                !
 ! D7    D(11,1,6,5)           179.8531         estimate D2E/DX2                !
 ! D8    D(11,1,6,14)           -0.1657         estimate D2E/DX2                !
 ! D9    D(1,2,3,4)             -0.0046         estimate D2E/DX2                !
 ! D10   D(1,2,3,13)          -179.9827         estimate D2E/DX2                !
 ! D11   D(12,2,3,4)          -179.9567         estimate D2E/DX2                !
 ! D12   D(12,2,3,13)            0.0652         estimate D2E/DX2                !
 ! D13   D(2,3,4,5)              0.0138         estimate D2E/DX2                !
 ! D14   D(2,3,4,10)          -179.9952         estimate D2E/DX2                !
 ! D15   D(13,3,4,5)           179.9916         estimate D2E/DX2                !
 ! D16   D(13,3,4,10)           -0.0174         estimate D2E/DX2                !
 ! D17   D(3,4,5,6)             -0.0162         estimate D2E/DX2                !
 ! D18   D(3,4,5,7)            179.996          estimate D2E/DX2                !
 ! D19   D(10,4,5,6)           179.993          estimate D2E/DX2                !
 ! D20   D(10,4,5,7)             0.0052         estimate D2E/DX2                !
 ! D21   D(3,4,10,9)          -179.9974         estimate D2E/DX2                !
 ! D22   D(5,4,10,9)            -0.0068         estimate D2E/DX2                !
 ! D23   D(4,5,6,1)              0.0097         estimate D2E/DX2                !
 ! D24   D(4,5,6,14)          -179.9713         estimate D2E/DX2                !
 ! D25   D(7,5,6,1)            179.997          estimate D2E/DX2                !
 ! D26   D(7,5,6,14)             0.0161         estimate D2E/DX2                !
 ! D27   D(4,5,7,8)             -0.0029         estimate D2E/DX2                !
 ! D28   D(4,5,7,15)          -179.9255         estimate D2E/DX2                !
 ! D29   D(6,5,7,8)           -179.9906         estimate D2E/DX2                !
 ! D30   D(6,5,7,15)             0.0869         estimate D2E/DX2                !
 ! D31   D(5,7,8,9)              0.0025         estimate D2E/DX2                !
 ! D32   D(5,7,8,16)          -179.9121         estimate D2E/DX2                !
 ! D33   D(15,7,8,9)           179.9263         estimate D2E/DX2                !
 ! D34   D(15,7,8,16)            0.0117         estimate D2E/DX2                !
 ! D35   D(7,8,9,10)            -0.0043         estimate D2E/DX2                !
 ! D36   D(7,8,9,17)          -179.9433         estimate D2E/DX2                !
 ! D37   D(16,8,9,10)          179.9101         estimate D2E/DX2                !
 ! D38   D(16,8,9,17)           -0.0288         estimate D2E/DX2                !
 ! D39   D(8,9,10,4)             0.0065         estimate D2E/DX2                !
 ! D40   D(17,9,10,4)          179.9486         estimate D2E/DX2                !
 --------------------------------------------------------------------------------
 Trust Radius=3.00D-01 FncErr=1.00D-07 GrdErr=1.00D-06
 Number of steps in this run=     96 maximum allowed number of steps=    102.
 GradGradGradGradGradGradGradGradGradGradGradGradGradGradGradGradGradGrad

                          Input orientation:                          
 ---------------------------------------------------------------------
 Center     Atomic      Atomic             Coordinates (Angstroms)
 Number     Number       Type             X           Y           Z
 ---------------------------------------------------------------------
      1          6           0        0.129800    2.097700   -0.452700
      2          6           0       -0.546900    0.897600   -0.273800
      3          6           0       -1.932300    0.844000   -0.446100
      4          6           0       -2.668300    1.972500   -0.796800
      5          6           0       -1.974700    3.187500   -0.977000
      6          6           0       -0.581200    3.241700   -0.803700
      7          6           0       -2.715100    4.323700   -1.330100
      8          6           0       -4.090200    4.237600   -1.493600
      9          6           0       -4.680400    3.005800   -1.295900
     10          7           0       -4.002700    1.885800   -0.954800
     11          1           0        1.206800    2.142500   -0.321900
     12          1           0        0.000100    0.000000   -0.000700
     13          1           0       -2.438900   -0.108300   -0.299800
     14          1           0       -0.042200    4.176300   -0.941100
     15          1           0       -2.223500    5.282200   -1.480900
     16          1           0       -4.677900    5.105800   -1.767800
     17          1           0       -5.751900    2.877800   -1.410600
 ---------------------------------------------------------------------
                    Distance matrix (angstroms):
                    1          2          3          4          5
     1  C    0.000000
     2  C    1.389305   0.000000
     3  C    2.413310   1.397102   0.000000
     4  C    2.821957   2.435011   1.392192   0.000000
     5  C    2.427236   2.788682   2.403257   1.410595   0.000000
     6  C    1.391926   2.403492   2.775304   2.442724   1.405280
     7  C    3.717306   4.189871   3.674581   2.411377   1.401364
     8  C    4.844692   5.019809   4.155756   2.763695   2.417628
     9  C    4.967258   4.751317   3.598276   2.316324   2.730481
    10  N    4.168280   3.658258   2.372905   1.346516   2.409917
    11  H    1.085838   2.151175   3.399335   3.907791   3.412202
    12  H    2.149761   1.086038   2.155200   3.412461   3.874681
    13  H    3.389400   2.142936   1.088541   2.151595   3.396525
    14  H    2.142124   3.383768   3.862865   3.431320   2.171076
    15  H    4.090997   4.846937   4.566533   3.408805   2.168775
    16  H    5.821695   6.083268   5.239098   3.846934   3.407716
    17  H    6.010035   5.683795   4.433503   3.271835   3.814599
                    6          7          8          9         10
     6  C    0.000000
     7  C    2.449765   0.000000
     8  C    3.712258   1.387460   0.000000
     9  C    4.135378   2.366524   1.380128   0.000000
    10  N    3.683471   2.782467   2.414317   1.352785   0.000000
    11  H    2.153443   4.599500   5.815542   6.029352   5.254079
    12  H    3.389888   5.275794   6.075900   5.711345   4.526473
    13  H    3.863608   4.558556   4.799875   3.964109   2.617428
    14  H    1.087601   2.705077   4.085990   4.796754   4.575165
    15  H    2.705437   1.087719   2.139140   3.354486   3.870125
    16  H    4.602967   2.157741   1.083673   2.152370   3.388992
    17  H    5.218897   3.364411   2.148765   1.085197   2.061921
                   11         12         13         14         15
    11  H    0.000000
    12  H    2.479839   0.000000
    13  H    4.284591   2.459657   0.000000
    14  H    2.465715   4.281077   4.951084   0.000000
    15  H    4.792489   5.919208   5.522580   2.504490   0.000000
    16  H    6.745478   7.146714   5.861312   4.799700   2.477399
    17  H    7.081627   6.584456   4.596372   5.874283   4.270326
                   16         17
    16  H    0.000000
    17  H    2.499010   0.000000
 Stoichiometry    C9H7N
 Framework group  C1[X(C9H7N)]
 Deg. of freedom    45
 Full point group                 C1      NOp   1
 Largest Abelian subgroup         C1      NOp   1
 Largest concise Abelian subgroup C1      NOp   1
                         Standard orientation:                         
 ---------------------------------------------------------------------
 Center     Atomic      Atomic             Coordinates (Angstroms)
 Number     Number       Type             X           Y           Z
 ---------------------------------------------------------------------
      1          6           0       -2.414352    0.698465   -0.000217
      2          6           0       -2.407977   -0.690825   -0.000044
      3          6           0       -1.195065   -1.384178    0.000078
      4          6           0        0.026892   -0.717081   -0.000065
      5          6           0        0.012879    0.693445   -0.000038
      6          6           0       -1.206994    1.391100   -0.000215
      7          6           0        1.242637    1.365395   -0.000095
      8          6           0        2.430075    0.647735   -0.000113
      9          6           0        2.343182   -0.729655   -0.000127
     10          7           0        1.177623   -1.416312   -0.000039
     11          1           0       -3.355169    1.240593    0.002052
     12          1           0       -3.345385   -1.239227    0.000783
     13          1           0       -1.217249   -2.472494   -0.000077
     14          1           0       -1.222773    2.478587   -0.000665
     15          1           0        1.281579    2.452416    0.001140
     16          1           0        3.389716    1.151159    0.001266
     17          1           0        3.238249   -1.343256    0.000782
 ---------------------------------------------------------------------
 Rotational constants (GHZ):      3.2350732      1.2688287      0.9113773
 Standard basis: 6-31+G(d) (6D, 7F)
 There are   204 symmetry adapted cartesian basis functions of A   symmetry.
 There are   204 symmetry adapted basis functions of A   symmetry.
   204 basis functions,   348 primitive gaussians,   204 cartesian basis functions
    34 alpha electrons       34 beta electrons
       nuclear repulsion energy       463.8841589243 Hartrees.
 NAtoms=   17 NActive=   17 NUniq=   17 SFac= 1.00D+00 NAtFMM=   60 NAOKFM=F Big=F
 Integral buffers will be    131072 words long.
 Raffenetti 2 integral format.
 Two-electron integral symmetry is turned on.
 One-electron integrals computed using PRISM.
 NBasis=   204 RedAO= T EigKep=  1.06D-06  NBF=   204
 NBsUse=   204 1.00D-06 EigRej= -1.00D+00 NBFU=   204
 ExpMin= 4.38D-02 ExpMax= 4.17D+03 ExpMxC= 6.27D+02 IAcc=2 IRadAn=         4 AccDes= 0.00D+00
 Harris functional with IExCor= 1009 and IRadAn=       4 diagonalized for initial guess.
 HarFok:  IExCor= 1009 AccDes= 0.00D+00 IRadAn=         4 IDoV= 1 UseB2=F ITyADJ=14
 ICtDFT=  3500011 ScaDFX=  1.000000  1.000000  1.000000  1.000000
 FoFCou: FMM=F IPFlag=           0 FMFlag=      100000 FMFlg1=           0
         NFxFlg=           0 DoJE=T BraDBF=F KetDBF=T FulRan=T
         wScrn=  0.000000 ICntrl=     500 IOpCl=  0 I1Cent=   200000004 NGrid=           0
         NMat0=    1 NMatS0=      1 NMatT0=    0 NMatD0=    1 NMtDS0=    0 NMtDT0=    0
 Petite list used in FoFCou.
 Requested convergence on RMS density matrix=1.00D-08 within 128 cycles.
 Requested convergence on MAX density matrix=1.00D-06.
 Requested convergence on             energy=1.00D-06.
 No special actions if energy rises.
 SCF Done:  E(RM062X) =  -401.761282033     A.U. after   15 cycles
            NFock= 15  Conv=0.91D-08     -V/T= 2.0084

 **********************************************************************

            Population analysis using the SCF density.

 **********************************************************************

 Orbital symmetries:
       Occupied  (A) (A) (A) (A) (A) (A) (A) (A) (A) (A) (A) (A)
                 (A) (A) (A) (A) (A) (A) (A) (A) (A) (A) (A) (A)
                 (A) (A) (A) (A) (A) (A) (A) (A) (A) (A)
       Virtual   (A) (A) (A) (A) (A) (A) (A) (A) (A) (A) (A) (A)
                 (A) (A) (A) (A) (A) (A) (A) (A) (A) (A) (A) (A)
                 (A) (A) (A) (A) (A) (A) (A) (A) (A) (A) (A) (A)
                 (A) (A) (A) (A) (A) (A) (A) (A) (A) (A) (A) (A)
                 (A) (A) (A) (A) (A) (A) (A) (A) (A) (A) (A) (A)
                 (A) (A) (A) (A) (A) (A) (A) (A) (A) (A) (A) (A)
                 (A) (A) (A) (A) (A) (A) (A) (A) (A) (A) (A) (A)
                 (A) (A) (A) (A) (A) (A) (A) (A) (A) (A) (A) (A)
                 (A) (A) (A) (A) (A) (A) (A) (A) (A) (A) (A) (A)
                 (A) (A) (A) (A) (A) (A) (A) (A) (A) (A) (A) (A)
                 (A) (A) (A) (A) (A) (A) (A) (A) (A) (A) (A) (A)
                 (A) (A) (A) (A) (A) (A) (A) (A) (A) (A) (A) (A)
                 (A) (A) (A) (A) (A) (A) (A) (A) (A) (A) (A) (A)
                 (A) (A) (A) (A) (A) (A) (A) (A) (A) (A) (A) (A)
                 (A) (A)
 The electronic state is 1-A.
 Alpha  occ. eigenvalues --  -14.76604 -10.59353 -10.58965 -10.57926 -10.57014
 Alpha  occ. eigenvalues --  -10.56730 -10.56677 -10.56482 -10.56379 -10.55798
 Alpha  occ. eigenvalues --   -1.05923  -0.96143  -0.91775  -0.86139  -0.83926
 Alpha  occ. eigenvalues --   -0.74407  -0.71762  -0.69448  -0.61073  -0.59934
 Alpha  occ. eigenvalues --   -0.58679  -0.53385  -0.51563  -0.50049  -0.49402
 Alpha  occ. eigenvalues --   -0.47955  -0.47316  -0.42659  -0.41341  -0.41308
 Alpha  occ. eigenvalues --   -0.37223  -0.32700  -0.31327  -0.28123
 Alpha virt. eigenvalues --   -0.03788   0.00793   0.01471   0.02337   0.03011
 Alpha virt. eigenvalues --    0.03246   0.04159   0.04515   0.06065   0.06080
 Alpha virt. eigenvalues --    0.06621   0.07104   0.08754   0.08989   0.10170
 Alpha virt. eigenvalues --    0.10392   0.11181   0.11417   0.12991   0.13728
 Alpha virt. eigenvalues --    0.14313   0.15080   0.15232   0.15892   0.16144
 Alpha virt. eigenvalues --    0.17254   0.17635   0.18875   0.19575   0.20736
 Alpha virt. eigenvalues --    0.21041   0.21472   0.21937   0.22243   0.23532
 Alpha virt. eigenvalues --    0.23894   0.24809   0.25388   0.25940   0.26139
 Alpha virt. eigenvalues --    0.27361   0.27578   0.28414   0.28521   0.28656
 Alpha virt. eigenvalues --    0.29243   0.30408   0.31195   0.31560   0.33128
 Alpha virt. eigenvalues --    0.34194   0.35441   0.37132   0.38584   0.38692
 Alpha virt. eigenvalues --    0.40384   0.42144   0.44040   0.45735   0.57748
 Alpha virt. eigenvalues --    0.57980   0.64934   0.67998   0.70534   0.71198
 Alpha virt. eigenvalues --    0.73124   0.73140   0.74311   0.75529   0.77050
 Alpha virt. eigenvalues --    0.77387   0.78075   0.78908   0.80080   0.80405
 Alpha virt. eigenvalues --    0.81097   0.83477   0.83652   0.86706   0.90234
 Alpha virt. eigenvalues --    0.94404   0.95638   0.97310   0.97960   0.99851
 Alpha virt. eigenvalues --    1.00255   1.01279   1.05139   1.06556   1.08699
 Alpha virt. eigenvalues --    1.09743   1.12633   1.14177   1.14782   1.15935
 Alpha virt. eigenvalues --    1.17948   1.18833   1.19929   1.21873   1.24012
 Alpha virt. eigenvalues --    1.27502   1.29032   1.29920   1.30620   1.34471
 Alpha virt. eigenvalues --    1.38651   1.44135   1.45153   1.45970   1.49261
 Alpha virt. eigenvalues --    1.50861   1.52692   1.53833   1.55005   1.56733
 Alpha virt. eigenvalues --    1.57242   1.63814   1.77902   1.86197   1.87540
 Alpha virt. eigenvalues --    1.90581   1.90994   1.94580   1.99233   2.00613
 Alpha virt. eigenvalues --    2.02307   2.03145   2.05627   2.06847   2.12059
 Alpha virt. eigenvalues --    2.15860   2.18993   2.21532   2.22542   2.24575
 Alpha virt. eigenvalues --    2.25930   2.26861   2.32848   2.34264   2.35794
 Alpha virt. eigenvalues --    2.37459   2.44710   2.45028   2.52877   2.63129
 Alpha virt. eigenvalues --    2.65783   2.66164   2.68428   2.72125   2.73192
 Alpha virt. eigenvalues --    2.76398   2.79471   2.84567   2.89012   2.92629
 Alpha virt. eigenvalues --    2.96412   2.98667   3.12639   3.42073   3.49065
 Alpha virt. eigenvalues --    4.26978   4.29704   4.30675   4.33079   4.34228
 Alpha virt. eigenvalues --    4.38238   4.46972   4.50234   4.58048   4.82455
          Condensed to atoms (all electrons):
               1          2          3          4          5          6
     1  C    5.702369   0.364295   0.274277   0.125811  -0.047580  -0.296223
     2  C    0.364295   5.787001  -0.786990   0.431006  -0.264043   0.661806
     3  C    0.274277  -0.786990  14.794488  -1.639505  -3.169284  -3.134476
     4  C    0.125811   0.431006  -1.639505  12.606267  -2.832735  -1.440597
     5  C   -0.047580  -0.264043  -3.169284  -2.832735  12.815708  -0.941503
     6  C   -0.296223   0.661806  -3.134476  -1.440597  -0.941503  11.204778
     7  C   -0.156865  -0.293970   1.225438   0.028501  -2.162206  -0.391873
     8  C   -0.114102   0.094593   0.130790   0.159589   0.198921  -0.372578
     9  C    0.040338  -0.084698  -0.562313  -0.091579   0.034253   0.308888
    10  N   -0.048366   0.129920  -1.025107  -0.057538   0.793539   0.279658
    11  H    0.269147  -0.002868   0.018031  -0.019842   0.034130   0.007345
    12  H   -0.019366   0.299736  -0.031289   0.034710  -0.006472   0.026653
    13  H    0.007544  -0.047261   0.326429   0.009440   0.041515  -0.029566
    14  H    0.043890   0.008703  -0.024933   0.026757   0.062953   0.196299
    15  H   -0.000462   0.000667   0.008137   0.034376   0.084604  -0.054328
    16  H    0.001680  -0.000639   0.007986   0.022991  -0.003596  -0.011470
    17  H    0.000697  -0.002946   0.041950   0.070234  -0.093906  -0.005482
               7          8          9         10         11         12
     1  C   -0.156865  -0.114102   0.040338  -0.048366   0.269147  -0.019366
     2  C   -0.293970   0.094593  -0.084698   0.129920  -0.002868   0.299736
     3  C    1.225438   0.130790  -0.562313  -1.025107   0.018031  -0.031289
     4  C    0.028501   0.159589  -0.091579  -0.057538  -0.019842   0.034710
     5  C   -2.162206   0.198921   0.034253   0.793539   0.034130  -0.006472
     6  C   -0.391873  -0.372578   0.308888   0.279658   0.007345   0.026653
     7  C    8.070771  -0.197757   0.100768  -0.343090   0.002617   0.004759
     8  C   -0.197757   6.302790  -0.266917   0.064230   0.001402  -0.001334
     9  C    0.100768  -0.266917   5.860544   0.332412  -0.000700   0.002196
    10  N   -0.343090   0.064230   0.332412   7.143929   0.000288  -0.000098
    11  H    0.002617   0.001402  -0.000700   0.000288   0.487116  -0.003347
    12  H    0.004759  -0.001334   0.002196  -0.000098  -0.003347   0.485792
    13  H    0.001054   0.003763  -0.003875  -0.003859  -0.000138  -0.003624
    14  H   -0.025493   0.004278   0.001569  -0.000434  -0.003277  -0.000148
    15  H    0.153953   0.093904  -0.029114   0.000766  -0.000007   0.000000
    16  H    0.026198   0.267289  -0.000114   0.001804   0.000000   0.000000
    17  H    0.078997  -0.103287   0.379662  -0.088609   0.000000   0.000000
              13         14         15         16         17
     1  C    0.007544   0.043890  -0.000462   0.001680   0.000697
     2  C   -0.047261   0.008703   0.000667  -0.000639  -0.002946
     3  C    0.326429  -0.024933   0.008137   0.007986   0.041950
     4  C    0.009440   0.026757   0.034376   0.022991   0.070234
     5  C    0.041515   0.062953   0.084604  -0.003596  -0.093906
     6  C   -0.029566   0.196299  -0.054328  -0.011470  -0.005482
     7  C    0.001054  -0.025493   0.153953   0.026198   0.078997
     8  C    0.003763   0.004278   0.093904   0.267289  -0.103287
     9  C   -0.003875   0.001569  -0.029114  -0.000114   0.379662
    10  N   -0.003859  -0.000434   0.000766   0.001804  -0.088609
    11  H   -0.000138  -0.003277  -0.000007   0.000000   0.000000
    12  H   -0.003624  -0.000148   0.000000   0.000000   0.000000
    13  H    0.472367   0.000014   0.000002   0.000000  -0.000007
    14  H    0.000014   0.495507   0.002890  -0.000008   0.000000
    15  H    0.000002   0.002890   0.490978  -0.003436  -0.000137
    16  H    0.000000  -0.000008  -0.003436   0.472438  -0.001583
    17  H   -0.000007   0.000000  -0.000137  -0.001583   0.518983
 Mulliken charges:
               1
     1  C   -0.147083
     2  C   -0.294309
     3  C   -0.453627
     4  C   -1.467886
     5  C    1.455701
     6  C   -0.007330
     7  C   -0.121801
     8  C   -0.265575
     9  C   -0.021321
    10  N   -0.179444
    11  H    0.210105
    12  H    0.211832
    13  H    0.226205
    14  H    0.211433
    15  H    0.217206
    16  H    0.220459
    17  H    0.205435
 Sum of Mulliken charges =   0.00000
 Mulliken charges with hydrogens summed into heavy atoms:
               1
     1  C    0.063022
     2  C   -0.082477
     3  C   -0.227422
     4  C   -1.467886
     5  C    1.455701
     6  C    0.204103
     7  C    0.095406
     8  C   -0.045116
     9  C    0.184114
    10  N   -0.179444
 Electronic spatial extent (au):  <R**2>=           1244.4868
 Charge=              0.0000 electrons
 Dipole moment (field-independent basis, Debye):
    X=             -0.1923    Y=              2.2647    Z=              0.0038  Tot=              2.2729
 Quadrupole moment (field-independent basis, Debye-Ang):
   XX=            -47.6796   YY=            -56.2592   ZZ=            -62.9156
   XY=              3.1159   XZ=             -0.0011   YZ=              0.0041
 Traceless Quadrupole moment (field-independent basis, Debye-Ang):
   XX=              7.9386   YY=             -0.6411   ZZ=             -7.2975
   XY=              3.1159   XZ=             -0.0011   YZ=              0.0041
 Octapole moment (field-independent basis, Debye-Ang**2):
  XXX=              7.0131  YYY=             15.1996  ZZZ=              0.0058  XYY=             -6.4106
  XXY=              0.7808  XXZ=              0.0553  XZZ=              2.2997  YZZ=             -1.2995
  YYZ=              0.0112  XYZ=              0.0010
 Hexadecapole moment (field-independent basis, Debye-Ang**3):
 XXXX=          -1017.9262 YYYY=           -489.6558 ZZZZ=            -74.1147 XXXY=             -1.5369
 XXXZ=             -0.0347 YYYX=             21.0885 YYYZ=              0.0184 ZZZX=             -0.0017
 ZZZY=              0.0057 XXYY=           -256.8064 XXZZ=           -231.5988 YYZZ=           -106.7610
 XXYZ=              0.0350 YYXZ=              0.0087 ZZXY=             -1.4041
 N-N= 4.638841589243D+02 E-N=-1.858445036056D+03  KE= 3.984160015503D+02
 Calling FoFJK, ICntrl=      2127 FMM=F ISym2X=0 I1Cent= 0 IOpClX= 0 NMat=1 NMatS=1 NMatT=0.
 ***** Axes restored to original set *****
 -------------------------------------------------------------------
 Center     Atomic                   Forces (Hartrees/Bohr)
 Number     Number              X              Y              Z
 -------------------------------------------------------------------
      1        6           0.001111262    0.027932333   -0.006295741
      2        6          -0.028124869   -0.013559181   -0.000756768
      3        6           0.028140430   -0.028257770    0.010135676
      4        6          -0.006018705    0.008812425   -0.002754320
      5        6           0.006747023    0.013443125   -0.002020563
      6        6           0.022121673   -0.013159899    0.005924171
      7        6          -0.018454753    0.012910043   -0.005431835
      8        6           0.025285103    0.018385357   -0.000827949
      9        6           0.006362574   -0.051451386    0.012318265
     10        7          -0.030938588    0.021515453   -0.008930227
     11        1           0.000109385    0.000914212   -0.000069026
     12        1          -0.001106411   -0.000465366   -0.000014686
     13        1          -0.002872920    0.003217508   -0.001122352
     14        1          -0.002763510    0.001195477   -0.000673002
     15        1           0.002806296   -0.001191767    0.000690206
     16        1          -0.000898371    0.000436500   -0.000165415
     17        1          -0.001505618   -0.000677064   -0.000006434
 -------------------------------------------------------------------
 Cartesian Forces:  Max     0.051451386 RMS     0.014306449

 GradGradGradGradGradGradGradGradGradGradGradGradGradGradGradGradGradGrad
 Berny optimization.
 FormGI is forming the generalized inverse of G from B-inverse, IUseBI=4.
 Internal  Forces:  Max     0.033787483 RMS     0.007294698
 Search for a local minimum.
 Step number   1 out of a maximum of   96
 All quantities printed in internal units (Hartrees-Bohrs-Radians)
 Mixed Optimization -- RFO/linear search
 Second derivative matrix not updated -- first step.
 ITU=  0
     Eigenvalues ---    0.02037   0.02047   0.02100   0.02123   0.02148
     Eigenvalues ---    0.02157   0.02164   0.02182   0.02194   0.02214
     Eigenvalues ---    0.02250   0.02298   0.02338   0.02343   0.16000
     Eigenvalues ---    0.16000   0.16000   0.16000   0.16000   0.16000
     Eigenvalues ---    0.16000   0.22000   0.22080   0.22557   0.23397
     Eigenvalues ---    0.24487   0.24932   0.34982   0.35078   0.35091
     Eigenvalues ---    0.35275   0.35298   0.35374   0.35554   0.38909
     Eigenvalues ---    0.41738   0.43677   0.44793   0.45550   0.46334
     Eigenvalues ---    0.46959   0.47033   0.48104   0.52924   0.54679
 RFO step:  Lambda=-1.00325103D-02 EMin= 2.03720284D-02
 Linear search not attempted -- first point.
 Iteration  1 RMS(Cart)=  0.02117457 RMS(Int)=  0.00017718
 Iteration  2 RMS(Cart)=  0.00020141 RMS(Int)=  0.00004429
 Iteration  3 RMS(Cart)=  0.00000003 RMS(Int)=  0.00004429
 Variable       Old X    -DE/DX   Delta X   Delta X   Delta X     New X
                                 (Linear)    (Quad)   (Total)
    R1        2.62541   0.02392   0.00000   0.04741   0.04749   2.67289
    R2        2.63036  -0.01285   0.00000  -0.02814  -0.02811   2.60225
    R3        2.05194   0.00014   0.00000   0.00038   0.00038   2.05231
    R4        2.64014  -0.01769   0.00000  -0.03816  -0.03813   2.60201
    R5        2.05231  -0.00018   0.00000  -0.00048  -0.00048   2.05183
    R6        2.63086   0.02025   0.00000   0.04358   0.04354   2.67440
    R7        2.05705  -0.00163   0.00000  -0.00452  -0.00452   2.05252
    R8        2.66564   0.01769   0.00000   0.04369   0.04354   2.70918
    R9        2.54455   0.01183   0.00000   0.02096   0.02089   2.56544
   R10        2.65559   0.00898   0.00000   0.02026   0.02022   2.67581
   R11        2.64819   0.00752   0.00000   0.01825   0.01824   2.66643
   R12        2.05527  -0.00026   0.00000  -0.00072  -0.00072   2.05455
   R13        2.62192  -0.00970   0.00000  -0.02002  -0.01995   2.60197
   R14        2.05549   0.00012   0.00000   0.00034   0.00034   2.05584
   R15        2.60806   0.02962   0.00000   0.05710   0.05717   2.66523
   R16        2.04785   0.00088   0.00000   0.00241   0.00241   2.05025
   R17        2.55639  -0.03379   0.00000  -0.06268  -0.06267   2.49372
   R18        2.05072   0.00157   0.00000   0.00431   0.00431   2.05503
    A1        2.08705   0.00408   0.00000   0.01187   0.01196   2.09901
    A2        2.09814  -0.00111   0.00000  -0.00050  -0.00054   2.09760
    A3        2.09799  -0.00296   0.00000  -0.01137  -0.01141   2.08658
    A4        2.09469   0.00421   0.00000   0.01413   0.01422   2.10891
    A5        2.09554  -0.00088   0.00000   0.00013   0.00009   2.09562
    A6        2.09295  -0.00333   0.00000  -0.01426  -0.01430   2.07865
    A7        2.12258  -0.00535   0.00000  -0.02032  -0.02034   2.10223
    A8        2.06972   0.00695   0.00000   0.03528   0.03529   2.10501
    A9        2.09089  -0.00160   0.00000  -0.01496  -0.01495   2.07594
   A10        2.06057   0.00107   0.00000   0.00908   0.00902   2.06959
   A11        2.09586  -0.00478   0.00000  -0.02469  -0.02455   2.07132
   A12        2.12675   0.00372   0.00000   0.01561   0.01553   2.14228
   A13        2.10024  -0.00287   0.00000  -0.00943  -0.00951   2.09073
   A14        2.06094  -0.00408   0.00000  -0.00990  -0.00993   2.05101
   A15        2.12200   0.00694   0.00000   0.01933   0.01944   2.14145
   A16        2.10124  -0.00113   0.00000  -0.00532  -0.00534   2.09590
   A17        2.07713   0.00372   0.00000   0.02122   0.02123   2.09836
   A18        2.10481  -0.00259   0.00000  -0.01590  -0.01589   2.08892
   A19        2.09788  -0.00571   0.00000  -0.01966  -0.01962   2.07826
   A20        2.10669  -0.00036   0.00000  -0.00907  -0.00909   2.09760
   A21        2.07862   0.00607   0.00000   0.02873   0.02871   2.10733
   A22        2.05143   0.00575   0.00000   0.02159   0.02171   2.07314
   A23        2.11483  -0.00237   0.00000  -0.00781  -0.00787   2.10696
   A24        2.11693  -0.00338   0.00000  -0.01377  -0.01384   2.10309
   A25        2.16618   0.00284   0.00000   0.00544   0.00550   2.17168
   A26        2.10875  -0.00090   0.00000   0.00037   0.00034   2.10909
   A27        2.00826  -0.00195   0.00000  -0.00581  -0.00584   2.00242
   A28        2.06319  -0.00252   0.00000  -0.01307  -0.01318   2.05001
    D1       -0.00004   0.00000   0.00000   0.00010   0.00010   0.00006
    D2        3.14071   0.00003   0.00000   0.00091   0.00091  -3.14156
    D3       -3.13907  -0.00006   0.00000  -0.00181  -0.00182  -3.14089
    D4        0.00168  -0.00003   0.00000  -0.00101  -0.00101   0.00068
    D5        0.00000   0.00000   0.00000  -0.00010  -0.00010  -0.00010
    D6        3.14126   0.00000   0.00000  -0.00001   0.00000   3.14126
    D7        3.13903   0.00006   0.00000   0.00183   0.00182   3.14085
    D8       -0.00289   0.00006   0.00000   0.00192   0.00192  -0.00097
    D9       -0.00008   0.00000   0.00000   0.00007   0.00007  -0.00001
   D10       -3.14129   0.00000   0.00000  -0.00011  -0.00011  -3.14140
   D11       -3.14084  -0.00002   0.00000  -0.00074  -0.00074  -3.14158
   D12        0.00114  -0.00003   0.00000  -0.00093  -0.00093   0.00021
   D13        0.00024  -0.00001   0.00000  -0.00024  -0.00023   0.00001
   D14       -3.14151   0.00000   0.00000  -0.00015  -0.00015   3.14153
   D15        3.14145   0.00000   0.00000  -0.00004  -0.00004   3.14141
   D16       -0.00030   0.00000   0.00000   0.00005   0.00005  -0.00025
   D17       -0.00028   0.00001   0.00000   0.00023   0.00023  -0.00005
   D18        3.14152   0.00000   0.00000  -0.00002  -0.00001   3.14151
   D19        3.14147   0.00000   0.00000   0.00014   0.00014  -3.14157
   D20        0.00009   0.00000   0.00000  -0.00010  -0.00010  -0.00001
   D21       -3.14155   0.00000   0.00000  -0.00004  -0.00004  -3.14159
   D22       -0.00012   0.00000   0.00000   0.00005   0.00005  -0.00007
   D23        0.00017   0.00000   0.00000  -0.00007  -0.00007   0.00010
   D24       -3.14109  -0.00001   0.00000  -0.00017  -0.00017  -3.14126
   D25        3.14154   0.00001   0.00000   0.00019   0.00019  -3.14146
   D26        0.00028   0.00000   0.00000   0.00008   0.00008   0.00036
   D27       -0.00005   0.00000   0.00000   0.00017   0.00016   0.00011
   D28       -3.14029  -0.00003   0.00000  -0.00093  -0.00092  -3.14121
   D29       -3.14143   0.00000   0.00000  -0.00008  -0.00008  -3.14151
   D30        0.00152  -0.00004   0.00000  -0.00117  -0.00116   0.00035
   D31        0.00004   0.00000   0.00000  -0.00017  -0.00017  -0.00013
   D32       -3.14006  -0.00004   0.00000  -0.00130  -0.00130  -3.14136
   D33        3.14031   0.00003   0.00000   0.00087   0.00088   3.14119
   D34        0.00020  -0.00001   0.00000  -0.00025  -0.00025  -0.00004
   D35       -0.00008   0.00000   0.00000   0.00012   0.00012   0.00005
   D36       -3.14060  -0.00004   0.00000  -0.00114  -0.00114   3.14145
   D37        3.14002   0.00004   0.00000   0.00125   0.00126   3.14128
   D38       -0.00050   0.00000   0.00000   0.00000   0.00000  -0.00051
   D39        0.00011   0.00000   0.00000  -0.00006  -0.00006   0.00005
   D40        3.14069   0.00004   0.00000   0.00113   0.00113  -3.14136
         Item               Value     Threshold  Converged?
 Maximum Force            0.033787     0.000450     NO 
 RMS     Force            0.007295     0.000300     NO 
 Maximum Displacement     0.073337     0.001800     NO 
 RMS     Displacement     0.021133     0.001200     NO 
 Predicted change in Energy=-5.139116D-03
 GradGradGradGradGradGradGradGradGradGradGradGradGradGradGradGradGradGrad

                          Input orientation:                          
 ---------------------------------------------------------------------
 Center     Atomic      Atomic             Coordinates (Angstroms)
 Number     Number       Type             X           Y           Z
 ---------------------------------------------------------------------
      1          6           0        0.127003    2.107822   -0.455791
      2          6           0       -0.569420    0.890014   -0.275345
      3          6           0       -1.934669    0.826337   -0.442568
      4          6           0       -2.668242    1.982820   -0.799362
      5          6           0       -1.959343    3.215540   -0.981491
      6          6           0       -0.555139    3.252537   -0.803049
      7          6           0       -2.712755    4.354355   -1.337070
      8          6           0       -4.075674    4.233625   -1.491144
      9          6           0       -4.672965    2.972255   -1.287773
     10          7           0       -4.012876    1.879135   -0.954952
     11          1           0        1.204073    2.145922   -0.321823
     12          1           0       -0.028415   -0.010680   -0.001511
     13          1           0       -2.465830   -0.110725   -0.302913
     14          1           0       -0.019259    4.188364   -0.941296
     15          1           0       -2.218905    5.312116   -1.486521
     16          1           0       -4.680733    5.091771   -1.764274
     17          1           0       -5.746350    2.838992   -1.400418
 ---------------------------------------------------------------------
                    Distance matrix (angstroms):
                    1          2          3          4          5
     1  C    0.000000
     2  C    1.414433   0.000000
     3  C    2.427524   1.376926   0.000000
     4  C    2.819053   2.423608   1.415233   0.000000
     5  C    2.419967   2.799750   2.449355   1.433635   0.000000
     6  C    1.377053   2.420782   2.814160   2.465238   1.415980
     7  C    3.726632   4.209846   3.721890   2.432137   1.411016
     8  C    4.822187   4.995170   4.158489   2.743274   2.403144
     9  C    4.947639   4.711669   3.580168   2.288327   2.741668
    10  N    4.176129   3.646589   2.385343   1.357571   2.450241
    11  H    1.086038   2.173647   3.406991   3.905057   3.403886
    12  H    2.172229   1.085782   2.128130   3.402837   3.885530
    13  H    3.415861   2.144437   1.086149   2.161102   3.432351
    14  H    2.141439   3.409586   3.901378   3.449881   2.170697
    15  H    4.102827   4.872652   4.614417   3.429039   2.172109
    16  H    5.807788   6.064203   5.242299   3.827107   3.396903
    17  H    5.993597   5.644901   4.415559   3.251007   3.828670
                    6          7          8          9         10
     6  C    0.000000
     7  C    2.480825   0.000000
     8  C    3.718895   1.376903   0.000000
     9  C    4.155720   2.398969   1.410380   0.000000
    10  N    3.723607   2.821887   2.415589   1.319621   0.000000
    11  H    2.133307   4.609712   5.796684   6.012941   5.261994
    12  H    3.401247   5.295558   6.050904   5.667823   4.511804
    13  H    3.900308   4.589923   4.782977   3.917417   2.603468
    14  H    1.087222   2.727474   4.093762   4.822442   4.613209
    15  H    2.734432   1.087902   2.147267   3.396596   3.909765
    16  H    4.618145   2.144579   1.084947   2.172432   3.379655
    17  H    5.241807   3.391612   2.178162   1.087475   2.030935
                   11         12         13         14         15
    11  H    0.000000
    12  H    2.504508   0.000000
    13  H    4.308248   2.458017   0.000000
    14  H    2.460052   4.302935   4.987525   0.000000
    15  H    4.806046   5.944381   5.555997   2.529532   0.000000
    16  H    6.737182   7.126458   5.840148   4.819001   2.487226
    17  H    7.067679   6.540057   4.546114   5.901793   4.308901
                   16         17
    16  H    0.000000
    17  H    2.518520   0.000000
 Stoichiometry    C9H7N
 Framework group  C1[X(C9H7N)]
 Deg. of freedom    45
 Full point group                 C1      NOp   1
 Largest Abelian subgroup         C1      NOp   1
 Largest concise Abelian subgroup C1      NOp   1
                         Standard orientation:                         
 ---------------------------------------------------------------------
 Center     Atomic      Atomic             Coordinates (Angstroms)
 Number     Number       Type             X           Y           Z
 ---------------------------------------------------------------------
      1          6           0       -2.407163    0.699255   -0.000006
      2          6           0       -2.389178   -0.715064    0.000013
      3          6           0       -1.197966   -1.405671    0.000008
      4          6           0        0.034424   -0.709898   -0.000026
      5          6           0        0.012681    0.723572   -0.000047
      6          6           0       -1.226709    1.408342   -0.000098
      7          6           0        1.254076    1.394322    0.000023
      8          6           0        2.414808    0.653672   -0.000027
      9          6           0        2.322333   -0.753673    0.000013
     10          7           0        1.187284   -1.426774    0.000043
     11          1           0       -3.352823    1.233302    0.000655
     12          1           0       -3.321831   -1.271014    0.000054
     13          1           0       -1.188387   -2.491777   -0.000153
     14          1           0       -1.241238    2.495467   -0.000424
     15          1           0        1.288256    2.481686    0.000372
     16          1           0        3.383738    1.141816    0.000242
     17          1           0        3.217459   -1.371209   -0.000160
 ---------------------------------------------------------------------
 Rotational constants (GHZ):      3.1454568      1.2771103      0.9083175
 Standard basis: 6-31+G(d) (6D, 7F)
 There are   204 symmetry adapted cartesian basis functions of A   symmetry.
 There are   204 symmetry adapted basis functions of A   symmetry.
   204 basis functions,   348 primitive gaussians,   204 cartesian basis functions
    34 alpha electrons       34 beta electrons
       nuclear repulsion energy       462.4577225744 Hartrees.
 NAtoms=   17 NActive=   17 NUniq=   17 SFac= 1.00D+00 NAtFMM=   60 NAOKFM=F Big=F
 Integral buffers will be    131072 words long.
 Raffenetti 2 integral format.
 Two-electron integral symmetry is turned on.
 One-electron integrals computed using PRISM.
 NBasis=   204 RedAO= T EigKep=  1.17D-06  NBF=   204
 NBsUse=   204 1.00D-06 EigRej= -1.00D+00 NBFU=   204
 Initial guess from the checkpoint file:  "/srv/scratch/z5358697/gauss/Gau-4160512.chk"
 B after Tr=     0.000000    0.000000    0.000000
         Rot=    1.000000   -0.000001    0.000000   -0.000949 Ang=  -0.11 deg.
 ExpMin= 4.38D-02 ExpMax= 4.17D+03 ExpMxC= 6.27D+02 IAcc=2 IRadAn=         4 AccDes= 0.00D+00
 Harris functional with IExCor= 1009 and IRadAn=       4 diagonalized for initial guess.
 HarFok:  IExCor= 1009 AccDes= 0.00D+00 IRadAn=         4 IDoV= 1 UseB2=F ITyADJ=14
 ICtDFT=  3500011 ScaDFX=  1.000000  1.000000  1.000000  1.000000
 FoFCou: FMM=F IPFlag=           0 FMFlag=      100000 FMFlg1=           0
         NFxFlg=           0 DoJE=T BraDBF=F KetDBF=T FulRan=T
         wScrn=  0.000000 ICntrl=     500 IOpCl=  0 I1Cent=   200000004 NGrid=           0
         NMat0=    1 NMatS0=      1 NMatT0=    0 NMatD0=    1 NMtDS0=    0 NMtDT0=    0
 Petite list used in FoFCou.
 Requested convergence on RMS density matrix=1.00D-08 within 128 cycles.
 Requested convergence on MAX density matrix=1.00D-06.
 Requested convergence on             energy=1.00D-06.
 No special actions if energy rises.
 SCF Done:  E(RM062X) =  -401.766806809     A.U. after   14 cycles
            NFock= 14  Conv=0.79D-08     -V/T= 2.0087
 Calling FoFJK, ICntrl=      2127 FMM=F ISym2X=0 I1Cent= 0 IOpClX= 0 NMat=1 NMatS=1 NMatT=0.
 ***** Axes restored to original set *****
 -------------------------------------------------------------------
 Center     Atomic                   Forces (Hartrees/Bohr)
 Number     Number              X              Y              Z
 -------------------------------------------------------------------
      1        6          -0.000118681    0.005291725   -0.001248765
      2        6          -0.004642666   -0.002215779   -0.000125885
      3        6           0.006641494   -0.003279505    0.001640715
      4        6           0.005582910    0.005907594   -0.000594809
      5        6          -0.002187361   -0.003760551    0.000567463
      6        6           0.004033228   -0.006127117    0.001925829
      7        6          -0.008266714    0.001267140   -0.001395696
      8        6           0.006364192    0.005395302   -0.000389300
      9        6          -0.000281718   -0.011472545    0.002560021
     10        7          -0.004101496    0.005950119   -0.001872699
     11        1           0.000017263   -0.000985249    0.000259148
     12        1           0.001273300    0.000466395    0.000062993
     13        1          -0.001820356    0.001354159   -0.000554263
     14        1          -0.001119878    0.000652603   -0.000315326
     15        1           0.000754998   -0.000584929    0.000245702
     16        1          -0.001242978   -0.000566247   -0.000028053
     17        1          -0.000885538    0.002706885   -0.000737076
 -------------------------------------------------------------------
 Cartesian Forces:  Max     0.011472545 RMS     0.003469900

 GradGradGradGradGradGradGradGradGradGradGradGradGradGradGradGradGradGrad
 Berny optimization.
 Using GEDIIS/GDIIS optimizer.
 FormGI is forming the generalized inverse of G from B-inverse, IUseBI=4.
 Internal  Forces:  Max     0.005520683 RMS     0.001573792
 Search for a local minimum.
 Step number   2 out of a maximum of   96
 All quantities printed in internal units (Hartrees-Bohrs-Radians)
 Mixed Optimization -- RFO/linear search
 Update second derivatives using D2CorX and points    1    2
 DE= -5.52D-03 DEPred=-5.14D-03 R= 1.08D+00
 TightC=F SS=  1.41D+00  RLast= 1.55D-01 DXNew= 5.0454D-01 4.6642D-01
 Trust test= 1.08D+00 RLast= 1.55D-01 DXMaxT set to 4.66D-01
 ITU=  1  0
 Use linear search instead of GDIIS.
     Eigenvalues ---    0.02038   0.02046   0.02101   0.02122   0.02148
     Eigenvalues ---    0.02156   0.02166   0.02182   0.02194   0.02214
     Eigenvalues ---    0.02251   0.02298   0.02339   0.02344   0.14978
     Eigenvalues ---    0.16000   0.16000   0.16000   0.16000   0.16000
     Eigenvalues ---    0.16291   0.21999   0.22090   0.22674   0.23704
     Eigenvalues ---    0.24129   0.25310   0.34965   0.35077   0.35092
     Eigenvalues ---    0.35272   0.35298   0.35341   0.35548   0.39998
     Eigenvalues ---    0.40199   0.41968   0.43885   0.45296   0.45550
     Eigenvalues ---    0.46966   0.47691   0.50093   0.52449   0.54292
 RFO step:  Lambda=-6.97874320D-04 EMin= 2.03798361D-02
 Quartic linear search produced a step of  0.11955.
 Iteration  1 RMS(Cart)=  0.00707847 RMS(Int)=  0.00005993
 Iteration  2 RMS(Cart)=  0.00006451 RMS(Int)=  0.00000240
 Iteration  3 RMS(Cart)=  0.00000000 RMS(Int)=  0.00000240
 Variable       Old X    -DE/DX   Delta X   Delta X   Delta X     New X
                                 (Linear)    (Quad)   (Total)
    R1        2.67289   0.00152   0.00568   0.00131   0.00699   2.67988
    R2        2.60225  -0.00292  -0.00336  -0.00556  -0.00892   2.59333
    R3        2.05231   0.00001   0.00005   0.00003   0.00007   2.05238
    R4        2.60201  -0.00284  -0.00456  -0.00472  -0.00928   2.59274
    R5        2.05183   0.00026  -0.00006   0.00086   0.00080   2.05263
    R6        2.67440   0.00309   0.00521   0.00519   0.01040   2.68480
    R7        2.05252  -0.00035  -0.00054  -0.00088  -0.00142   2.05110
    R8        2.70918  -0.00552   0.00521  -0.01655  -0.01135   2.69783
    R9        2.56544   0.00392   0.00250   0.00678   0.00928   2.57472
   R10        2.67581   0.00227   0.00242   0.00443   0.00684   2.68266
   R11        2.66643   0.00392   0.00218   0.00863   0.01081   2.67725
   R12        2.05455   0.00005  -0.00009   0.00019   0.00011   2.05466
   R13        2.60197  -0.00390  -0.00239  -0.00807  -0.01045   2.59152
   R14        2.05584  -0.00021   0.00004  -0.00067  -0.00063   2.05521
   R15        2.66523   0.00371   0.00683   0.00563   0.01247   2.67770
   R16        2.05025   0.00025   0.00029   0.00067   0.00096   2.05121
   R17        2.49372  -0.00482  -0.00749  -0.00662  -0.01412   2.47961
   R18        2.05503   0.00062   0.00051   0.00173   0.00225   2.05728
    A1        2.09901  -0.00029   0.00143  -0.00201  -0.00057   2.09843
    A2        2.09760  -0.00090  -0.00007  -0.00658  -0.00665   2.09095
    A3        2.08658   0.00119  -0.00136   0.00859   0.00722   2.09380
    A4        2.10891  -0.00089   0.00170  -0.00460  -0.00290   2.10601
    A5        2.09562  -0.00092   0.00001  -0.00758  -0.00757   2.08805
    A6        2.07865   0.00181  -0.00171   0.01219   0.01047   2.08912
    A7        2.10223   0.00016  -0.00243   0.00232  -0.00011   2.10213
    A8        2.10501   0.00229   0.00422   0.01402   0.01824   2.12325
    A9        2.07594  -0.00245  -0.00179  -0.01634  -0.01813   2.05780
   A10        2.06959   0.00106   0.00108   0.00409   0.00516   2.07476
   A11        2.07132  -0.00027  -0.00293   0.00035  -0.00258   2.06874
   A12        2.14228  -0.00079   0.00186  -0.00444  -0.00259   2.13969
   A13        2.09073  -0.00155  -0.00114  -0.00706  -0.00820   2.08253
   A14        2.05101  -0.00050  -0.00119  -0.00168  -0.00287   2.04814
   A15        2.14145   0.00205   0.00232   0.00874   0.01107   2.15251
   A16        2.09590   0.00151  -0.00064   0.00726   0.00661   2.10251
   A17        2.09836   0.00061   0.00254   0.00491   0.00745   2.10581
   A18        2.08892  -0.00212  -0.00190  -0.01217  -0.01407   2.07486
   A19        2.07826   0.00110  -0.00235   0.00643   0.00409   2.08234
   A20        2.09760  -0.00154  -0.00109  -0.00913  -0.01021   2.08739
   A21        2.10733   0.00044   0.00343   0.00270   0.00613   2.11346
   A22        2.07314  -0.00055   0.00260  -0.00376  -0.00116   2.07198
   A23        2.10696   0.00165  -0.00094   0.01129   0.01035   2.11730
   A24        2.10309  -0.00110  -0.00165  -0.00754  -0.00919   2.09390
   A25        2.17168  -0.00113   0.00066  -0.00573  -0.00507   2.16661
   A26        2.10909  -0.00239   0.00004  -0.01790  -0.01786   2.09123
   A27        2.00242   0.00352  -0.00070   0.02363   0.02293   2.02535
   A28        2.05001   0.00187  -0.00158   0.00917   0.00759   2.05761
    D1        0.00006   0.00000   0.00001  -0.00003  -0.00002   0.00003
    D2       -3.14156   0.00000   0.00011   0.00003   0.00014  -3.14142
    D3       -3.14089  -0.00002  -0.00022  -0.00059  -0.00081   3.14148
    D4        0.00068  -0.00001  -0.00012  -0.00053  -0.00065   0.00003
    D5       -0.00010   0.00000  -0.00001   0.00008   0.00007  -0.00004
    D6        3.14126   0.00000   0.00000   0.00026   0.00026   3.14152
    D7        3.14085   0.00002   0.00022   0.00063   0.00085  -3.14149
    D8       -0.00097   0.00002   0.00023   0.00081   0.00104   0.00007
    D9       -0.00001   0.00000   0.00001   0.00002   0.00003   0.00002
   D10       -3.14140   0.00000  -0.00001  -0.00014  -0.00015  -3.14156
   D11       -3.14158   0.00000  -0.00009  -0.00004  -0.00013   3.14148
   D12        0.00021  -0.00001  -0.00011  -0.00020  -0.00032  -0.00011
   D13        0.00001   0.00000  -0.00003  -0.00006  -0.00008  -0.00008
   D14        3.14153   0.00000  -0.00002   0.00006   0.00005   3.14158
   D15        3.14141   0.00000   0.00000   0.00011   0.00010   3.14150
   D16       -0.00025   0.00000   0.00001   0.00023   0.00023  -0.00003
   D17       -0.00005   0.00000   0.00003   0.00010   0.00013   0.00007
   D18        3.14151   0.00000   0.00000   0.00005   0.00005   3.14156
   D19       -3.14157   0.00000   0.00002  -0.00003  -0.00001  -3.14158
   D20       -0.00001   0.00000  -0.00001  -0.00007  -0.00008  -0.00010
   D21       -3.14159   0.00000  -0.00001  -0.00004  -0.00005   3.14155
   D22       -0.00007   0.00000   0.00001   0.00008   0.00009   0.00002
   D23        0.00010   0.00000  -0.00001  -0.00011  -0.00012  -0.00002
   D24       -3.14126  -0.00001  -0.00002  -0.00029  -0.00031  -3.14158
   D25       -3.14146   0.00000   0.00002  -0.00006  -0.00004  -3.14150
   D26        0.00036   0.00000   0.00001  -0.00025  -0.00024   0.00013
   D27        0.00011   0.00000   0.00002  -0.00007  -0.00005   0.00006
   D28       -3.14121  -0.00001  -0.00011  -0.00026  -0.00036  -3.14157
   D29       -3.14151   0.00000  -0.00001  -0.00012  -0.00013   3.14155
   D30        0.00035  -0.00001  -0.00014  -0.00030  -0.00044  -0.00009
   D31       -0.00013   0.00000  -0.00002   0.00019   0.00017   0.00004
   D32       -3.14136   0.00000  -0.00016  -0.00008  -0.00024   3.14158
   D33        3.14119   0.00001   0.00011   0.00037   0.00048  -3.14151
   D34       -0.00004   0.00000  -0.00003   0.00010   0.00007   0.00003
   D35        0.00005   0.00000   0.00001  -0.00019  -0.00017  -0.00012
   D36        3.14145   0.00000  -0.00014   0.00026   0.00013   3.14158
   D37        3.14128   0.00000   0.00015   0.00009   0.00024   3.14152
   D38       -0.00051   0.00001   0.00000   0.00054   0.00054   0.00003
   D39        0.00005   0.00000  -0.00001   0.00005   0.00004   0.00009
   D40       -3.14136  -0.00001   0.00014  -0.00038  -0.00024   3.14158
         Item               Value     Threshold  Converged?
 Maximum Force            0.005521     0.000450     NO 
 RMS     Force            0.001574     0.000300     NO 
 Maximum Displacement     0.023769     0.001800     NO 
 RMS     Displacement     0.007075     0.001200     NO 
 Predicted change in Energy=-4.111556D-04
 GradGradGradGradGradGradGradGradGradGradGradGradGradGradGradGradGradGrad

                          Input orientation:                          
 ---------------------------------------------------------------------
 Center     Atomic      Atomic             Coordinates (Angstroms)
 Number     Number       Type             X           Y           Z
 ---------------------------------------------------------------------
      1          6           0        0.131007    2.106320   -0.455071
      2          6           0       -0.566893    0.885153   -0.273990
      3          6           0       -1.927345    0.825204   -0.441344
      4          6           0       -2.660501    1.988226   -0.799598
      5          6           0       -1.957580    3.217392   -0.981736
      6          6           0       -0.549810    3.246492   -0.801172
      7          6           0       -2.720336    4.356677   -1.338642
      8          6           0       -4.077672    4.234782   -1.491748
      9          6           0       -4.674739    2.966223   -1.286574
     10          7           0       -4.010023    1.884374   -0.955673
     11          1           0        1.208050    2.137840   -0.318899
     12          1           0       -0.018389   -0.011435    0.000086
     13          1           0       -2.477533   -0.100690   -0.306810
     14          1           0       -0.021663    4.186435   -0.941684
     15          1           0       -2.221992    5.311961   -1.486594
     16          1           0       -4.693311    5.086133   -1.764513
     17          1           0       -5.750769    2.849111   -1.403338
 ---------------------------------------------------------------------
                    Distance matrix (angstroms):
                    1          2          3          4          5
     1  C    0.000000
     2  C    1.418133   0.000000
     3  C    2.424512   1.372018   0.000000
     4  C    2.815166   2.424094   1.420734   0.000000
     5  C    2.423645   2.806111   2.452652   1.427628   0.000000
     6  C    1.372331   2.419532   2.808864   2.457285   1.419601
     7  C    3.738310   4.221644   3.728978   2.429754   1.416738
     8  C    4.828875   5.002852   4.165631   2.744897   2.406239
     9  C    4.952376   4.714932   3.584208   2.291458   2.745717
    10  N    4.177079   3.649422   2.392473   1.362481   2.447476
    11  H    1.086075   2.172939   3.401281   3.901172   3.409692
    12  H    2.171260   1.086206   2.130479   3.408650   3.892270
    13  H    3.420139   2.150235   1.085397   2.154040   3.425719
    14  H    2.141724   3.411972   3.896131   3.437408   2.165277
    15  H    4.108135   4.879179   4.616314   3.422202   2.170717
    16  H    5.819619   6.074308   5.249463   3.828891   3.404285
    17  H    6.003851   5.657308   4.431727   3.264258   3.834274
                    6          7          8          9         10
     6  C    0.000000
     7  C    2.496511   0.000000
     8  C    3.728193   1.371372   0.000000
     9  C    4.162836   2.399117   1.416978   0.000000
    10  N    3.721870   2.814647   2.411715   1.312151   0.000000
    11  H    2.133487   4.625509   5.806169   6.019121   5.262891
    12  H    3.396838   5.307835   6.060834   5.674816   4.521141
    13  H    3.894116   4.581676   4.770833   3.897898   2.590373
    14  H    1.087279   2.733019   4.093424   4.822757   4.605073
    15  H    2.744477   1.087568   2.145668   3.399774   3.902215
    16  H    4.634750   2.146183   1.085454   2.173198   3.372294
    17  H    5.250761   3.385330   2.174201   1.088664   2.039930
                   11         12         13         14         15
    11  H    0.000000
    12  H    2.495053   0.000000
    13  H    4.312156   2.479827   0.000000
    14  H    2.469169   4.302215   4.981346   0.000000
    15  H    4.817026   5.950178   5.545627   2.530846   0.000000
    16  H    6.753391   7.138201   5.825608   4.828126   2.497130
    17  H    7.078635   6.558392   4.540680   5.901204   4.304048
                   16         17
    16  H    0.000000
    17  H    2.500586   0.000000
 Stoichiometry    C9H7N
 Framework group  C1[X(C9H7N)]
 Deg. of freedom    45
 Full point group                 C1      NOp   1
 Largest Abelian subgroup         C1      NOp   1
 Largest concise Abelian subgroup C1      NOp   1
                         Standard orientation:                         
 ---------------------------------------------------------------------
 Center     Atomic      Atomic             Coordinates (Angstroms)
 Number     Number       Type             X           Y           Z
 ---------------------------------------------------------------------
      1          6           0       -2.409740    0.700179    0.000039
      2          6           0       -2.392671   -0.717852    0.000029
      3          6           0       -1.204182   -1.403363    0.000002
      4          6           0        0.031371   -0.702012    0.000014
      5          6           0        0.013773    0.725507   -0.000043
      6          6           0       -1.232450    1.405359   -0.000019
      7          6           0        1.264025    1.391853    0.000009
      8          6           0        2.418898    0.652306    0.000037
      9          6           0        2.322060   -0.761360   -0.000035
     10          7           0        1.188220   -1.421773    0.000005
     11          1           0       -3.358602    1.228592   -0.000043
     12          1           0       -3.330247   -1.266299   -0.000090
     13          1           0       -1.172408   -2.488295   -0.000038
     14          1           0       -1.237513    2.492626   -0.000077
     15          1           0        1.293296    2.479027   -0.000012
     16          1           0        3.394056    1.129040    0.000067
     17          1           0        3.227387   -1.365985   -0.000031
 ---------------------------------------------------------------------
 Rotational constants (GHZ):      3.1550723      1.2724629      0.9067602
 Standard basis: 6-31+G(d) (6D, 7F)
 There are   204 symmetry adapted cartesian basis functions of A   symmetry.
 There are   204 symmetry adapted basis functions of A   symmetry.
   204 basis functions,   348 primitive gaussians,   204 cartesian basis functions
    34 alpha electrons       34 beta electrons
       nuclear repulsion energy       462.3178505251 Hartrees.
 NAtoms=   17 NActive=   17 NUniq=   17 SFac= 1.00D+00 NAtFMM=   60 NAOKFM=F Big=F
 Integral buffers will be    131072 words long.
 Raffenetti 2 integral format.
 Two-electron integral symmetry is turned on.
 One-electron integrals computed using PRISM.
 NBasis=   204 RedAO= T EigKep=  1.18D-06  NBF=   204
 NBsUse=   204 1.00D-06 EigRej= -1.00D+00 NBFU=   204
 Initial guess from the checkpoint file:  "/srv/scratch/z5358697/gauss/Gau-4160512.chk"
 B after Tr=     0.000000    0.000000    0.000000
         Rot=    1.000000    0.000000    0.000000    0.000319 Ang=  -0.04 deg.
 ExpMin= 4.38D-02 ExpMax= 4.17D+03 ExpMxC= 6.27D+02 IAcc=2 IRadAn=         4 AccDes= 0.00D+00
 Harris functional with IExCor= 1009 and IRadAn=       4 diagonalized for initial guess.
 HarFok:  IExCor= 1009 AccDes= 0.00D+00 IRadAn=         4 IDoV= 1 UseB2=F ITyADJ=14
 ICtDFT=  3500011 ScaDFX=  1.000000  1.000000  1.000000  1.000000
 FoFCou: FMM=F IPFlag=           0 FMFlag=      100000 FMFlg1=           0
         NFxFlg=           0 DoJE=T BraDBF=F KetDBF=T FulRan=T
         wScrn=  0.000000 ICntrl=     500 IOpCl=  0 I1Cent=   200000004 NGrid=           0
         NMat0=    1 NMatS0=      1 NMatT0=    0 NMatD0=    1 NMtDS0=    0 NMtDT0=    0
 Petite list used in FoFCou.
 Requested convergence on RMS density matrix=1.00D-08 within 128 cycles.
 Requested convergence on MAX density matrix=1.00D-06.
 Requested convergence on             energy=1.00D-06.
 No special actions if energy rises.
 SCF Done:  E(RM062X) =  -401.767273362     A.U. after   13 cycles
            NFock= 13  Conv=0.47D-08     -V/T= 2.0087
 Calling FoFJK, ICntrl=      2127 FMM=F ISym2X=0 I1Cent= 0 IOpClX= 0 NMat=1 NMatS=1 NMatT=0.
 ***** Axes restored to original set *****
 -------------------------------------------------------------------
 Center     Atomic                   Forces (Hartrees/Bohr)
 Number     Number              X              Y              Z
 -------------------------------------------------------------------
      1        6           0.000051338    0.000319039   -0.000055128
      2        6           0.000178853   -0.000544928    0.000154034
      3        6          -0.000586571    0.000344511   -0.000158836
      4        6           0.002947032    0.002560316   -0.000177458
      5        6          -0.001813566   -0.003022894    0.000424472
      6        6          -0.000194129    0.000167375   -0.000062090
      7        6          -0.000898808    0.000185720   -0.000156024
      8        6           0.001169595    0.001839983   -0.000250151
      9        6          -0.000022366   -0.001732632    0.000372568
     10        7          -0.000648565   -0.000685341    0.000072825
     11        1          -0.000061531   -0.000301086    0.000054781
     12        1           0.000392853    0.000274085   -0.000014976
     13        1          -0.000605011    0.000049937   -0.000091954
     14        1          -0.000013741    0.000273651   -0.000064471
     15        1           0.000311136    0.000058065    0.000025821
     16        1          -0.000218837   -0.000252360    0.000027596
     17        1           0.000012318    0.000466560   -0.000101009
 -------------------------------------------------------------------
 Cartesian Forces:  Max     0.003022894 RMS     0.000883850

 GradGradGradGradGradGradGradGradGradGradGradGradGradGradGradGradGradGrad
 Berny optimization.
 Using GEDIIS/GDIIS optimizer.
 FormGI is forming the generalized inverse of G from B-inverse, IUseBI=4.
 Internal  Forces:  Max     0.002665212 RMS     0.000439929
 Search for a local minimum.
 Step number   3 out of a maximum of   96
 All quantities printed in internal units (Hartrees-Bohrs-Radians)
 Mixed Optimization -- En-DIIS/RFO-DIIS
 Update second derivatives using D2CorX and points    1    2    3
 DE= -4.67D-04 DEPred=-4.11D-04 R= 1.13D+00
 TightC=F SS=  1.41D+00  RLast= 6.27D-02 DXNew= 7.8442D-01 1.8801D-01
 Trust test= 1.13D+00 RLast= 6.27D-02 DXMaxT set to 4.66D-01
 ITU=  1  1  0
 Use linear search instead of GDIIS.
     Eigenvalues ---    0.02039   0.02047   0.02102   0.02122   0.02148
     Eigenvalues ---    0.02156   0.02166   0.02182   0.02194   0.02214
     Eigenvalues ---    0.02251   0.02297   0.02339   0.02343   0.12810
     Eigenvalues ---    0.16000   0.16000   0.16000   0.16000   0.16048
     Eigenvalues ---    0.16200   0.22009   0.22153   0.22666   0.23811
     Eigenvalues ---    0.24563   0.25819   0.34996   0.35043   0.35087
     Eigenvalues ---    0.35280   0.35293   0.35336   0.35554   0.36367
     Eigenvalues ---    0.41706   0.43347   0.43974   0.45235   0.45579
     Eigenvalues ---    0.46977   0.48013   0.50143   0.53432   0.54211
 RFO step:  Lambda=-4.71670174D-05 EMin= 2.03856570D-02
 Quartic linear search produced a step of  0.15440.
 Iteration  1 RMS(Cart)=  0.00239132 RMS(Int)=  0.00000618
 Iteration  2 RMS(Cart)=  0.00000704 RMS(Int)=  0.00000086
 Iteration  3 RMS(Cart)=  0.00000000 RMS(Int)=  0.00000086
 Variable       Old X    -DE/DX   Delta X   Delta X   Delta X     New X
                                 (Linear)    (Quad)   (Total)
    R1        2.67988   0.00004   0.00108   0.00048   0.00156   2.68144
    R2        2.59333   0.00015  -0.00138   0.00097  -0.00041   2.59292
    R3        2.05238  -0.00006   0.00001  -0.00020  -0.00019   2.05219
    R4        2.59274   0.00044  -0.00143   0.00157   0.00013   2.59287
    R5        2.05263  -0.00003   0.00012  -0.00019  -0.00007   2.05256
    R6        2.68480  -0.00062   0.00161  -0.00199  -0.00038   2.68441
    R7        2.05110   0.00025  -0.00022   0.00089   0.00067   2.05178
    R8        2.69783  -0.00267  -0.00175  -0.00563  -0.00738   2.69044
    R9        2.57472   0.00057   0.00143   0.00047   0.00190   2.57662
   R10        2.68266  -0.00009   0.00106  -0.00076   0.00030   2.68296
   R11        2.67725   0.00036   0.00167  -0.00009   0.00158   2.67883
   R12        2.05466   0.00024   0.00002   0.00075   0.00076   2.05542
   R13        2.59152  -0.00085  -0.00161  -0.00118  -0.00279   2.58873
   R14        2.05521   0.00019  -0.00010   0.00069   0.00059   2.05580
   R15        2.67770   0.00122   0.00193   0.00277   0.00469   2.68239
   R16        2.05121  -0.00008   0.00015  -0.00032  -0.00017   2.05104
   R17        2.47961  -0.00007  -0.00218   0.00042  -0.00176   2.47784
   R18        2.05728  -0.00005   0.00035  -0.00033   0.00002   2.05730
    A1        2.09843  -0.00009  -0.00009   0.00067   0.00058   2.09902
    A2        2.09095  -0.00027  -0.00103  -0.00177  -0.00279   2.08816
    A3        2.09380   0.00036   0.00111   0.00109   0.00221   2.09601
    A4        2.10601  -0.00051  -0.00045  -0.00124  -0.00169   2.10432
    A5        2.08805  -0.00023  -0.00117  -0.00180  -0.00297   2.08508
    A6        2.08912   0.00075   0.00162   0.00304   0.00466   2.09378
    A7        2.10213  -0.00014  -0.00002  -0.00117  -0.00118   2.10094
    A8        2.12325   0.00065   0.00282   0.00323   0.00605   2.12930
    A9        2.05780  -0.00050  -0.00280  -0.00206  -0.00486   2.05294
   A10        2.07476   0.00075   0.00080   0.00247   0.00327   2.07802
   A11        2.06874  -0.00098  -0.00040  -0.00371  -0.00411   2.06463
   A12        2.13969   0.00024  -0.00040   0.00124   0.00084   2.14053
   A13        2.08253   0.00011  -0.00127   0.00072  -0.00055   2.08198
   A14        2.04814   0.00070  -0.00044   0.00279   0.00235   2.05049
   A15        2.15251  -0.00081   0.00171  -0.00351  -0.00180   2.15072
   A16        2.10251  -0.00011   0.00102  -0.00145  -0.00043   2.10209
   A17        2.10581   0.00021   0.00115   0.00102   0.00217   2.10799
   A18        2.07486  -0.00010  -0.00217   0.00043  -0.00175   2.07311
   A19        2.08234  -0.00010   0.00063  -0.00154  -0.00091   2.08144
   A20        2.08739  -0.00021  -0.00158  -0.00058  -0.00216   2.08523
   A21        2.11346   0.00031   0.00095   0.00212   0.00306   2.11652
   A22        2.07198  -0.00050  -0.00018  -0.00144  -0.00162   2.07036
   A23        2.11730   0.00058   0.00160   0.00213   0.00372   2.12103
   A24        2.09390  -0.00008  -0.00142  -0.00068  -0.00210   2.09180
   A25        2.16661   0.00016  -0.00078   0.00220   0.00142   2.16803
   A26        2.09123  -0.00057  -0.00276  -0.00243  -0.00518   2.08604
   A27        2.02535   0.00041   0.00354   0.00022   0.00377   2.02911
   A28        2.05761  -0.00049   0.00117  -0.00326  -0.00209   2.05552
    D1        0.00003   0.00000   0.00000  -0.00004  -0.00004  -0.00001
    D2       -3.14142   0.00000   0.00002  -0.00021  -0.00019   3.14158
    D3        3.14148   0.00000  -0.00012   0.00020   0.00007   3.14156
    D4        0.00003   0.00000  -0.00010   0.00003  -0.00007  -0.00004
    D5       -0.00004   0.00000   0.00001   0.00003   0.00004   0.00000
    D6        3.14152   0.00000   0.00004   0.00006   0.00010  -3.14156
    D7       -3.14149   0.00000   0.00013  -0.00021  -0.00008  -3.14156
    D8        0.00007   0.00000   0.00016  -0.00018  -0.00002   0.00006
    D9        0.00002   0.00000   0.00001  -0.00002  -0.00002   0.00001
   D10       -3.14156   0.00000  -0.00002  -0.00003  -0.00005   3.14158
   D11        3.14148   0.00000  -0.00002   0.00015   0.00013  -3.14158
   D12       -0.00011   0.00000  -0.00005   0.00014   0.00010  -0.00001
   D13       -0.00008   0.00000  -0.00001   0.00009   0.00008   0.00000
   D14        3.14158   0.00000   0.00001  -0.00001   0.00000   3.14157
   D15        3.14150   0.00000   0.00002   0.00009   0.00011  -3.14157
   D16       -0.00003   0.00000   0.00004  -0.00001   0.00003   0.00000
   D17        0.00007   0.00000   0.00002  -0.00010  -0.00008   0.00000
   D18        3.14156   0.00000   0.00001   0.00002   0.00002   3.14159
   D19       -3.14158   0.00000   0.00000   0.00001   0.00001  -3.14158
   D20       -0.00010   0.00000  -0.00001   0.00012   0.00011   0.00001
   D21        3.14155   0.00000  -0.00001   0.00009   0.00008  -3.14155
   D22        0.00002   0.00000   0.00001  -0.00001   0.00000   0.00002
   D23       -0.00002   0.00000  -0.00002   0.00004   0.00002   0.00000
   D24       -3.14158   0.00000  -0.00005   0.00001  -0.00004   3.14157
   D25       -3.14150   0.00000  -0.00001  -0.00008  -0.00009  -3.14159
   D26        0.00013   0.00000  -0.00004  -0.00011  -0.00015  -0.00002
   D27        0.00006   0.00000  -0.00001  -0.00007  -0.00008  -0.00001
   D28       -3.14157   0.00000  -0.00006   0.00000  -0.00006   3.14156
   D29        3.14155   0.00000  -0.00002   0.00005   0.00003   3.14158
   D30       -0.00009   0.00000  -0.00007   0.00012   0.00005  -0.00004
   D31        0.00004   0.00000   0.00003  -0.00008  -0.00006  -0.00002
   D32        3.14158   0.00000  -0.00004   0.00002  -0.00002   3.14157
   D33       -3.14151   0.00000   0.00007  -0.00015  -0.00007  -3.14159
   D34        0.00003   0.00000   0.00001  -0.00005  -0.00003   0.00000
   D35       -0.00012   0.00000  -0.00003   0.00020   0.00018   0.00005
   D36        3.14158   0.00000   0.00002  -0.00006  -0.00004   3.14154
   D37        3.14152   0.00000   0.00004   0.00010   0.00014  -3.14153
   D38        0.00003   0.00000   0.00008  -0.00016  -0.00008  -0.00005
   D39        0.00009   0.00000   0.00001  -0.00015  -0.00015  -0.00006
   D40        3.14158   0.00000  -0.00004   0.00010   0.00006  -3.14154
         Item               Value     Threshold  Converged?
 Maximum Force            0.002665     0.000450     NO 
 RMS     Force            0.000440     0.000300     NO 
 Maximum Displacement     0.012222     0.001800     NO 
 RMS     Displacement     0.002393     0.001200     NO 
 Predicted change in Energy=-3.208996D-05
 GradGradGradGradGradGradGradGradGradGradGradGradGradGradGradGradGradGrad

                          Input orientation:                          
 ---------------------------------------------------------------------
 Center     Atomic      Atomic             Coordinates (Angstroms)
 Number     Number       Type             X           Y           Z
 ---------------------------------------------------------------------
      1          6           0        0.130356    2.106695   -0.455177
      2          6           0       -0.566815    0.884213   -0.273709
      3          6           0       -1.927351    0.825276   -0.441324
      4          6           0       -2.658063    1.989599   -0.799540
      5          6           0       -1.958681    3.216251   -0.981657
      6          6           0       -0.550748    3.246430   -0.801288
      7          6           0       -2.720681    4.357022   -1.338757
      8          6           0       -4.076567    4.235421   -1.491726
      9          6           0       -4.672754    2.963790   -1.285845
     10          7           0       -4.008430    1.882787   -0.955090
     11          1           0        1.207305    2.136223   -0.318626
     12          1           0       -0.014703   -0.010158    0.000222
     13          1           0       -2.484000   -0.097404   -0.308422
     14          1           0       -0.024763    4.187942   -0.942531
     15          1           0       -2.219148    5.311101   -1.486010
     16          1           0       -4.695338    5.084433   -1.764337
     17          1           0       -5.749118    2.850577   -1.403484
 ---------------------------------------------------------------------
                    Distance matrix (angstroms):
                    1          2          3          4          5
     1  C    0.000000
     2  C    1.418957   0.000000
     3  C    2.424126   1.372088   0.000000
     4  C    2.812042   2.423158   1.420530   0.000000
     5  C    2.423297   2.806578   2.451470   1.423720   0.000000
     6  C    1.372112   2.420468   2.808309   2.453652   1.419760
     7  C    3.738060   4.223016   3.729341   2.428861   1.417576
     8  C    4.827433   5.003250   4.165520   2.744993   2.405061
     9  C    4.949191   4.712515   3.581019   2.290092   2.742711
    10  N    4.174877   3.647759   2.390225   1.363486   2.445466
    11  H    1.085973   2.171876   3.399956   3.897929   3.410210
[...]
 ! D36   D(7,8,9,17)           180.0023         -DE/DX =    0.0                 !
 ! D37   D(16,8,9,10)          179.9984         -DE/DX =    0.0                 !
 ! D38   D(16,8,9,17)            0.003          -DE/DX =    0.0                 !
 ! D39   D(8,9,10,4)             0.0014         -DE/DX =    0.0                 !
 ! D40   D(17,9,10,4)         -180.003          -DE/DX =    0.0                 !
 --------------------------------------------------------------------------------
 GradGradGradGradGradGradGradGradGradGradGradGradGradGradGradGradGradGrad

 1\1\GINC-KATANA2\Freq\RM062X\6-31+G(d)\C9H7N1\Z5358697\18-Mar-2025\0\\
 #N Geom=AllCheck Guess=TCheck SCRF=Check GenChk RM062X/6-31+G(d) Freq\
 \quinoline\\0,1\C,0.1301495197,2.1066789044,-0.4551983995\C,-0.5664836
 683,0.8841338952,-0.2736478723\C,-1.9272917753,0.8252788004,-0.4413309
 652\C,-2.6575421541,1.9895126563,-0.7994693707\C,-1.9591265587,3.21543
 75093,-0.9815391297\C,-0.5512309844,3.2465620471,-0.8013813695\C,-2.72
 05448926,4.3570068782,-1.3387318237\C,-4.0765363398,4.2359012595,-1.49
 18184245\C,-4.6728229514,2.9639365837,-1.2858226394\N,-4.0087502095,1.
 8825855719,-0.9550835273\H,1.2071223591,2.1359176293,-0.3185905956\H,-
 0.0134454912,-0.0096140977,0.0002745003\H,-2.4844776715,-0.0970862856,
 -0.3085608675\H,-0.0252258155,4.1880063038,-0.9425820404\H,-2.21797245
 37,5.310545679,-1.4857493553\H,-4.6961018349,5.0842392826,-1.764416956
 8\H,-5.7492190779,2.8511573826,-1.403651163\\Version=ES64L-G09RevD.01\
 State=1-A\HF=-401.7673131\RMSD=2.651e-09\RMSF=8.763e-05\ZeroPoint=0.13
 68399\Thermal=0.1435061\Dipole=0.45993,0.7035739,-0.096648\DipoleDeriv
 =0.0806059,0.0885368,0.0094843,0.1107128,-0.1002235,0.0057754,0.004518
 7,0.002826,-0.1401204,-0.1004013,-0.0240756,0.0109098,-0.0489112,0.129
 6289,-0.0673798,0.0164735,-0.0640748,-0.1253021,-0.0415301,0.0637753,-
 0.0011638,0.0675749,0.0671738,-0.0375575,-0.0020159,-0.0380634,-0.1321
 019,0.2066703,-0.0287044,0.021447,-0.2742199,0.1166696,-0.0415879,0.07
 64995,-0.0089503,0.1059245,-0.0411597,-0.1000921,0.0086407,0.1024996,-
 0.2815759,0.0908252,-0.0367936,0.0638983,0.0434912,0.0719869,0.0324749
 ,0.0225088,0.0746379,0.0624836,-0.0382115,0.0130552,-0.0438185,-0.1405
 946,0.2636141,0.018399,0.0463186,-0.0679891,0.2182016,-0.08396,0.06569
 11,-0.0724743,-0.0909383,-0.385506,-0.0661006,-0.0197328,-0.2361676,-0
 .01411,-0.0563759,0.0183957,-0.0337648,-0.1154971,0.4121805,0.0588871,
 0.0406735,0.2852881,0.270395,-0.0211824,-0.0100677,-0.0512788,0.017033
 ,-0.4114075,0.0091685,-0.0190794,0.0204872,-0.4583035,0.0419551,-0.021
 6113,0.0404406,-0.2953324,-0.0879619,-0.0071896,-0.0292071,-0.0087984,
 0.0711354,0.0151465,-0.0288499,0.0153613,0.1366156,0.0286113,0.0653425
 ,-0.029712,0.0647271,-0.0366865,0.0486523,-0.0295728,0.0487316,0.12704
 96,0.0478733,-0.0656694,0.0026718,-0.0244912,-0.0030245,0.0284934,-0.0
 065621,0.0230193,0.1325237,0.0268282,-0.0311953,-0.0077317,-0.0872913,
 -0.0533112,0.0312137,0.0048469,0.0386717,0.1295978,0.03308,-0.0895585,
 0.0078365,-0.0391771,-0.0349761,0.0307133,-0.0034586,0.0240147,0.11936
 38,0.0226219,0.065589,-0.0312285,0.0688805,-0.0112485,0.0446227,-0.031
 9637,0.0441841,0.1327494,-0.126106,0.0104123,-0.0326356,-0.0077625,0.0
 577717,0.0088573,-0.0285848,0.0112772,0.0955381\Polar=142.7424655,-15.
 9986101,117.2759499,15.1866392,-15.9842809,61.0809757\PG=C01 [X(C9H7N1
 )]\NImag=0\\0.74517240,-0.02789776,0.66383059,0.08732279,-0.12222513,0
 .17432944,-0.16892099,-0.04025660,-0.00499297,0.74267624,-0.10897196,-
 0.25329780,0.02808863,-0.03029854,0.66857439,0.01041615,0.03722215,-0.
 07040681,0.08722010,-0.12309077,0.17680740,-0.02418214,-0.07688187,0.0
 1314873,-0.41198727,0.01981852,-0.05100219,0.76622732,-0.03061816,0.03
 037864,-0.00940225,-0.04468753,-0.13349309,0.01015430,0.07101213,0.673
 50817,0.00277438,-0.01555161,0.01045571,-0.03653703,0.01872855,-0.0707
 7865,0.06790583,-0.11119256,0.16951597,0.00071686,0.02479890,-0.004763
 26,-0.04942555,0.01070088,-0.00936387,-0.12652262,0.07783878,-0.025518
 13,0.67603729,0.00137604,-0.05138027,0.01051953,0.05449990,0.03678577,
 -0.00033913,0.04391047,-0.25751761,0.04881416,-0.01171356,0.66099122,0
 .00048903,0.01363284,-0.00827675,-0.01918545,-0.00616091,0.00180040,-0
 .01790968,0.05332391,-0.08020017,0.06959648,-0.11116818,0.20636320,-0.
 02307254,0.07283096,-0.02012467,-0.04876925,-0.03139125,0.00117456,0.0
 5906596,-0.01536508,0.01066976,-0.17462003,-0.04960747,-0.00268842,0.6
 9673853,0.02975305,0.00830526,0.00331745,-0.00611296,-0.00548117,-0.00
 062543,0.00283521,-0.03224990,0.00866631,-0.04514476,-0.24337408,0.032
 71914,-0.00810942,0.64791633,-0.01046479,0.00904358,0.00204353,-0.0044
 9410,-0.00398555,-0.00435050,0.00658845,0.00624710,0.00419149,-0.00368
 940,0.03212591,-0.07839860,0.07470105,-0.11308697,0.18370172,-0.201917
 64,0.08272631,-0.03719977,0.06476002,0.02527254,0.00201080,-0.04933912
 ,0.02461979,-0.01183287,-0.00213073,-0.05583677,0.01209209,-0.29125317
 ,-0.00928825,-0.02828077,0.65701656,0.14750424,-0.32212219,0.07802252,
 -0.02286975,-0.05526128,0.01092071,0.02784287,-0.01561037,0.00678616,-
 0.03514545,0.02703057,-0.01048691,-0.04293920,-0.11176839,0.00526977,0
 .00656473,0.75443196,-0.05172549,0.06941218,-0.08406309,0.01280643,0.0
 1731977,0.00481315,-0.01255554,0.00635762,-0.00494674,0.00745221,-0.01
 323732,0.00505538,-0.02073511,0.00974273,-0.06775532,0.06785206,-0.137
 92748,0.17541833,-0.00486943,-0.02602082,0.00437719,0.01622827,0.01060
 652,-0.00010371,-0.01664597,0.00546476,-0.00423820,0.06887489,0.007286
 53,0.00696601,-0.14840820,0.05486557,-0.02354311,-0.04752986,0.0428610
 5,-0.01630334,0.75141649,-0.00345656,0.01635236,-0.00275899,-0.0108346
 3,-0.00655338,-0.00016910,0.00413224,-0.00851631,0.00380888,-0.0138829
 5,-0.03610257,0.00718647,0.08750819,-0.25280124,0.05400385,0.02182625,
 -0.00127569,0.00381895,0.07131879,0.67881281,-0.00068262,-0.00575838,0
 .00729808,0.00470441,0.00268093,-0.00086113,-0.00393952,0.00398613,0.0
 0460263,0.01171343,0.01000007,0.00348843,-0.03086319,0.04966525,-0.079
 08029,-0.01158670,0.00661482,-0.00020660,0.06502045,-0.11090930,0.1754
 5264,0.00005793,0.02147627,-0.00479664,-0.01718541,-0.00965060,-0.0001
 2019,0.01476255,-0.01109488,0.00447711,-0.05171618,-0.00738917,-0.0038
 6827,-0.04896366,0.05302859,-0.01915462,0.02497500,-0.00630406,0.00387
 955,-0.41334220,-0.05998607,-0.03339495,0.75393654,0.00071869,0.015304
 23,-0.00335580,-0.01305802,-0.00821321,0.00010610,0.01423226,-0.009384
 59,0.00395050,-0.04533016,-0.00631025,-0.00688569,0.01453397,0.0382052
 6,-0.00536235,0.01631868,-0.01047108,0.00595749,0.00434842,-0.13403230
 ,0.01697472,-0.03877052,0.66064111,-0.00014195,-0.00059693,0.00002813,
 0.00064408,0.00055905,-0.00003982,-0.00120240,0.00058420,-0.00049416,0
 .00464002,-0.00184258,-0.00911716,-0.01052199,-0.00024609,0.00433367,-
 0.00119366,0.00295065,0.00560298,-0.04782183,0.00842432,-0.06915836,0.
 09198431,-0.12474969,0.16753924,-0.00048027,0.00232386,-0.00065352,-0.
 00347580,-0.00155190,-0.00009395,-0.00006234,-0.00746407,0.00054099,-0
 .05460575,0.04344793,-0.01738482,-0.00046286,0.00650645,-0.00030814,0.
 00089834,0.00097758,-0.00004587,-0.01685541,-0.03543036,0.00474046,-0.
 16761679,-0.10043855,0.00970063,0.77876954,-0.00141328,-0.02682030,0.0
 0594217,0.02601079,0.01385940,0.00031565,-0.02790475,0.02138360,-0.006
 60676,0.08822409,-0.00047365,0.01248209,0.02004402,-0.05634127,0.01325
 323,-0.02496928,0.00814381,-0.00523643,-0.08605039,0.02885871,-0.01628
 159,-0.02454176,-0.24526352,0.03578695,-0.02952827,0.67131145,0.000184
 59,0.00643899,-0.00090323,-0.00627473,-0.00334788,-0.00023433,0.005124
 51,-0.00388987,0.01001418,-0.02742644,0.00653043,-0.00221571,-0.003343
 87,0.01145372,-0.01213375,0.00577278,-0.00178758,0.00076164,0.01609089
 ,-0.00955396,0.01153929,-0.00731945,0.02569801,-0.07787995,0.08879752,
 -0.11844907,0.19895815,-0.00159323,-0.02589233,0.00578324,0.02886772,0
 .01919132,-0.00138435,-0.06879901,0.03061781,-0.01579275,-0.28831808,-
 0.04336282,-0.01934041,-0.01431711,-0.06669215,0.01090671,-0.01917787,
 0.00347214,-0.00419566,-0.06039832,0.02946438,-0.01379730,0.07297716,0
 .04848648,-0.00464272,-0.21335934,0.11275801,-0.04502554,0.58446021,0.
 00125800,0.01041804,-0.00248750,-0.00931003,-0.01072025,0.00271500,0.0
 5010022,-0.00107552,0.00653363,-0.03988232,-0.10999070,0.00374589,-0.0
 3802675,0.02892752,-0.00792107,0.00806025,-0.00956923,0.00468156,0.034
 05730,-0.01238659,0.00589063,-0.01709448,-0.06958906,0.01918642,0.1449
 5758,-0.34024670,0.08102299,-0.13957172,0.51746921,-0.00030507,-0.0060
 9625,-0.00009401,0.00500678,0.00650335,0.00611317,-0.02016168,0.003944
 12,-0.00519968,-0.02012054,0.00328343,-0.07305495,0.00447838,-0.011730
 87,0.01937034,-0.00522448,0.00407156,0.00492209,-0.01482662,0.00527980
 ,-0.00946077,0.01006320,0.02790408,0.02118608,-0.05224556,0.07674118,-
 0.08899405,0.09634098,-0.11326406,0.13329418,-0.33979316,-0.00885163,-
 0.03813333,-0.01010722,0.00223439,-0.00226632,0.00062998,-0.00304659,0
 .00006297,0.00070862,-0.00002716,0.00013788,0.00085505,0.00247523,-0.0
 0163328,-0.01073552,-0.00284032,-0.00135438,-0.00049041,-0.00051442,0.
 00001322,-0.00024376,0.00030605,-0.00001322,0.00015268,0.00012513,-0.0
 0002166,-0.00015135,-0.00002588,0.00011111,0.35857893,-0.00958803,-0.0
 5903623,0.00344375,-0.02781961,0.00433643,-0.00395894,-0.00227130,-0.0
 0469608,0.00193860,0.00057338,-0.00138187,0.00032266,0.00167289,-0.004
 14987,0.00316353,0.02762835,0.00560042,0.00336856,0.00087847,0.0008325
 8,-0.00000761,0.00048659,-0.00018184,-0.00004267,-0.00003079,-0.000441
 04,0.00011825,-0.00040846,0.00044939,-0.00036663,0.00966556,0.05716035
 ,-0.03796868,0.00354163,-0.04383640,0.00447330,0.00003612,0.00375928,-
 0.00011079,0.00183555,0.00486898,0.00000323,0.00024285,-0.00033686,-0.
 00145323,0.00327021,0.00803956,-0.00818660,-0.00068163,0.00330948,-0.0
 0029914,-0.00019276,0.00028146,-0.00005371,-0.00006666,-0.00065273,0.0
 0001332,0.00013897,0.00007512,0.00019687,-0.00031578,-0.00084649,0.042
 09218,-0.00578643,0.03251884,0.01216401,-0.01412566,0.00433142,-0.1325
 2244,0.11812193,-0.03889811,-0.01078124,0.02810470,-0.00838264,-0.0043
 8253,-0.00274906,-0.00120456,-0.00105765,-0.00029281,-0.00001065,-0.00
 100665,-0.00341027,-0.00005567,0.00038577,-0.00005323,0.00018876,-0.00
 022309,-0.00022743,0.00000374,-0.00049101,0.00028304,-0.00000214,-0.00
 065455,0.00136983,-0.00046911,0.00059663,0.00069911,0.00030481,0.13673
 754,0.01593851,-0.01661422,0.00660831,0.11867307,-0.25294571,0.0637145
 0,-0.00248948,0.00571908,-0.00052137,-0.00154144,0.00159055,0.00152787
 ,-0.00088991,0.00040702,-0.00031803,-0.00415630,-0.00307385,0.00129516
 ,0.00026860,-0.00011611,-0.00015005,-0.00016226,-0.00007710,0.00002544
 ,0.00003132,0.00021244,-0.00025706,0.00013986,0.00004614,0.00013467,-0
 .00006923,0.00074141,-0.00082037,-0.12694616,0.26470391,-0.00241020,0.
 00261244,0.00250164,-0.03902172,0.06364093,-0.05861162,-0.00152211,0.0
 0354534,0.00387251,-0.00147542,0.00136738,0.00881512,0.00012320,-0.000
 23868,-0.00041380,0.00011168,0.00139429,0.00486776,0.00011660,-0.00019
 284,-0.00088576,-0.00001088,0.00001677,0.00012731,0.00005429,-0.000223
 61,-0.00089506,-0.00019335,0.00029818,0.00047121,0.00047716,-0.0007182
 6,-0.00265154,0.04317254,-0.07037846,0.04761832,-0.00501573,0.00109995
 ,-0.00205560,-0.00921909,-0.02700785,0.00423157,-0.13191952,-0.1264566
 7,0.01586963,0.01098707,0.01411849,-0.00234336,-0.00158913,0.00218703,
 -0.00132027,-0.00055701,0.00075171,-0.00014132,0.00047289,0.00078188,-
 0.00011331,0.00019475,0.00005657,0.00002007,-0.00012477,-0.00018766,0.
 00006191,0.00114210,-0.00012045,0.00064598,-0.00055865,-0.00135357,0.0
 0021759,0.00087298,0.00042387,0.00073464,0.13536097,0.00042095,0.00182
 250,0.00157422,0.00208531,0.00482965,0.00020525,-0.12468749,-0.2684774
 6,0.03511441,-0.01569736,-0.01852288,0.00314311,0.00380521,-0.00235994
 ,0.00207861,0.00086963,0.00018600,-0.00009698,-0.00149962,-0.00071895,
 -0.00003670,0.00022433,0.00040103,-0.00007172,0.00036554,-0.00020264,0
 .00003262,-0.00177846,0.00222696,-0.00152390,0.00020272,0.00013611,0.0
 0001614,-0.00020308,0.00034743,-0.00130884,0.13567368,0.28071158,-0.00
 190328,0.00166454,0.00796687,-0.00229248,-0.00366190,0.00502532,0.0154
 7302,0.03487905,-0.04374019,0.00434255,0.00710648,0.00378210,-0.001683
 17,0.00186353,0.00401241,-0.00016771,-0.00011269,-0.00075898,0.0003983
 3,0.00026656,-0.00000056,-0.00001756,-0.00009404,-0.00003301,-0.000062
 14,-0.00004090,-0.00027296,0.00101781,-0.00130354,-0.00308712,-0.00013
 140,-0.00019071,0.00011322,0.00087520,-0.00122548,-0.00497777,-0.01588
 091,-0.03909357,0.03260818,0.01224681,0.01515166,-0.00238192,-0.001068
 53,0.00262401,-0.00182824,-0.00071852,0.00056896,-0.00012586,-0.004417
 09,0.00255637,-0.00186153,-0.01122513,-0.02799349,0.00433011,-0.125592
 08,-0.11906470,0.01494337,0.00155225,-0.00153011,0.00097628,0.00026867
 ,0.00043274,-0.00002957,0.00038351,-0.00048153,0.00019135,-0.00135030,
 -0.00184545,0.00019044,0.00065545,-0.00024417,0.00083784,0.00044938,0.
 00080006,-0.00013018,0.00008167,-0.00008433,0.00017083,0.12902485,-0.0
 1524551,-0.01717558,0.00285775,0.00384478,-0.00219869,0.00285619,0.000
 61359,0.00030276,-0.00015039,0.00044115,0.00167475,0.00086606,0.000568
 87,0.00209601,0.00037358,-0.11802092,-0.26787128,0.03605284,0.00139134
 ,0.00092071,-0.00074167,-0.00050364,-0.00020333,-0.00007495,0.00004317
 ,0.00052467,-0.00016655,0.00031745,-0.00028271,0.00017968,0.00033989,0
 .00059366,-0.00126212,-0.00078343,-0.00098284,0.00013400,-0.00007568,-
 0.00009050,-0.00022774,0.12783850,0.28259067,0.00443450,0.00689800,0.0
 0364759,-0.00210204,0.00269389,0.00737559,-0.00013587,-0.00015633,-0.0
 0071458,-0.00138725,0.00114721,0.00483368,-0.00207493,-0.00342298,0.00
 391651,0.01470936,0.03591434,-0.04324199,0.00032122,-0.00113000,-0.002
 91536,0.00018041,0.00004953,-0.00022609,0.00007369,-0.00023630,-0.0001
 8087,-0.00029461,-0.00010784,0.00031541,0.00070695,-0.00133972,-0.0048
 4160,0.00022491,0.00034448,0.00003173,0.00016888,-0.00022889,-0.000987
 46,-0.01487401,-0.04071519,0.03240552,0.00000055,-0.00054994,0.0001414
 0,0.00035478,0.00015439,0.00002220,0.00041143,0.00087697,-0.00008889,-
 0.00156107,0.00287409,-0.00170583,0.01167208,0.01456378,-0.00238880,0.
 00144541,0.00120470,0.00034822,-0.11920630,-0.11303467,0.01502331,-0.0
 0811044,-0.02935867,0.00464074,-0.00585569,0.00115114,-0.00240284,-0.0
 0035304,0.00025160,0.00043560,0.00000948,-0.00002831,-0.00001448,-0.00
 001427,-0.00003945,-0.00000149,-0.00014517,0.00021374,-0.00009376,-0.0
 0025772,-0.00069007,0.00007686,0.12120833,0.00020710,0.00008866,-0.000
 02275,0.00000425,0.00006717,-0.00003079,-0.00128231,-0.00082679,-0.000
 07459,0.00441419,-0.00130469,0.00231975,-0.01376270,-0.01801307,0.0033
 4776,-0.00147481,0.00113265,-0.00116911,-0.11395880,-0.27568330,0.0373
 5650,0.00076736,0.00255675,0.00098773,-0.00025136,0.00231492,0.0017521
 5,0.00052292,-0.00010431,-0.00081634,0.00003374,-0.00000458,0.00004278
 ,0.00006048,0.00003870,0.00001360,0.00021205,-0.00033674,0.00014846,0.
 00113087,0.00006181,0.00021009,0.12333625,0.28969975,-0.00002835,-0.00
 012342,-0.00011159,0.00005591,-0.00001080,-0.00006282,0.00039527,0.000
 21247,-0.00039439,-0.00205103,0.00211514,0.00567688,0.00396336,0.00711
 272,0.00400579,0.00094902,-0.00081296,-0.00289841,0.01523014,0.0374792
 9,-0.04792099,-0.00211459,-0.00301643,0.00690229,-0.00208812,0.0019384
 2,0.00956563,0.00037456,-0.00085222,-0.00381387,-0.00002840,0.00003453
 ,0.00015469,-0.00002390,0.00000032,0.00006025,-0.00009338,0.00014869,0
 .00015387,-0.00033148,-0.00003195,0.00029147,-0.01503366,-0.04268399,0
 .03381392,-0.00058591,0.00015259,-0.00001512,-0.00020701,-0.00026155,0
 .00001256,0.00047653,-0.00008711,0.00027304,-0.00140049,-0.00056046,-0
 .00005567,-0.00491528,-0.00262635,-0.00131494,0.00024110,0.00146401,-0
 .00035014,-0.01181931,0.02641407,-0.00798847,-0.15162055,0.12682547,-0
 .04382003,0.01277561,-0.01125806,0.00408935,-0.00014303,-0.00400500,0.
 00009535,-0.00007785,0.00014352,-0.00003845,0.00000710,0.00001371,-0.0
 0002205,-0.00002404,0.00006606,-0.00002539,-0.00001114,-0.00004038,-0.
 00002172,0.00095274,-0.00011793,0.00085557,0.15619798,0.00004905,0.000
 18093,-0.00019767,-0.00016541,-0.00007073,0.00002523,0.00038597,-0.000
 14658,-0.00023668,-0.00196799,0.00048136,-0.00037758,-0.00196087,0.001
 45959,0.00152182,0.00004031,0.00019034,0.00005369,-0.00389821,0.007518
 56,-0.00137059,0.12711214,-0.23533719,0.06161601,0.02029869,-0.0137808
 5,0.00601352,-0.00325581,-0.00523698,0.00206390,-0.00000696,0.00002421
 ,-0.00001325,0.00002346,-0.00000280,0.00003736,-0.00005700,0.00007288,
 -0.00001147,0.00002312,0.00002983,0.00004581,0.00058489,0.00037848,-0.
 00119234,-0.13681641,0.24381923,0.00000808,-0.00018384,-0.00068725,-0.
 00000904,0.00001240,0.00013580,0.00016697,-0.00029953,-0.00134124,0.00
 025994,-0.00019058,0.00004110,-0.00146422,0.00143327,0.00889173,-0.000
 03084,0.00024287,0.00034710,-0.00119076,0.00265856,0.00296285,-0.04388
 463,0.06157740,-0.05556506,-0.00298744,0.00181970,0.00019868,-0.000072
 45,0.00196408,0.00544613,-0.00000471,0.00000676,-0.00003287,-0.0000242
 4,0.00003605,0.00013855,0.00000221,0.00000488,0.00005472,-0.00003597,0
 .00003737,0.00020725,0.00069801,-0.00128562,-0.00490386,0.04815530,-0.
 06731561,0.04623737,0.00007247,-0.00008389,0.00001203,0.00000152,0.000
 40915,-0.00002701,-0.00061602,-0.00028382,-0.00005734,0.00177540,0.001
 17666,-0.00173350,0.00032239,0.00004527,0.00007654,-0.00009678,-0.0000
 6928,0.00018068,0.00063486,-0.00272279,-0.00001426,-0.00815054,0.00092
 402,-0.00224622,-0.32958965,-0.04226125,-0.02849622,-0.01883195,0.0098
 2726,-0.00401474,-0.00002890,-0.00000363,-0.00001407,-0.00007997,0.000
 00523,-0.00000271,0.00004068,0.00002319,-0.00001993,-0.00002208,-0.000
 03911,-0.00000635,-0.00055109,0.00015870,-0.00003094,0.00015357,-0.000
 38896,0.00041378,0.35496611,-0.00003437,-0.00023461,0.00007574,0.00029
 498,-0.00021748,-0.00002090,0.00063372,0.00070206,-0.00000725,0.003314
 61,-0.00219565,0.00380949,0.00108853,-0.00077805,0.00024522,-0.0001805
 2,0.00030760,-0.00039322,-0.00191950,-0.00510930,0.00208685,-0.0275978
 5,0.00195510,-0.00249615,-0.04425683,-0.06303901,-0.00160873,0.0359914
 0,-0.00033521,0.00369229,-0.00000051,0.00001697,0.00001475,0.00012856,
 0.00000597,0.00000042,-0.00004634,-0.00002501,0.00003342,0.00011749,0.
 00001007,0.00003391,-0.00151044,-0.00006541,-0.00031746,0.00069382,0.0
 0041974,-0.00051816,0.03328324,0.06858221,0.00000090,0.00006920,0.0001
 0812,-0.00000147,-0.00000580,-0.00048443,-0.00026298,-0.00012926,0.000
 28832,-0.00221254,0.00352521,0.01174391,-0.00015752,0.00010669,-0.0003
 7451,0.00020561,-0.00037843,-0.00122679,-0.00019411,0.00198027,0.00486
 443,0.00415093,0.00129605,0.00744663,-0.02805134,-0.00134368,-0.047402
 79,-0.00988104,0.00021362,-0.00656768,-0.00001476,0.00001433,0.0000778
 7,-0.00003037,-0.00001598,-0.00006885,-0.00000434,0.00004267,0.0001413
 6,-0.00004147,0.00001309,0.00008320,0.00034341,-0.00009562,-0.00051887
 ,0.00017082,-0.00066216,-0.00213101,0.03598025,-0.00463022,0.03402109\
 \0.00004072,0.00016498,-0.00003231,-0.00011455,-0.00011250,0.00001053,
 0.00019901,-0.00010452,0.00005067,-0.00030407,0.00006242,-0.00005656,-
 0.00000628,0.00014708,-0.00003408,0.00008443,-0.00017091,0.00004975,0.
 00005457,-0.00009601,0.00002928,-0.00007731,0.00000194,-0.00001348,-0.
 00010724,-0.00000650,-0.00000462,0.00028452,-0.00000321,0.00003736,-0.
 00000794,-0.00001637,0.00000326,0.00001689,0.00000647,0.00000040,-0.00
 004757,0.00002217,-0.00001143,-0.00002575,0.00003801,-0.00001232,0.000
 00783,0.00001829,-0.00000243,0.00001143,0.00000745,-0.00000053,-0.0000
 0869,0.00004121,-0.00001351\\\@


 SCIENCE AND PEACE WILL TRIUMPH OVER IGNORANCE AND WAR

                          -- PASTEUR
 Job cpu time:       0 days  0 hours 10 minutes 15.1 seconds.
 File lengths (MBytes):  RWF=    204 Int=      0 D2E=      0 Chk=      5 Scr=      2
 Normal termination of Gaussian 09 at Tue Mar 18 10:52:16 2025.
