 Entering Gaussian System, Link 0=g09
 Initial command:
 /apps/z_install_tree/linux-rocky8-ivybridge/gcc-12.2.0/gaussian-09-D.01-wczn3gur5lpur3omlkzwa2l5ecyxp5ef/g09/l1.exe "/srv/scratch/z5358697/gauss/Gau-1831154.inp" -scrdir="/srv/scratch/z5358697/gauss/"
 Entering Link 1 = /apps/z_install_tree/linux-rocky8-ivybridge/gcc-12.2.0/gaussian-09-D.01-wczn3gur5lpur3omlkzwa2l5ecyxp5ef/g09/l1.exe PID=   1831155.
  
 Copyright (c) 1988,1990,1992,1993,1995,1998,2003,2009,2013,
            Gaussian, Inc.  All Rights Reserved.
  
 This is part of the Gaussian(R) 09 program.  It is based on
 the Gaussian(R) 03 system (copyright 2003, Gaussian, Inc.),
 the Gaussian(R) 98 system (copyright 1998, Gaussian, Inc.),
 the Gaussian(R) 94 system (copyright 1995, Gaussian, Inc.),
 the Gaussian 92(TM) system (copyright 1992, Gaussian, Inc.),
 the Gaussian 90(TM) system (copyright 1990, Gaussian, Inc.),
 the Gaussian 88(TM) system (copyright 1988, Gaussian, Inc.),
 the Gaussian 86(TM) system (copyright 1986, Carnegie Mellon
 University), and the Gaussian 82(TM) system (copyright 1983,
 Carnegie Mellon University). Gaussian is a federally registered
 trademark of Gaussian, Inc.
  
 This software contains proprietary and confidential information,
 including trade secrets, belonging to Gaussian, Inc.
  
 This software is provided under written license and may be
 used, copied, transmitted, or stored only in accord with that
 written license.
  
 The following legend is applicable only to US Government
 contracts under FAR:
  
                    RESTRICTED RIGHTS LEGEND
  
 Use, reproduction and disclosure by the US Government is
 subject to restrictions as set forth in subparagraphs (a)
 and (c) of the Commercial Computer Software - Restricted
 Rights clause in FAR 52.227-19.
  
 Gaussian, Inc.
 340 Quinnipiac St., Bldg. 40, Wallingford CT 06492
  
  
 ---------------------------------------------------------------
 Warning -- This program may not be used in any manner that
 competes with the business of Gaussian, Inc. or will provide
 assistance to any competitor of Gaussian, Inc.  The licensee
 of this program is prohibited from giving any competitor of
 Gaussian, Inc. access to this program.  By using this program,
 the user acknowledges that Gaussian, Inc. is engaged in the
 business of creating and licensing software in the field of
 computational chemistry and represents and warrants to the
 licensee that it is not a competitor of Gaussian, Inc. and that
 it will not use this program in any manner prohibited above.
 ---------------------------------------------------------------
  

 Cite this work as:
 Gaussian 09, Revision D.01,
 M. J. Frisch, G. W. Trucks, H. B. Schlegel, G. E. Scuseria, 
 M. A. Robb, J. R. Cheeseman, G. Scalmani, V. Barone, B. Mennucci, 
 G. A. Petersson, H. Nakatsuji, M. Caricato, X. Li, H. P. Hratchian, 
 A. F. Izmaylov, J. Bloino, G. Zheng, J. L. Sonnenberg, M. Hada, 
 M. Ehara, K. Toyota, R. Fukuda, J. Hasegawa, M. Ishida, T. Nakajima, 
 Y. Honda, O. Kitao, H. Nakai, T. Vreven, J. A. Montgomery, Jr., 
 J. E. Peralta, F. Ogliaro, M. Bearpark, J. J. Heyd, E. Brothers, 
 K. N. Kudin, V. N. Staroverov, T. Keith, R. Kobayashi, J. Normand, 
 K. Raghavachari, A. Rendell, J. C. Burant, S. S. Iyengar, J. Tomasi, 
 M. Cossi, N. Rega, J. M. Millam, M. Klene, J. E. Knox, J. B. Cross, 
 V. Bakken, C. Adamo, J. Jaramillo, R. Gomperts, R. E. Stratmann, 
 O. Yazyev, A. J. Austin, R. Cammi, C. Pomelli, J. W. Ochterski, 
 R. L. Martin, K. Morokuma, V. G. Zakrzewski, G. A. Voth, 
 P. Salvador, J. J. Dannenberg, S. Dapprich, A. D. Daniels, 
 O. Farkas, J. B. Foresman, J. V. Ortiz, J. Cioslowski, 
 and D. J. Fox, Gaussian, Inc., Wallingford CT, 2013.
 
 ******************************************
 Gaussian 09:  ES64L-G09RevD.01 24-Apr-2013
                14-Mar-2025 
 ******************************************
 ---------------------------------
 #m062X/6-31+G(d) OPT Freq=noraman
 ---------------------------------
 1/14=-1,18=20,19=15,26=3,38=1/1,3;
 2/9=110,12=2,17=6,18=5,40=1/2;
 3/5=1,6=6,7=11,11=2,16=1,25=1,30=1,71=1,74=-55/1,2,3;
 4//1;
 5/5=2,38=5/2;
 6/7=2,8=2,9=2,10=2,28=1/1;
 7//1,2,3,16;
 1/14=-1,18=20,19=15,26=3/3(2);
 2/9=110/2;
 99//99;
 2/9=110/2;
 3/5=1,6=6,7=11,11=2,16=1,25=1,30=1,71=1,74=-55/1,2,3;
 4/5=5,16=3,69=1/1;
 5/5=2,38=5/2;
 7//1,2,3,16;
 1/14=-1,18=20,19=15,26=3/3(-5);
 2/9=110/2;
 6/7=2,8=2,9=2,10=2,19=2,28=1/1;
 99/9=1/99;
 ---------------------------
 1,1,2,2-tetrachloroethylene
 ---------------------------
 Symbolic Z-matrix:
 Charge =  0 Multiplicity = 1
 C                     0.202     0.6401   -0.0293 
 C                    -0.2019   -0.6401    0.0292 
 Cl                    0.9124   -1.9725    0.0232 
 Cl                   -1.8781   -1.0879    0.1163 
 Cl                   -0.9124    1.9725   -0.0233 
 Cl                    1.878     1.088    -0.116 
 

 GradGradGradGradGradGradGradGradGradGradGradGradGradGradGradGradGradGrad
 Berny optimization.
 Initialization pass.
                           ----------------------------
                           !    Initial Parameters    !
                           ! (Angstroms and Degrees)  !
 --------------------------                            --------------------------
 ! Name  Definition              Value          Derivative Info.                !
 --------------------------------------------------------------------------------
 ! R1    R(1,2)                  1.3437         estimate D2E/DX2                !
 ! R2    R(1,5)                  1.737          estimate D2E/DX2                !
 ! R3    R(1,6)                  1.737          estimate D2E/DX2                !
 ! R4    R(2,3)                  1.7369         estimate D2E/DX2                !
 ! R5    R(2,4)                  1.7372         estimate D2E/DX2                !
 ! A1    A(2,1,5)              122.5359         estimate D2E/DX2                !
 ! A2    A(2,1,6)              122.5403         estimate D2E/DX2                !
 ! A3    A(5,1,6)              114.9239         estimate D2E/DX2                !
 ! A4    A(1,2,3)              122.5384         estimate D2E/DX2                !
 ! A5    A(1,2,4)              122.5356         estimate D2E/DX2                !
 ! A6    A(3,2,4)              114.926          estimate D2E/DX2                !
 ! D1    D(5,1,2,3)            179.9998         estimate D2E/DX2                !
 ! D2    D(5,1,2,4)              0.0099         estimate D2E/DX2                !
 ! D3    D(6,1,2,3)             -0.0255         estimate D2E/DX2                !
 ! D4    D(6,1,2,4)            179.9846         estimate D2E/DX2                !
 --------------------------------------------------------------------------------
 Trust Radius=3.00D-01 FncErr=1.00D-07 GrdErr=1.00D-06
 Number of steps in this run=     25 maximum allowed number of steps=    100.
 GradGradGradGradGradGradGradGradGradGradGradGradGradGradGradGradGradGrad

                          Input orientation:                          
 ---------------------------------------------------------------------
 Center     Atomic      Atomic             Coordinates (Angstroms)
 Number     Number       Type             X           Y           Z
 ---------------------------------------------------------------------
      1          6           0        0.202000    0.640100   -0.029300
      2          6           0       -0.201900   -0.640100    0.029200
      3         17           0        0.912400   -1.972500    0.023200
      4         17           0       -1.878100   -1.087900    0.116300
      5         17           0       -0.912400    1.972500   -0.023300
      6         17           0        1.878000    1.088000   -0.116000
 ---------------------------------------------------------------------
                    Distance matrix (angstroms):
                    1          2          3          4          5
     1  C    0.000000
     2  C    1.343678   0.000000
     3  Cl   2.707970   1.736949   0.000000
     4  Cl   2.708136   1.737169   2.928835   0.000000
     5  Cl   1.737013   2.707997   4.346847   3.212182   0.000000
     6  Cl   1.736982   2.708024   3.212230   4.347044   2.928697
                    6
     6  Cl   0.000000
 Stoichiometry    C2Cl4
 Framework group  C1[X(C2Cl4)]
 Deg. of freedom    12
 Full point group                 C1      NOp   1
 Largest Abelian subgroup         C1      NOp   1
 Largest concise Abelian subgroup C1      NOp   1
                         Standard orientation:                         
 ---------------------------------------------------------------------
 Center     Atomic      Atomic             Coordinates (Angstroms)
 Number     Number       Type             X           Y           Z
 ---------------------------------------------------------------------
      1          6           0       -0.671841    0.000069    0.000175
      2          6           0        0.671836   -0.000209   -0.000009
      3         17           0        1.605777   -1.464704    0.000092
      4         17           0        1.606430    1.464131   -0.000107
      5         17           0       -1.605752    1.464659    0.000078
      6         17           0       -1.606453   -1.464037   -0.000121
 ---------------------------------------------------------------------
 Rotational constants (GHZ):      1.6848703      1.3598223      0.7524977
 Standard basis: 6-31+G(d) (6D, 7F)
 There are   130 symmetry adapted cartesian basis functions of A   symmetry.
 There are   130 symmetry adapted basis functions of A   symmetry.
   130 basis functions,   288 primitive gaussians,   130 cartesian basis functions
    40 alpha electrons       40 beta electrons
       nuclear repulsion energy       488.2174694407 Hartrees.
 NAtoms=    6 NActive=    6 NUniq=    6 SFac= 1.00D+00 NAtFMM=   60 NAOKFM=F Big=F
 Integral buffers will be    131072 words long.
 Raffenetti 2 integral format.
 Two-electron integral symmetry is turned on.
 One-electron integrals computed using PRISM.
 NBasis=   130 RedAO= T EigKep=  1.44D-05  NBF=   130
 NBsUse=   130 1.00D-06 EigRej= -1.00D+00 NBFU=   130
 ExpMin= 4.38D-02 ExpMax= 2.52D+04 ExpMxC= 3.78D+03 IAcc=2 IRadAn=         4 AccDes= 0.00D+00
 Harris functional with IExCor= 1009 and IRadAn=       4 diagonalized for initial guess.
 HarFok:  IExCor= 1009 AccDes= 0.00D+00 IRadAn=         4 IDoV= 1 UseB2=F ITyADJ=14
 ICtDFT=  3500011 ScaDFX=  1.000000  1.000000  1.000000  1.000000
 FoFCou: FMM=F IPFlag=           0 FMFlag=      100000 FMFlg1=           0
         NFxFlg=           0 DoJE=T BraDBF=F KetDBF=T FulRan=T
         wScrn=  0.000000 ICntrl=     500 IOpCl=  0 I1Cent=   200000004 NGrid=           0
         NMat0=    1 NMatS0=      1 NMatT0=    0 NMatD0=    1 NMtDS0=    0 NMtDT0=    0
 Petite list used in FoFCou.
 Requested convergence on RMS density matrix=1.00D-08 within 128 cycles.
 Requested convergence on MAX density matrix=1.00D-06.
 Requested convergence on             energy=1.00D-06.
 No special actions if energy rises.
 SCF Done:  E(RM062X) =  -1916.79961985     A.U. after   11 cycles
            NFock= 11  Conv=0.61D-08     -V/T= 2.0030

 **********************************************************************

            Population analysis using the SCF density.

 **********************************************************************

 Orbital symmetries:
       Occupied  (A) (A) (A) (A) (A) (A) (A) (A) (A) (A) (A) (A)
                 (A) (A) (A) (A) (A) (A) (A) (A) (A) (A) (A) (A)
                 (A) (A) (A) (A) (A) (A) (A) (A) (A) (A) (A) (A)
                 (A) (A) (A) (A)
       Virtual   (A) (A) (A) (A) (A) (A) (A) (A) (A) (A) (A) (A)
                 (A) (A) (A) (A) (A) (A) (A) (A) (A) (A) (A) (A)
                 (A) (A) (A) (A) (A) (A) (A) (A) (A) (A) (A) (A)
                 (A) (A) (A) (A) (A) (A) (A) (A) (A) (A) (A) (A)
                 (A) (A) (A) (A) (A) (A) (A) (A) (A) (A) (A) (A)
                 (A) (A) (A) (A) (A) (A) (A) (A) (A) (A) (A) (A)
                 (A) (A) (A) (A) (A) (A) (A) (A) (A) (A) (A) (A)
                 (A) (A) (A) (A) (A) (A)
 The electronic state is 1-A.
 Alpha  occ. eigenvalues -- -102.71132-102.71132-102.71131-102.71130 -10.70530
 Alpha  occ. eigenvalues --  -10.70428  -9.85749  -9.85748  -9.85747  -9.85746
 Alpha  occ. eigenvalues --   -7.58200  -7.58198  -7.58198  -7.58196  -7.57451
 Alpha  occ. eigenvalues --   -7.57451  -7.57450  -7.57449  -7.57431  -7.57431
 Alpha  occ. eigenvalues --   -7.57430  -7.57429  -1.07133  -1.01295  -0.96992
 Alpha  occ. eigenvalues --   -0.94682  -0.83413  -0.64878  -0.58566  -0.58346
 Alpha  occ. eigenvalues --   -0.53051  -0.50340  -0.45714  -0.43581  -0.42782
 Alpha  occ. eigenvalues --   -0.42295  -0.41722  -0.41061  -0.38263  -0.32052
 Alpha virt. eigenvalues --   -0.01057   0.00012   0.00462   0.00725   0.03270
 Alpha virt. eigenvalues --    0.04830   0.04857   0.05070   0.06405   0.08029
 Alpha virt. eigenvalues --    0.09516   0.09527   0.10070   0.11946   0.12215
 Alpha virt. eigenvalues --    0.12975   0.13292   0.13351   0.14361   0.15923
 Alpha virt. eigenvalues --    0.15999   0.16548   0.17987   0.19569   0.21385
 Alpha virt. eigenvalues --    0.22094   0.23475   0.23631   0.27570   0.32561
 Alpha virt. eigenvalues --    0.50877   0.52415   0.55436   0.56390   0.59509
 Alpha virt. eigenvalues --    0.59881   0.61703   0.62365   0.63107   0.64322
 Alpha virt. eigenvalues --    0.64968   0.66908   0.68364   0.68382   0.69328
 Alpha virt. eigenvalues --    0.69984   0.70055   0.77894   0.80932   0.82341
 Alpha virt. eigenvalues --    0.82984   0.85586   0.87208   0.88902   0.90064
 Alpha virt. eigenvalues --    0.90291   0.90599   0.90609   0.91241   0.92832
 Alpha virt. eigenvalues --    0.94766   0.95075   0.95137   0.95791   1.08119
 Alpha virt. eigenvalues --    1.08183   1.13316   1.13700   1.14155   1.20941
 Alpha virt. eigenvalues --    1.23661   1.27181   1.45066   1.48399   1.49102
 Alpha virt. eigenvalues --    1.63843   1.90597   1.96582   1.96817   2.04924
 Alpha virt. eigenvalues --    2.28332   2.29180   2.53812   2.66988   4.03167
 Alpha virt. eigenvalues --    4.19969   4.38801   4.39469   4.45663   4.47598
          Condensed to atoms (all electrons):
               1          2          3          4          5          6
     1  C    6.458886  -0.329114  -0.120929  -0.120807   0.218518   0.218540
     2  C   -0.329114   6.458771   0.218511   0.218589  -0.120862  -0.120893
     3  Cl  -0.120929   0.218511  16.743428  -0.043958   0.002268   0.038058
     4  Cl  -0.120807   0.218589  -0.043958  16.743477   0.038048   0.002270
     5  Cl   0.218518  -0.120862   0.002268   0.038048  16.743470  -0.043979
     6  Cl   0.218540  -0.120893   0.038058   0.002270  -0.043979  16.743449
 Mulliken charges:
               1
     1  C   -0.325094
     2  C   -0.325002
     3  Cl   0.162623
     4  Cl   0.162382
     5  Cl   0.162537
     6  Cl   0.162554
 Sum of Mulliken charges =   0.00000
 Mulliken charges with hydrogens summed into heavy atoms:
               1
     1  C   -0.325094
     2  C   -0.325002
     3  Cl   0.162623
     4  Cl   0.162382
     5  Cl   0.162537
     6  Cl   0.162554
 Electronic spatial extent (au):  <R**2>=           1302.0673
 Charge=              0.0000 electrons
 Dipole moment (field-independent basis, Debye):
    X=             -0.0002    Y=             -0.0007    Z=              0.0000  Tot=              0.0008
 Quadrupole moment (field-independent basis, Debye-Ang):
   XX=            -61.0502   YY=            -59.2119   ZZ=            -62.1092
   XY=             -0.0001   XZ=              0.0003   YZ=              0.0000
 Traceless Quadrupole moment (field-independent basis, Debye-Ang):
   XX=             -0.2598   YY=              1.5785   ZZ=             -1.3188
   XY=             -0.0001   XZ=              0.0003   YZ=              0.0000
 Octapole moment (field-independent basis, Debye-Ang**2):
  XXX=             -0.0017  YYY=             -0.0013  ZZZ=             -0.0007  XYY=             -0.0002
  XXY=             -0.0027  XXZ=             -0.0010  XZZ=             -0.0004  YZZ=             -0.0007
  YYZ=             -0.0013  XYZ=             -0.0011
 Hexadecapole moment (field-independent basis, Debye-Ang**3):
 XXXX=           -865.4715 YYYY=           -666.7788 ZZZZ=            -70.2498 XXXY=              0.0205
 XXXZ=              0.0033 YYYX=             -0.0119 YYYZ=              0.0000 ZZZX=              0.0011
 ZZZY=              0.0000 XXYY=           -229.7502 XXZZ=           -160.6331 YYZZ=           -133.4438
 XXYZ=              0.0000 YYXZ=              0.0034 ZZXY=             -0.0005
 N-N= 4.882174694407D+02 E-N=-5.526576257824D+03  KE= 1.911139931315D+03
 Calling FoFJK, ICntrl=      2127 FMM=F ISym2X=0 I1Cent= 0 IOpClX= 0 NMat=1 NMatS=1 NMatT=0.
 ***** Axes restored to original set *****
 -------------------------------------------------------------------
 Center     Atomic                   Forces (Hartrees/Bohr)
 Number     Number              X              Y              Z
 -------------------------------------------------------------------
      1        6           0.001392711    0.004466544   -0.000172535
      2        6          -0.001474773   -0.004466039    0.000189535
      3       17          -0.006069803    0.008524399   -0.000003775
      4       17           0.009942397    0.003505180   -0.000544327
      5       17           0.006075802   -0.008537431    0.000002869
      6       17          -0.009866334   -0.003492653    0.000528233
 -------------------------------------------------------------------
 Cartesian Forces:  Max     0.009942397 RMS     0.005188892

 GradGradGradGradGradGradGradGradGradGradGradGradGradGradGradGradGradGrad
 Berny optimization.
 FormGI is forming the generalized inverse of G from B-inverse, IUseBI=4.
 Internal  Forces:  Max     0.010524660 RMS     0.005834477
 Search for a local minimum.
 Step number   1 out of a maximum of   25
 All quantities printed in internal units (Hartrees-Bohrs-Radians)
 Mixed Optimization -- RFO/linear search
 Second derivative matrix not updated -- first step.
 The second derivative matrix:
                          R1        R2        R3        R4        R5
           R1           0.56389
           R2           0.00000   0.31780
           R3           0.00000   0.00000   0.31783
           R4           0.00000   0.00000   0.00000   0.31787
           R5           0.00000   0.00000   0.00000   0.00000   0.31764
           A1           0.00000   0.00000   0.00000   0.00000   0.00000
           A2           0.00000   0.00000   0.00000   0.00000   0.00000
           A3           0.00000   0.00000   0.00000   0.00000   0.00000
           A4           0.00000   0.00000   0.00000   0.00000   0.00000
           A5           0.00000   0.00000   0.00000   0.00000   0.00000
           A6           0.00000   0.00000   0.00000   0.00000   0.00000
           D1           0.00000   0.00000   0.00000   0.00000   0.00000
           D2           0.00000   0.00000   0.00000   0.00000   0.00000
           D3           0.00000   0.00000   0.00000   0.00000   0.00000
           D4           0.00000   0.00000   0.00000   0.00000   0.00000
                          A1        A2        A3        A4        A5
           A1           0.25000
           A2           0.00000   0.25000
           A3           0.00000   0.00000   0.25000
           A4           0.00000   0.00000   0.00000   0.25000
           A5           0.00000   0.00000   0.00000   0.00000   0.25000
           A6           0.00000   0.00000   0.00000   0.00000   0.00000
           D1           0.00000   0.00000   0.00000   0.00000   0.00000
           D2           0.00000   0.00000   0.00000   0.00000   0.00000
           D3           0.00000   0.00000   0.00000   0.00000   0.00000
           D4           0.00000   0.00000   0.00000   0.00000   0.00000
                          A6        D1        D2        D3        D4
           A6           0.25000
           D1           0.00000   0.02834
           D2           0.00000   0.00000   0.02834
           D3           0.00000   0.00000   0.00000   0.02834
           D4           0.00000   0.00000   0.00000   0.00000   0.02834
 ITU=  0
     Eigenvalues ---    0.02834   0.02834   0.02834   0.25000   0.25000
     Eigenvalues ---    0.25000   0.25000   0.31764   0.31780   0.31783
     Eigenvalues ---    0.31787   0.56389
 RFO step:  Lambda=-1.52130646D-03 EMin= 2.83379307D-02
 Linear search not attempted -- first point.
 Iteration  1 RMS(Cart)=  0.02110882 RMS(Int)=  0.00003395
 Iteration  2 RMS(Cart)=  0.00006129 RMS(Int)=  0.00000003
 Iteration  3 RMS(Cart)=  0.00000000 RMS(Int)=  0.00000003
 Variable       Old X    -DE/DX   Delta X   Delta X   Delta X     New X
                                 (Linear)    (Quad)   (Total)
    R1        2.53918  -0.00794   0.00000  -0.01405  -0.01405   2.52514
    R2        3.28248  -0.01045   0.00000  -0.03271  -0.03271   3.24976
    R3        3.28242  -0.01045   0.00000  -0.03271  -0.03271   3.24971
    R4        3.28236  -0.01043   0.00000  -0.03266  -0.03266   3.24969
    R5        3.28277  -0.01052   0.00000  -0.03298  -0.03298   3.24980
    A1        2.13865  -0.00089   0.00000  -0.00353  -0.00353   2.13512
    A2        2.13873  -0.00091   0.00000  -0.00362  -0.00362   2.13511
    A3        2.00580   0.00180   0.00000   0.00715   0.00715   2.01295
    A4        2.13870  -0.00089   0.00000  -0.00353  -0.00353   2.13517
    A5        2.13865  -0.00090   0.00000  -0.00358  -0.00358   2.13507
    A6        2.00584   0.00179   0.00000   0.00711   0.00711   2.01294
    D1        3.14159   0.00000   0.00000  -0.00015  -0.00015   3.14144
    D2        0.00017  -0.00001   0.00000  -0.00031  -0.00031  -0.00014
    D3       -0.00045   0.00002   0.00000   0.00052   0.00052   0.00007
    D4        3.14132   0.00001   0.00000   0.00036   0.00036  -3.14150
         Item               Value     Threshold  Converged?
 Maximum Force            0.010525     0.000450     NO 
 RMS     Force            0.005834     0.000300     NO 
 Maximum Displacement     0.039181     0.001800     NO 
 RMS     Displacement     0.021092     0.001200     NO 
 Predicted change in Energy=-7.641865D-04
 GradGradGradGradGradGradGradGradGradGradGradGradGradGradGradGradGradGrad

                          Input orientation:                          
 ---------------------------------------------------------------------
 Center     Atomic      Atomic             Coordinates (Angstroms)
 Number     Number       Type             X           Y           Z
 ---------------------------------------------------------------------
      1          6           0        0.200853    0.636580   -0.028898
      2          6           0       -0.200795   -0.636553    0.029046
      3         17           0        0.907082   -1.951776    0.022810
      4         17           0       -1.861738   -1.073942    0.115031
      5         17           0       -0.907127    1.951766   -0.022877
      6         17           0        1.861725    1.074026   -0.115012
 ---------------------------------------------------------------------
                    Distance matrix (angstroms):
                    1          2          3          4          5
     1  C    0.000000
     2  C    1.336244   0.000000
     3  Cl   2.683472   1.719663   0.000000
     4  Cl   2.683447   1.719719   2.906108   0.000000
     5  Cl   1.719701   2.683468   4.304775   3.175723   0.000000
     6  Cl   1.719671   2.683435   3.175817   4.304749   2.906107
                    6
     6  Cl   0.000000
 Stoichiometry    C2Cl4
 Framework group  C1[X(C2Cl4)]
 Deg. of freedom    12
 Full point group                 C1      NOp   1
 Largest Abelian subgroup         C1      NOp   1
 Largest concise Abelian subgroup C1      NOp   1
                         Standard orientation:                         
 ---------------------------------------------------------------------
 Center     Atomic      Atomic             Coordinates (Angstroms)
 Number     Number       Type             X           Y           Z
 ---------------------------------------------------------------------
      1          6           0       -0.668126   -0.000041   -0.000105
      2          6           0        0.668118   -0.000028   -0.000043
      3         17           0        1.587961   -1.453001    0.000034
      4         17           0        1.587810    1.453107   -0.000012
      5         17           0       -1.587912    1.453013    0.000038
      6         17           0       -1.587856   -1.453094   -0.000007
 ---------------------------------------------------------------------
 Rotational constants (GHZ):      1.7112459      1.3907263      0.7672134
 Standard basis: 6-31+G(d) (6D, 7F)
 There are   130 symmetry adapted cartesian basis functions of A   symmetry.
 There are   130 symmetry adapted basis functions of A   symmetry.
   130 basis functions,   288 primitive gaussians,   130 cartesian basis functions
    40 alpha electrons       40 beta electrons
       nuclear repulsion energy       492.8760169019 Hartrees.
 NAtoms=    6 NActive=    6 NUniq=    6 SFac= 1.00D+00 NAtFMM=   60 NAOKFM=F Big=F
 Integral buffers will be    131072 words long.
 Raffenetti 2 integral format.
 Two-electron integral symmetry is turned on.
 One-electron integrals computed using PRISM.
 NBasis=   130 RedAO= T EigKep=  1.36D-05  NBF=   130
 NBsUse=   130 1.00D-06 EigRej= -1.00D+00 NBFU=   130
 Initial guess from the checkpoint file:  "/srv/scratch/z5358697/gauss/Gau-1831155.chk"
 B after Tr=     0.000000    0.000000    0.000000
         Rot=    1.000000    0.000000    0.000000   -0.000119 Ang=  -0.01 deg.
 ExpMin= 4.38D-02 ExpMax= 2.52D+04 ExpMxC= 3.78D+03 IAcc=2 IRadAn=         4 AccDes= 0.00D+00
 Harris functional with IExCor= 1009 and IRadAn=       4 diagonalized for initial guess.
 HarFok:  IExCor= 1009 AccDes= 0.00D+00 IRadAn=         4 IDoV= 1 UseB2=F ITyADJ=14
 ICtDFT=  3500011 ScaDFX=  1.000000  1.000000  1.000000  1.000000
 FoFCou: FMM=F IPFlag=           0 FMFlag=      100000 FMFlg1=           0
         NFxFlg=           0 DoJE=T BraDBF=F KetDBF=T FulRan=T
         wScrn=  0.000000 ICntrl=     500 IOpCl=  0 I1Cent=   200000004 NGrid=           0
         NMat0=    1 NMatS0=      1 NMatT0=    0 NMatD0=    1 NMtDS0=    0 NMtDT0=    0
 Petite list used in FoFCou.
 Requested convergence on RMS density matrix=1.00D-08 within 128 cycles.
 Requested convergence on MAX density matrix=1.00D-06.
 Requested convergence on             energy=1.00D-06.
 No special actions if energy rises.
 SCF Done:  E(RM062X) =  -1916.80040472     A.U. after   11 cycles
            NFock= 11  Conv=0.33D-08     -V/T= 2.0029
 Calling FoFJK, ICntrl=      2127 FMM=F ISym2X=0 I1Cent= 0 IOpClX= 0 NMat=1 NMatS=1 NMatT=0.
 ***** Axes restored to original set *****
 -------------------------------------------------------------------
 Center     Atomic                   Forces (Hartrees/Bohr)
 Number     Number              X              Y              Z
 -------------------------------------------------------------------
      1        6           0.001679462    0.005344493   -0.000256069
      2        6          -0.001709744   -0.005339792    0.000246640
      3       17          -0.000629113    0.000502860    0.000012838
      4       17           0.000820389    0.000046139   -0.000036582
      5       17           0.000640966   -0.000509327   -0.000006774
      6       17          -0.000801961   -0.000044373    0.000039947
 -------------------------------------------------------------------
 Cartesian Forces:  Max     0.005344493 RMS     0.001908890

 GradGradGradGradGradGradGradGradGradGradGradGradGradGradGradGradGradGrad
 Berny optimization.
 Using GEDIIS/GDIIS optimizer.
 FormGI is forming the generalized inverse of G from B-inverse, IUseBI=4.
 Internal  Forces:  Max     0.005030612 RMS     0.001371422
 Search for a local minimum.
 Step number   2 out of a maximum of   25
 All quantities printed in internal units (Hartrees-Bohrs-Radians)
 Mixed Optimization -- RFO/linear search
 Update second derivatives using D2CorX and points    1    2
 DE= -7.85D-04 DEPred=-7.64D-04 R= 1.03D+00
 TightC=F SS=  1.41D+00  RLast= 6.82D-02 DXNew= 5.0454D-01 2.0447D-01
 Trust test= 1.03D+00 RLast= 6.82D-02 DXMaxT set to 3.00D-01
 The second derivative matrix:
                          R1        R2        R3        R4        R5
           R1           0.63502
           R2           0.02930   0.30863
           R3           0.02943  -0.00908   0.30885
           R4           0.02936  -0.00909  -0.00899   0.30887
           R5           0.02954  -0.00923  -0.00913  -0.00914   0.30836
           A1           0.00463   0.00081   0.00082   0.00081   0.00082
           A2           0.00467   0.00078   0.00079   0.00079   0.00079
           A3          -0.00930  -0.00159  -0.00161  -0.00160  -0.00160
           A4           0.00450   0.00072   0.00073   0.00073   0.00073
           A5           0.00474   0.00086   0.00087   0.00086   0.00086
           A6          -0.00924  -0.00158  -0.00160  -0.00159  -0.00160
           D1           0.00008   0.00005   0.00005   0.00005   0.00005
           D2           0.00008   0.00003   0.00003   0.00003   0.00003
           D3          -0.00009  -0.00002  -0.00002  -0.00002  -0.00002
           D4          -0.00010  -0.00004  -0.00004  -0.00004  -0.00004
                          A1        A2        A3        A4        A5
           A1           0.25024
           A2           0.00024   0.25025
           A3          -0.00049  -0.00049   0.25098
           A4           0.00023   0.00023  -0.00047   0.25023
           A5           0.00025   0.00025  -0.00050   0.00024   0.25026
           A6          -0.00049  -0.00049   0.00097  -0.00047  -0.00050
           D1           0.00001   0.00001  -0.00001   0.00001   0.00001
           D2           0.00001   0.00001  -0.00001   0.00001   0.00001
           D3          -0.00001  -0.00001   0.00001   0.00000  -0.00001
           D4          -0.00001  -0.00001   0.00001  -0.00001  -0.00001
                          A6        D1        D2        D3        D4
           A6           0.25097
           D1          -0.00001   0.02834
           D2          -0.00001   0.00000   0.02834
           D3           0.00001   0.00000   0.00000   0.02834
           D4           0.00001   0.00000   0.00000   0.00000   0.02834
 ITU=  1  0
 Use linear search instead of GDIIS.
     Eigenvalues ---    0.02834   0.02834   0.02834   0.25000   0.25000
     Eigenvalues ---    0.25000   0.25179   0.27224   0.31769   0.31782
     Eigenvalues ---    0.31785   0.64526
 RFO step:  Lambda=-5.56568092D-05 EMin= 2.83379012D-02
 Quartic linear search produced a step of  0.01679.
 Iteration  1 RMS(Cart)=  0.00333389 RMS(Int)=  0.00000069
 Iteration  2 RMS(Cart)=  0.00000118 RMS(Int)=  0.00000001
 Iteration  3 RMS(Cart)=  0.00000000 RMS(Int)=  0.00000001
 Variable       Old X    -DE/DX   Delta X   Delta X   Delta X     New X
                                 (Linear)    (Quad)   (Total)
    R1        2.52514   0.00503  -0.00024   0.00880   0.00856   2.53370
    R2        3.24976  -0.00080  -0.00055  -0.00318  -0.00373   3.24603
    R3        3.24971  -0.00079  -0.00055  -0.00314  -0.00369   3.24602
    R4        3.24969  -0.00079  -0.00055  -0.00314  -0.00369   3.24600
    R5        3.24980  -0.00081  -0.00055  -0.00320  -0.00376   3.24604
    A1        2.13512   0.00018  -0.00006   0.00065   0.00059   2.13571
    A2        2.13511   0.00017  -0.00006   0.00064   0.00058   2.13569
    A3        2.01295  -0.00035   0.00012  -0.00129  -0.00117   2.01178
    A4        2.13517   0.00016  -0.00006   0.00060   0.00054   2.13571
    A5        2.13507   0.00018  -0.00006   0.00069   0.00063   2.13569
    A6        2.01294  -0.00035   0.00012  -0.00129  -0.00117   2.01178
    D1        3.14144   0.00001   0.00000   0.00028   0.00028  -3.14147
    D2       -0.00014   0.00001  -0.00001   0.00018   0.00018   0.00004
    D3        0.00007   0.00000   0.00001  -0.00013  -0.00012  -0.00005
    D4       -3.14150  -0.00001   0.00001  -0.00023  -0.00022   3.14146
         Item               Value     Threshold  Converged?
 Maximum Force            0.005031     0.000450     NO 
 RMS     Force            0.001371     0.000300     NO 
 Maximum Displacement     0.005175     0.001800     NO 
 RMS     Displacement     0.003333     0.001200     NO 
 Predicted change in Energy=-2.812349D-05
 GradGradGradGradGradGradGradGradGradGradGradGradGradGradGradGradGradGrad

                          Input orientation:                          
 ---------------------------------------------------------------------
 Center     Atomic      Atomic             Coordinates (Angstroms)
 Number     Number       Type             X           Y           Z
 ---------------------------------------------------------------------
      1          6           0        0.201512    0.638736   -0.029158
      2          6           0       -0.201511   -0.638707    0.029066
      3         17           0        0.904388   -1.953043    0.023040
      4         17           0       -1.860261   -1.076604    0.115083
      5         17           0       -0.904389    1.953089   -0.022948
      6         17           0        1.860261    1.076629   -0.114982
 ---------------------------------------------------------------------
                    Distance matrix (angstroms):
                    1          2          3          4          5
     1  C    0.000000
     2  C    1.340776   0.000000
     3  Cl   2.685903   1.717710   0.000000
     4  Cl   2.685909   1.717732   2.901707   0.000000
     5  Cl   1.717725   2.685917   4.304841   3.179903   0.000000
     6  Cl   1.717720   2.685895   3.179883   4.304837   2.901713
                    6
     6  Cl   0.000000
 Stoichiometry    C2Cl4
 Framework group  C1[X(C2Cl4)]
 Deg. of freedom    12
 Full point group                 C1      NOp   1
 Largest Abelian subgroup         C1      NOp   1
 Largest concise Abelian subgroup C1      NOp   1
                         Standard orientation:                         
 ---------------------------------------------------------------------
 Center     Atomic      Atomic             Coordinates (Angstroms)
 Number     Number       Type             X           Y           Z
 ---------------------------------------------------------------------
      1          6           0       -0.670389   -0.000002    0.000093
      2          6           0        0.670387   -0.000007    0.000067
      3         17           0        1.589950   -1.450845   -0.000011
      4         17           0        1.589944    1.450862   -0.000015
      5         17           0       -1.589960    1.450850   -0.000013
      6         17           0       -1.589933   -1.450863   -0.000017
 ---------------------------------------------------------------------
 Rotational constants (GHZ):      1.7164368      1.3869511      0.7671016
 Standard basis: 6-31+G(d) (6D, 7F)
 There are   130 symmetry adapted cartesian basis functions of A   symmetry.
 There are   130 symmetry adapted basis functions of A   symmetry.
   130 basis functions,   288 primitive gaussians,   130 cartesian basis functions
    40 alpha electrons       40 beta electrons
       nuclear repulsion energy       492.9315417564 Hartrees.
 NAtoms=    6 NActive=    6 NUniq=    6 SFac= 1.00D+00 NAtFMM=   60 NAOKFM=F Big=F
 Integral buffers will be    131072 words long.
 Raffenetti 2 integral format.
 Two-electron integral symmetry is turned on.
 One-electron integrals computed using PRISM.
 NBasis=   130 RedAO= T EigKep=  1.38D-05  NBF=   130
 NBsUse=   130 1.00D-06 EigRej= -1.00D+00 NBFU=   130
 Initial guess from the checkpoint file:  "/srv/scratch/z5358697/gauss/Gau-1831155.chk"
 B after Tr=     0.000000    0.000000    0.000000
         Rot=    1.000000    0.000000    0.000000    0.000013 Ang=   0.00 deg.
 Requested convergence on RMS density matrix=1.00D-08 within 128 cycles.
 Requested convergence on MAX density matrix=1.00D-06.
 Requested convergence on             energy=1.00D-06.
 No special actions if energy rises.
 SCF Done:  E(RM062X) =  -1916.80042994     A.U. after    9 cycles
            NFock=  9  Conv=0.50D-08     -V/T= 2.0029
 Calling FoFJK, ICntrl=      2127 FMM=F ISym2X=0 I1Cent= 0 IOpClX= 0 NMat=1 NMatS=1 NMatT=0.
 ***** Axes restored to original set *****
 -------------------------------------------------------------------
 Center     Atomic                   Forces (Hartrees/Bohr)
 Number     Number              X              Y              Z
 -------------------------------------------------------------------
      1        6           0.000004008    0.000012839    0.000008296
      2        6          -0.000012790   -0.000009288    0.000003236
      3       17           0.000260932    0.000036615   -0.000014588
      4       17          -0.000184457    0.000182495    0.000000000
      5       17          -0.000256774   -0.000042673    0.000009058
      6       17           0.000189082   -0.000179988   -0.000006003
 -------------------------------------------------------------------
 Cartesian Forces:  Max     0.000260932 RMS     0.000123265

 GradGradGradGradGradGradGradGradGradGradGradGradGradGradGradGradGradGrad
 Berny optimization.
 Using GEDIIS/GDIIS optimizer.
 FormGI is forming the generalized inverse of G from B-inverse, IUseBI=4.
 Internal  Forces:  Max     0.000483966 RMS     0.000234215
 Search for a local minimum.
 Step number   3 out of a maximum of   25
 All quantities printed in internal units (Hartrees-Bohrs-Radians)
 Mixed Optimization -- En-DIIS/RFO-DIIS
 Update second derivatives using D2CorX and points    1    2    3
 DE= -2.52D-05 DEPred=-2.81D-05 R= 8.97D-01
 TightC=F SS=  1.41D+00  RLast= 1.15D-02 DXNew= 5.0454D-01 3.4582D-02
 Trust test= 8.97D-01 RLast= 1.15D-02 DXMaxT set to 3.00D-01
 The second derivative matrix:
                          R1        R2        R3        R4        R5
           R1           0.63403
           R2           0.02272   0.31185
           R3           0.02247  -0.00578   0.31223
           R4           0.02218  -0.00572  -0.00554   0.31238
           R5           0.02306  -0.00603  -0.00585  -0.00579   0.31154
           A1           0.02246  -0.00436  -0.00433  -0.00435  -0.00437
           A2           0.02208  -0.00427  -0.00423  -0.00426  -0.00427
           A3          -0.04454   0.00863   0.00856   0.00861   0.00864
           A4           0.02221  -0.00439  -0.00435  -0.00438  -0.00440
           A5           0.02236  -0.00426  -0.00423  -0.00426  -0.00427
           A6          -0.04457   0.00865   0.00858   0.00864   0.00867
           D1           0.00063  -0.00011  -0.00011  -0.00011  -0.00011
           D2           0.00019  -0.00001  -0.00001  -0.00001  -0.00001
           D3          -0.00021   0.00002   0.00002   0.00002   0.00002
           D4          -0.00065   0.00012   0.00012   0.00012   0.00012
                          A1        A2        A3        A4        A5
           A1           0.25226
           A2           0.00221   0.25216
           A3          -0.00447  -0.00437   0.25883
           A4           0.00219   0.00214  -0.00433   0.25212
           A5           0.00228   0.00223  -0.00450   0.00221   0.25230
           A6          -0.00447  -0.00437   0.00883  -0.00433  -0.00450
           D1           0.00008   0.00008  -0.00016   0.00008   0.00008
           D2           0.00003   0.00003  -0.00007   0.00003   0.00003
           D3          -0.00003  -0.00003   0.00006  -0.00003  -0.00003
           D4          -0.00008  -0.00007   0.00015  -0.00007  -0.00008
                          A6        D1        D2        D3        D4
           A6           0.25883
           D1          -0.00016   0.02834
           D2          -0.00007   0.00000   0.02834
           D3           0.00006   0.00000   0.00000   0.02834
           D4           0.00015   0.00000   0.00000   0.00000   0.02834
 ITU=  1  1  0
 Use linear search instead of GDIIS.
     Eigenvalues ---    0.02834   0.02834   0.02834   0.23450   0.25000
     Eigenvalues ---    0.25000   0.25000   0.31645   0.31773   0.31784
     Eigenvalues ---    0.31793   0.65409
 RFO step:  Lambda=-2.14492958D-06 EMin= 2.83378293D-02
 Quartic linear search produced a step of -0.09107.
 Iteration  1 RMS(Cart)=  0.00144800 RMS(Int)=  0.00000062
 Iteration  2 RMS(Cart)=  0.00000065 RMS(Int)=  0.00000000
 Variable       Old X    -DE/DX   Delta X   Delta X   Delta X     New X
                                 (Linear)    (Quad)   (Total)
    R1        2.53370  -0.00022  -0.00078   0.00075  -0.00003   2.53366
    R2        3.24603   0.00013   0.00034  -0.00003   0.00031   3.24634
    R3        3.24602   0.00014   0.00034  -0.00001   0.00032   3.24634
    R4        3.24600   0.00014   0.00034  -0.00001   0.00033   3.24633
    R5        3.24604   0.00013   0.00034  -0.00004   0.00030   3.24635
    A1        2.13571  -0.00024  -0.00005  -0.00081  -0.00086   2.13485
    A2        2.13569  -0.00024  -0.00005  -0.00079  -0.00084   2.13485
    A3        2.01178   0.00048   0.00011   0.00160   0.00170   2.01349
    A4        2.13571  -0.00024  -0.00005  -0.00081  -0.00085   2.13486
    A5        2.13569  -0.00024  -0.00006  -0.00079  -0.00085   2.13484
    A6        2.01178   0.00048   0.00011   0.00160   0.00171   2.01349
    D1       -3.14147  -0.00001  -0.00003  -0.00021  -0.00024   3.14148
    D2        0.00004   0.00000  -0.00002  -0.00004  -0.00005  -0.00001
    D3       -0.00005   0.00000   0.00001   0.00005   0.00006   0.00001
    D4        3.14146   0.00001   0.00002   0.00022   0.00024  -3.14148
         Item               Value     Threshold  Converged?
 Maximum Force            0.000484     0.000450     NO 
 RMS     Force            0.000234     0.000300     YES
 Maximum Displacement     0.002623     0.001800     NO 
 RMS     Displacement     0.001448     0.001200     NO 
 Predicted change in Energy=-1.325802D-06
 GradGradGradGradGradGradGradGradGradGradGradGradGradGradGradGradGradGrad

                          Input orientation:                          
 ---------------------------------------------------------------------
 Center     Atomic      Atomic             Coordinates (Angstroms)
 Number     Number       Type             X           Y           Z
 ---------------------------------------------------------------------
      1          6           0        0.201518    0.638730   -0.029026
      2          6           0       -0.201507   -0.638695    0.029166
      3         17           0        0.905613   -1.952229    0.022908
      4         17           0       -1.860795   -1.075216    0.115005
      5         17           0       -0.905621    1.952254   -0.022928
      6         17           0        1.860793    1.075256   -0.115025
 ---------------------------------------------------------------------
                    Distance matrix (angstroms):
                    1          2          3          4          5
     1  C    0.000000
     2  C    1.340757   0.000000
     3  Cl   2.685426   1.717884   0.000000
     4  Cl   2.685422   1.717893   2.903558   0.000000
     5  Cl   1.717888   2.685425   4.304376   3.177571   0.000000
     6  Cl   1.717890   2.685424   3.177587   4.304378   2.903558
                    6
     6  Cl   0.000000
 Stoichiometry    C2Cl4
 Framework group  C1[X(C2Cl4)]
 Deg. of freedom    12
 Full point group                 C1      NOp   1
 Largest Abelian subgroup         C1      NOp   1
 Largest concise Abelian subgroup C1      NOp   1
                         Standard orientation:                         
 ---------------------------------------------------------------------
 Center     Atomic      Atomic             Coordinates (Angstroms)
 Number     Number       Type             X           Y           Z
 ---------------------------------------------------------------------
      1          6           0       -0.670379    0.000000   -0.000072
      2          6           0        0.670379   -0.000007   -0.000065
      3         17           0        1.588792   -1.451780    0.000012
      4         17           0        1.588787    1.451778    0.000012
      5         17           0       -1.588784    1.451781    0.000012
      6         17           0       -1.588795   -1.451777    0.000012
 ---------------------------------------------------------------------
 Rotational constants (GHZ):      1.7142524      1.3889126      0.7672640
 Standard basis: 6-31+G(d) (6D, 7F)
 There are   130 symmetry adapted cartesian basis functions of A   symmetry.
 There are   130 symmetry adapted basis functions of A   symmetry.
   130 basis functions,   288 primitive gaussians,   130 cartesian basis functions
    40 alpha electrons       40 beta electrons
       nuclear repulsion energy       492.9445148667 Hartrees.
 NAtoms=    6 NActive=    6 NUniq=    6 SFac= 1.00D+00 NAtFMM=   60 NAOKFM=F Big=F
 Integral buffers will be    131072 words long.
 Raffenetti 2 integral format.
 Two-electron integral symmetry is turned on.
 One-electron integrals computed using PRISM.
 NBasis=   130 RedAO= T EigKep=  1.39D-05  NBF=   130
 NBsUse=   130 1.00D-06 EigRej= -1.00D+00 NBFU=   130
 Initial guess from the checkpoint file:  "/srv/scratch/z5358697/gauss/Gau-1831155.chk"
 B after Tr=     0.000000    0.000000    0.000000
         Rot=    1.000000    0.000000    0.000000    0.000003 Ang=   0.00 deg.
 Requested convergence on RMS density matrix=1.00D-08 within 128 cycles.
 Requested convergence on MAX density matrix=1.00D-06.
 Requested convergence on             energy=1.00D-06.
 No special actions if energy rises.
 SCF Done:  E(RM062X) =  -1916.80043119     A.U. after    8 cycles
            NFock=  8  Conv=0.40D-08     -V/T= 2.0029
 Calling FoFJK, ICntrl=      2127 FMM=F ISym2X=0 I1Cent= 0 IOpClX= 0 NMat=1 NMatS=1 NMatT=0.
 ***** Axes restored to original set *****
 -------------------------------------------------------------------
 Center     Atomic                   Forces (Hartrees/Bohr)
 Number     Number              X              Y              Z
 -------------------------------------------------------------------
      1        6          -0.000006270   -0.000023861   -0.000004626
      2        6           0.000003704    0.000024322   -0.000004854
      3       17          -0.000000624   -0.000021396    0.000002924
      4       17          -0.000008800   -0.000018154    0.000003174
      5       17           0.000002027    0.000021186    0.000001812
      6       17           0.000009964    0.000017903    0.000001571
 -------------------------------------------------------------------
 Cartesian Forces:  Max     0.000024322 RMS     0.000012956

 GradGradGradGradGradGradGradGradGradGradGradGradGradGradGradGradGradGrad
 Berny optimization.
 Using GEDIIS/GDIIS optimizer.
 FormGI is forming the generalized inverse of G from B-inverse, IUseBI=4.
 Internal  Forces:  Max     0.000032267 RMS     0.000016984
 Search for a local minimum.
 Step number   4 out of a maximum of   25
 All quantities printed in internal units (Hartrees-Bohrs-Radians)
 Mixed Optimization -- En-DIIS/RFO-DIIS
 Swapping is turned off.
 Update second derivatives using D2CorX and points    1    2    3    4
 DE= -1.25D-06 DEPred=-1.33D-06 R= 9.44D-01
 TightC=F SS=  1.41D+00  RLast= 3.04D-03 DXNew= 5.0454D-01 9.1168D-03
 Trust test= 9.44D-01 RLast= 3.04D-03 DXMaxT set to 3.00D-01
 The second derivative matrix:
                          R1        R2        R3        R4        R5
           R1           0.62770
           R2           0.02105   0.31165
           R3           0.02075  -0.00600   0.31198
           R4           0.02046  -0.00601  -0.00587   0.31198
           R5           0.02138  -0.00617  -0.00602  -0.00603   0.31145
           A1           0.02368  -0.00282  -0.00287  -0.00273  -0.00299
           A2           0.02325  -0.00275  -0.00279  -0.00265  -0.00291
           A3          -0.04693   0.00557   0.00567   0.00538   0.00589
           A4           0.02342  -0.00281  -0.00286  -0.00271  -0.00297
           A5           0.02355  -0.00278  -0.00283  -0.00268  -0.00294
           A6          -0.04697   0.00559   0.00568   0.00539   0.00591
           D1           0.00070  -0.00021  -0.00022  -0.00022  -0.00021
           D2           0.00020  -0.00001  -0.00001  -0.00001  -0.00001
           D3          -0.00022   0.00001   0.00002   0.00001   0.00002
           D4          -0.00072   0.00021   0.00023   0.00023   0.00022
                          A1        A2        A3        A4        A5
           A1           0.25408
           A2           0.00392   0.25377
           A3          -0.00800  -0.00769   0.26569
           A4           0.00380   0.00365  -0.00745   0.25353
           A5           0.00419   0.00404  -0.00823   0.00392   0.25431
           A6          -0.00800  -0.00769   0.01568  -0.00745  -0.00823
           D1           0.00071   0.00069  -0.00140   0.00069   0.00071
           D2           0.00008   0.00008  -0.00015   0.00008   0.00008
           D3          -0.00007  -0.00007   0.00015  -0.00007  -0.00008
           D4          -0.00071  -0.00069   0.00139  -0.00069  -0.00071
                          A6        D1        D2        D3        D4
           A6           0.26568
           D1          -0.00140   0.02839
           D2          -0.00015   0.00001   0.02834
           D3           0.00015  -0.00001   0.00000   0.02834
           D4           0.00139  -0.00005  -0.00001   0.00001   0.02839
 ITU=  1  1  1  0
     Eigenvalues ---    0.02834   0.02834   0.02840   0.24989   0.25000
     Eigenvalues ---    0.25000   0.25521   0.31304   0.31769   0.31782
     Eigenvalues ---    0.31786   0.65034
 En-DIIS/RFO-DIIS IScMMF=        0 using points:     4    3
 RFO step:  Lambda= 0.00000000D+00.
 DidBck=F Rises=F RFO-DIIS coefs:    0.94643    0.05357
 Iteration  1 RMS(Cart)=  0.00013103 RMS(Int)=  0.00000001
 Iteration  2 RMS(Cart)=  0.00000001 RMS(Int)=  0.00000000
 Variable       Old X    -DE/DX   Delta X   Delta X   Delta X     New X
                                 (Linear)    (Quad)   (Total)
    R1        2.53366   0.00002   0.00000  -0.00001  -0.00001   2.53366
    R2        3.24634   0.00001  -0.00002   0.00007   0.00006   3.24639
    R3        3.24634   0.00001  -0.00002   0.00007   0.00006   3.24640
    R4        3.24633   0.00002  -0.00002   0.00008   0.00006   3.24639
    R5        3.24635   0.00001  -0.00002   0.00007   0.00005   3.24640
    A1        2.13485   0.00002   0.00005   0.00001   0.00006   2.13491
    A2        2.13485   0.00002   0.00005   0.00001   0.00005   2.13490
    A3        2.01349  -0.00003  -0.00009  -0.00002  -0.00011   2.01337
    A4        2.13486   0.00001   0.00005   0.00000   0.00005   2.13491
    A5        2.13484   0.00002   0.00005   0.00002   0.00006   2.13490
    A6        2.01349  -0.00003  -0.00009  -0.00002  -0.00011   2.01337
    D1        3.14148   0.00001   0.00001   0.00020   0.00022  -3.14149
    D2       -0.00001   0.00000   0.00000   0.00001   0.00002   0.00000
    D3        0.00001   0.00000   0.00000  -0.00001  -0.00002   0.00000
    D4       -3.14148  -0.00001  -0.00001  -0.00020  -0.00022   3.14149
         Item               Value     Threshold  Converged?
 Maximum Force            0.000032     0.000450     YES
 RMS     Force            0.000017     0.000300     YES
 Maximum Displacement     0.000206     0.001800     YES
 RMS     Displacement     0.000131     0.001200     YES
 Predicted change in Energy=-8.450235D-09
 Optimization completed.
    -- Stationary point found.
                           ----------------------------
                           !   Optimized Parameters   !
                           ! (Angstroms and Degrees)  !
 --------------------------                            --------------------------
 ! Name  Definition              Value          Derivative Info.                !
 --------------------------------------------------------------------------------
 ! R1    R(1,2)                  1.3408         -DE/DX =    0.0                 !
 ! R2    R(1,5)                  1.7179         -DE/DX =    0.0                 !
 ! R3    R(1,6)                  1.7179         -DE/DX =    0.0                 !
 ! R4    R(2,3)                  1.7179         -DE/DX =    0.0                 !
 ! R5    R(2,4)                  1.7179         -DE/DX =    0.0                 !
 ! A1    A(2,1,5)              122.318          -DE/DX =    0.0                 !
 ! A2    A(2,1,6)              122.3178         -DE/DX =    0.0                 !
 ! A3    A(5,1,6)              115.3642         -DE/DX =    0.0                 !
 ! A4    A(1,2,3)              122.3184         -DE/DX =    0.0                 !
 ! A5    A(1,2,4)              122.3174         -DE/DX =    0.0                 !
 ! A6    A(3,2,4)              115.3642         -DE/DX =    0.0                 !
 ! D1    D(5,1,2,3)           -180.0063         -DE/DX =    0.0                 !
 ! D2    D(5,1,2,4)             -0.0007         -DE/DX =    0.0                 !
 ! D3    D(6,1,2,3)              0.0007         -DE/DX =    0.0                 !
 ! D4    D(6,1,2,4)            180.0063         -DE/DX =    0.0                 !
 --------------------------------------------------------------------------------
 GradGradGradGradGradGradGradGradGradGradGradGradGradGradGradGradGradGrad

                          Input orientation:                          
 ---------------------------------------------------------------------
 Center     Atomic      Atomic             Coordinates (Angstroms)
 Number     Number       Type             X           Y           Z
 ---------------------------------------------------------------------
      1          6           0        0.201518    0.638730   -0.029026
      2          6           0       -0.201507   -0.638695    0.029166
      3         17           0        0.905613   -1.952229    0.022908
      4         17           0       -1.860795   -1.075216    0.115005
      5         17           0       -0.905621    1.952254   -0.022928
      6         17           0        1.860793    1.075256   -0.115025
 ---------------------------------------------------------------------
                    Distance matrix (angstroms):
                    1          2          3          4          5
     1  C    0.000000
     2  C    1.340757   0.000000
     3  Cl   2.685426   1.717884   0.000000
     4  Cl   2.685422   1.717893   2.903558   0.000000
     5  Cl   1.717888   2.685425   4.304376   3.177571   0.000000
     6  Cl   1.717890   2.685424   3.177587   4.304378   2.903558
                    6
     6  Cl   0.000000
 Stoichiometry    C2Cl4
 Framework group  C1[X(C2Cl4)]
 Deg. of freedom    12
 Full point group                 C1      NOp   1
 Largest Abelian subgroup         C1      NOp   1
 Largest concise Abelian subgroup C1      NOp   1
                         Standard orientation:                         
 ---------------------------------------------------------------------
 Center     Atomic      Atomic             Coordinates (Angstroms)
 Number     Number       Type             X           Y           Z
 ---------------------------------------------------------------------
      1          6           0       -0.670379    0.000000   -0.000072
      2          6           0        0.670379   -0.000007   -0.000065
      3         17           0        1.588792   -1.451780    0.000012
      4         17           0        1.588787    1.451778    0.000012
      5         17           0       -1.588784    1.451781    0.000012
      6         17           0       -1.588795   -1.451777    0.000012
 ---------------------------------------------------------------------
 Rotational constants (GHZ):      1.7142524      1.3889126      0.7672640

 **********************************************************************

            Population analysis using the SCF density.

 **********************************************************************

 Orbital symmetries:
       Occupied  (A) (A) (A) (A) (A) (A) (A) (A) (A) (A) (A) (A)
                 (A) (A) (A) (A) (A) (A) (A) (A) (A) (A) (A) (A)
                 (A) (A) (A) (A) (A) (A) (A) (A) (A) (A) (A) (A)
                 (A) (A) (A) (A)
       Virtual   (A) (A) (A) (A) (A) (A) (A) (A) (A) (A) (A) (A)
                 (A) (A) (A) (A) (A) (A) (A) (A) (A) (A) (A) (A)
                 (A) (A) (A) (A) (A) (A) (A) (A) (A) (A) (A) (A)
                 (A) (A) (A) (A) (A) (A) (A) (A) (A) (A) (A) (A)
                 (A) (A) (A) (A) (A) (A) (A) (A) (A) (A) (A) (A)
                 (A) (A) (A) (A) (A) (A) (A) (A) (A) (A) (A) (A)
                 (A) (A) (A) (A) (A) (A) (A) (A) (A) (A) (A) (A)
                 (A) (A) (A) (A) (A) (A)
 The electronic state is 1-A.
 Alpha  occ. eigenvalues -- -102.71008-102.71007-102.71007-102.71007 -10.70057
 Alpha  occ. eigenvalues --  -10.69953  -9.85667  -9.85666  -9.85666  -9.85665
 Alpha  occ. eigenvalues --   -7.58114  -7.58112  -7.58112  -7.58111  -7.57372
 Alpha  occ. eigenvalues --   -7.57371  -7.57371  -7.57371  -7.57350  -7.57349
 Alpha  occ. eigenvalues --   -7.57349  -7.57349  -1.07769  -1.01795  -0.97317
 Alpha  occ. eigenvalues --   -0.94826  -0.83185  -0.64967  -0.58900  -0.58637
 Alpha  occ. eigenvalues --   -0.53450  -0.50633  -0.45934  -0.43548  -0.42799
 Alpha  occ. eigenvalues --   -0.42338  -0.41783  -0.41023  -0.38101  -0.31691
 Alpha virt. eigenvalues --   -0.00853   0.00650   0.00652   0.01386   0.03572
 Alpha virt. eigenvalues --    0.04869   0.05099   0.05272   0.06397   0.08033
 Alpha virt. eigenvalues --    0.09528   0.09559   0.10308   0.11996   0.12266
 Alpha virt. eigenvalues --    0.12991   0.13323   0.13598   0.14508   0.16017
 Alpha virt. eigenvalues --    0.16071   0.16694   0.18023   0.19551   0.21407
 Alpha virt. eigenvalues --    0.22483   0.23405   0.23503   0.27725   0.32569
 Alpha virt. eigenvalues --    0.50333   0.52662   0.55329   0.56472   0.59510
 Alpha virt. eigenvalues --    0.59785   0.61531   0.62290   0.63000   0.64900
 Alpha virt. eigenvalues --    0.64989   0.67014   0.67997   0.68418   0.69739
 Alpha virt. eigenvalues --    0.70270   0.70470   0.78317   0.80462   0.82711
 Alpha virt. eigenvalues --    0.82735   0.85931   0.87797   0.88676   0.90044
 Alpha virt. eigenvalues --    0.90273   0.90590   0.90621   0.91113   0.93109
 Alpha virt. eigenvalues --    0.95231   0.95404   0.95441   0.96255   1.09263
 Alpha virt. eigenvalues --    1.09498   1.14032   1.14600   1.15040   1.22574
 Alpha virt. eigenvalues --    1.23643   1.28120   1.45601   1.48309   1.49895
 Alpha virt. eigenvalues --    1.64803   1.91801   1.97961   1.98718   2.05486
 Alpha virt. eigenvalues --    2.29627   2.30787   2.56168   2.67116   4.04296
 Alpha virt. eigenvalues --    4.20363   4.39099   4.39761   4.46220   4.48799
          Condensed to atoms (all electrons):
               1          2          3          4          5          6
     1  C    6.503066  -0.341019  -0.127576  -0.127568   0.213585   0.213595
     2  C   -0.341019   6.503066   0.213584   0.213596  -0.127573  -0.127571
     3  Cl  -0.127576   0.213584  16.753094  -0.047389   0.002240   0.038992
     4  Cl  -0.127568   0.213596  -0.047389  16.753103   0.038991   0.002240
     5  Cl   0.213585  -0.127573   0.002240   0.038991  16.753096  -0.047389
     6  Cl   0.213595  -0.127571   0.038992   0.002240  -0.047389  16.753101
 Mulliken charges:
               1
     1  C   -0.334083
     2  C   -0.334083
     3  Cl   0.167056
     4  Cl   0.167027
     5  Cl   0.167050
     6  Cl   0.167032
 Sum of Mulliken charges =   0.00000
 Mulliken charges with hydrogens summed into heavy atoms:
               1
     1  C   -0.334083
     2  C   -0.334083
     3  Cl   0.167056
     4  Cl   0.167027
     5  Cl   0.167050
     6  Cl   0.167032
 Electronic spatial extent (au):  <R**2>=           1279.4878
 Charge=              0.0000 electrons
 Dipole moment (field-independent basis, Debye):
    X=              0.0000    Y=              0.0000    Z=              0.0000  Tot=              0.0000
 Quadrupole moment (field-independent basis, Debye-Ang):
   XX=            -61.0401   YY=            -59.1725   ZZ=            -61.9727
   XY=             -0.0001   XZ=              0.0000   YZ=              0.0000
 Traceless Quadrupole moment (field-independent basis, Debye-Ang):
   XX=             -0.3117   YY=              1.5559   ZZ=             -1.2442
   XY=             -0.0001   XZ=              0.0000   YZ=              0.0000
 Octapole moment (field-independent basis, Debye-Ang**2):
  XXX=              0.0000  YYY=              0.0000  ZZZ=              0.0006  XYY=              0.0000
  XXY=             -0.0002  XXZ=              0.0008  XZZ=              0.0000  YZZ=              0.0000
  YYZ=              0.0011  XYZ=              0.0000
 Hexadecapole moment (field-independent basis, Debye-Ang**3):
 XXXX=           -849.2063 YYYY=           -656.2083 ZZZZ=            -69.9541 XXXY=             -0.0004
 XXXZ=             -0.0001 YYYX=             -0.0004 YYYZ=              0.0000 ZZZX=              0.0000
 ZZZY=              0.0000 XXYY=           -226.3683 XXZZ=           -157.5946 YYZZ=           -131.4376
 XXYZ=              0.0000 YYXZ=             -0.0001 ZZXY=             -0.0001
 N-N= 4.929445148667D+02 E-N=-5.536174127923D+03  KE= 1.911293105737D+03
 1\1\GINC-KATANA3\FOpt\RM062X\6-31+G(d)\C2Cl4\Z5358697\14-Mar-2025\0\\#
 m062X/6-31+G(d) OPT Freq=noraman\\1,1,2,2-tetrachloroethylene\\0,1\C,0
 .2015177932,0.6387299969,-0.0290262997\C,-0.2015074321,-0.6386950276,0
 .0291660895\Cl,0.9056128328,-1.9522289675,0.0229079586\Cl,-1.860795492
 2,-1.0752162393,0.1150049523\Cl,-0.9056206753,1.952253859,-0.022927554
 3\Cl,1.8607929736,1.0752563785,-0.1150251463\\Version=ES64L-G09RevD.01
 \State=1-A\HF=-1916.8004312\RMSD=4.037e-09\RMSF=1.296e-05\Dipole=0.000
 0087,-0.0000035,-0.0000146\Quadrupole=1.0273639,-0.105705,-0.9216589,-
 0.4005889,-0.0719604,-0.0087371\PG=C01 [X(C2Cl4)]\\@


 OUR LITTLE SYSTEMS HAVE THEIR DAY,    
   THEY HAVE THEIR DAY AND CEASE TO BE.
   THEY ARE BUT BROKEN LIGHTS OF THEE, 
 AND THOU, OH LORD, ART MORE THAN THEY.
          -------------------          
 LET KNOWLEDGE GROW FROM MORE TO MORE, 
   BUT MORE OF REVERENCE IN US DWELL.  
   THAT MIND AND SOUL, ACCORDING WELL, 
 MAY MAKE ONE MUSIC AS BEFORE.....     
          -------------------          
                    LORD TENNYSON      
 Job cpu time:       0 days  0 hours  1 minutes  5.5 seconds.
 File lengths (MBytes):  RWF=    133 Int=      0 D2E=      0 Chk=      3 Scr=      2
 Normal termination of Gaussian 09 at Fri Mar 14 14:05:53 2025.
 Link1:  Proceeding to internal job step number  2.
 ---------------------------------------------------------------------
 #N Geom=AllCheck Guess=TCheck SCRF=Check GenChk RM062X/6-31+G(d) Freq
 ---------------------------------------------------------------------
 1/10=4,29=7,30=1,38=1,40=1/1,3;
 2/12=2,40=1/2;
 3/5=1,6=6,7=11,11=2,14=-4,16=1,25=1,30=1,70=2,71=2,74=-55,116=1,140=1/1,2,3;
 4/5=101/1;
 5/5=2,98=1/2;
 8/6=4,10=90,11=11/1;
 11/6=1,8=1,9=11,15=111,16=1/1,2,10;
 10/6=1/2;
 6/7=2,8=2,9=2,10=2,18=1,28=1/1;
 7/8=1,10=1,25=1/1,2,3,16;
 1/10=4,30=1/3;
 99//99;
 Structure from the checkpoint file:  "/srv/scratch/z5358697/gauss/Gau-1831155.chk"
 ---------------------------
 1,1,2,2-tetrachloroethylene
 ---------------------------
 Charge =  0 Multiplicity = 1
 Redundant internal coordinates found in file.
 C,0,0.2015177932,0.6387299969,-0.0290262997
 C,0,-0.2015074321,-0.6386950276,0.0291660895
 Cl,0,0.9056128328,-1.9522289675,0.0229079586
 Cl,0,-1.8607954922,-1.0752162393,0.1150049523
 Cl,0,-0.9056206753,1.952253859,-0.0229275543
 Cl,0,1.8607929736,1.0752563785,-0.1150251463
 Recover connectivity data from disk.

 GradGradGradGradGradGradGradGradGradGradGradGradGradGradGradGradGradGrad
 Berny optimization.
 Initialization pass.
                           ----------------------------
                           !    Initial Parameters    !
                           ! (Angstroms and Degrees)  !
 --------------------------                            --------------------------
 ! Name  Definition              Value          Derivative Info.                !
 --------------------------------------------------------------------------------
 ! R1    R(1,2)                  1.3408         calculate D2E/DX2 analytically  !
 ! R2    R(1,5)                  1.7179         calculate D2E/DX2 analytically  !
 ! R3    R(1,6)                  1.7179         calculate D2E/DX2 analytically  !
 ! R4    R(2,3)                  1.7179         calculate D2E/DX2 analytically  !
 ! R5    R(2,4)                  1.7179         calculate D2E/DX2 analytically  !
 ! A1    A(2,1,5)              122.318          calculate D2E/DX2 analytically  !
 ! A2    A(2,1,6)              122.3178         calculate D2E/DX2 analytically  !
 ! A3    A(5,1,6)              115.3642         calculate D2E/DX2 analytically  !
 ! A4    A(1,2,3)              122.3184         calculate D2E/DX2 analytically  !
 ! A5    A(1,2,4)              122.3174         calculate D2E/DX2 analytically  !
 ! A6    A(3,2,4)              115.3642         calculate D2E/DX2 analytically  !
 ! D1    D(5,1,2,3)            179.9937         calculate D2E/DX2 analytically  !
 ! D2    D(5,1,2,4)             -0.0007         calculate D2E/DX2 analytically  !
 ! D3    D(6,1,2,3)              0.0007         calculate D2E/DX2 analytically  !
 ! D4    D(6,1,2,4)           -179.9937         calculate D2E/DX2 analytically  !
 --------------------------------------------------------------------------------
 Trust Radius=3.00D-01 FncErr=1.00D-07 GrdErr=1.00D-07
 Number of steps in this run=      2 maximum allowed number of steps=      2.
 GradGradGradGradGradGradGradGradGradGradGradGradGradGradGradGradGradGrad

                          Input orientation:                          
 ---------------------------------------------------------------------
 Center     Atomic      Atomic             Coordinates (Angstroms)
 Number     Number       Type             X           Y           Z
 ---------------------------------------------------------------------
      1          6           0        0.201518    0.638730   -0.029026
      2          6           0       -0.201507   -0.638695    0.029166
      3         17           0        0.905613   -1.952229    0.022908
      4         17           0       -1.860795   -1.075216    0.115005
      5         17           0       -0.905621    1.952254   -0.022928
      6         17           0        1.860793    1.075256   -0.115025
 ---------------------------------------------------------------------
                    Distance matrix (angstroms):
                    1          2          3          4          5
     1  C    0.000000
     2  C    1.340757   0.000000
     3  Cl   2.685426   1.717884   0.000000
     4  Cl   2.685422   1.717893   2.903558   0.000000
     5  Cl   1.717888   2.685425   4.304376   3.177571   0.000000
     6  Cl   1.717890   2.685424   3.177587   4.304378   2.903558
                    6
     6  Cl   0.000000
 Stoichiometry    C2Cl4
 Framework group  C1[X(C2Cl4)]
 Deg. of freedom    12
 Full point group                 C1      NOp   1
 Largest Abelian subgroup         C1      NOp   1
 Largest concise Abelian subgroup C1      NOp   1
                         Standard orientation:                         
 ---------------------------------------------------------------------
 Center     Atomic      Atomic             Coordinates (Angstroms)
 Number     Number       Type             X           Y           Z
 ---------------------------------------------------------------------
      1          6           0       -0.670379    0.000000   -0.000072
      2          6           0        0.670379   -0.000007   -0.000065
      3         17           0        1.588792   -1.451780    0.000012
      4         17           0        1.588787    1.451778    0.000012
      5         17           0       -1.588784    1.451781    0.000012
      6         17           0       -1.588795   -1.451777    0.000012
 ---------------------------------------------------------------------
 Rotational constants (GHZ):      1.7142524      1.3889126      0.7672640
 Standard basis: 6-31+G(d) (6D, 7F)
 There are   130 symmetry adapted cartesian basis functions of A   symmetry.
 There are   130 symmetry adapted basis functions of A   symmetry.
   130 basis functions,   288 primitive gaussians,   130 cartesian basis functions
    40 alpha electrons       40 beta electrons
       nuclear repulsion energy       492.9445148667 Hartrees.
 NAtoms=    6 NActive=    6 NUniq=    6 SFac= 1.00D+00 NAtFMM=   60 NAOKFM=F Big=F
 Integral buffers will be    131072 words long.
 Raffenetti 2 integral format.
 Two-electron integral symmetry is turned on.
 One-electron integrals computed using PRISM.
 NBasis=   130 RedAO= T EigKep=  1.39D-05  NBF=   130
 NBsUse=   130 1.00D-06 EigRej= -1.00D+00 NBFU=   130
 Initial guess from the checkpoint file:  "/srv/scratch/z5358697/gauss/Gau-1831155.chk"
 B after Tr=     0.000000    0.000000    0.000000
         Rot=    1.000000    0.000000    0.000000    0.000000 Ang=   0.00 deg.
 Requested convergence on RMS density matrix=1.00D-08 within 128 cycles.
 Requested convergence on MAX density matrix=1.00D-06.
 Requested convergence on             energy=1.00D-06.
 No special actions if energy rises.
 SCF Done:  E(RM062X) =  -1916.80043119     A.U. after    1 cycles
            NFock=  1  Conv=0.24D-08     -V/T= 2.0029
 DoSCS=F DFT=T ScalE2(SS,OS)=  1.000000  1.000000
 Range of M.O.s used for correlation:     1   130
 NBasis=   130 NAE=    40 NBE=    40 NFC=     0 NFV=     0
 NROrb=    130 NOA=    40 NOB=    40 NVA=    90 NVB=    90

 **** Warning!!: The largest alpha MO coefficient is  0.14869704D+03

 Symmetrizing basis deriv contribution to polar:
 IMax=3 JMax=2 DiffMx= 0.00D+00
 G2DrvN: will do     7 centers at a time, making    1 passes.
 Calling FoFCou, ICntrl=  3107 FMM=F I1Cent=   0 AccDes= 0.00D+00.
 End of G2Drv F.D. properties file   721 does not exist.
 End of G2Drv F.D. properties file   722 does not exist.
 End of G2Drv F.D. properties file   788 does not exist.
          IDoAtm=111111
          Differentiating once with respect to electric field.
                with respect to dipole field.
          Differentiating once with respect to nuclear coordinates.
          There are    21 degrees of freedom in the 1st order CPHF.  IDoFFX=6 NUNeed=     3.
     18 vectors produced by pass  0 Test12= 1.71D-14 4.76D-09 XBig12= 5.66D+01 5.71D+00.
 AX will form    18 AO Fock derivatives at one time.
     18 vectors produced by pass  1 Test12= 1.71D-14 4.76D-09 XBig12= 6.53D+00 6.75D-01.
     18 vectors produced by pass  2 Test12= 1.71D-14 4.76D-09 XBig12= 1.67D-01 9.67D-02.
     18 vectors produced by pass  3 Test12= 1.71D-14 4.76D-09 XBig12= 1.27D-02 3.29D-02.
     18 vectors produced by pass  4 Test12= 1.71D-14 4.76D-09 XBig12= 1.78D-04 3.47D-03.
     18 vectors produced by pass  5 Test12= 1.71D-14 4.76D-09 XBig12= 1.56D-06 3.60D-04.
     18 vectors produced by pass  6 Test12= 1.71D-14 4.76D-09 XBig12= 1.08D-08 2.72D-05.
     14 vectors produced by pass  7 Test12= 1.71D-14 4.76D-09 XBig12= 5.72D-11 2.07D-06.
      3 vectors produced by pass  8 Test12= 1.71D-14 4.76D-09 XBig12= 4.51D-13 1.69D-07.
      2 vectors produced by pass  9 Test12= 1.71D-14 4.76D-09 XBig12= 5.36D-15 2.01D-08.
      1 vectors produced by pass 10 Test12= 1.71D-14 4.76D-09 XBig12= 3.53D-16 5.50D-09.
 InvSVY:  IOpt=1 It=  1 EMax= 5.33D-15
 Solved reduced A of dimension   146 with    21 vectors.
 Isotropic polarizability for W=    0.000000       69.99 Bohr**3.
 End of Minotr F.D. properties file   721 does not exist.
 End of Minotr F.D. properties file   722 does not exist.
 End of Minotr F.D. properties file   788 does not exist.

 **********************************************************************

            Population analysis using the SCF density.

 **********************************************************************

 Orbital symmetries:
       Occupied  (A) (A) (A) (A) (A) (A) (A) (A) (A) (A) (A) (A)
                 (A) (A) (A) (A) (A) (A) (A) (A) (A) (A) (A) (A)
                 (A) (A) (A) (A) (A) (A) (A) (A) (A) (A) (A) (A)
                 (A) (A) (A) (A)
       Virtual   (A) (A) (A) (A) (A) (A) (A) (A) (A) (A) (A) (A)
                 (A) (A) (A) (A) (A) (A) (A) (A) (A) (A) (A) (A)
                 (A) (A) (A) (A) (A) (A) (A) (A) (A) (A) (A) (A)
                 (A) (A) (A) (A) (A) (A) (A) (A) (A) (A) (A) (A)
                 (A) (A) (A) (A) (A) (A) (A) (A) (A) (A) (A) (A)
                 (A) (A) (A) (A) (A) (A) (A) (A) (A) (A) (A) (A)
                 (A) (A) (A) (A) (A) (A) (A) (A) (A) (A) (A) (A)
                 (A) (A) (A) (A) (A) (A)
 The electronic state is 1-A.
 Alpha  occ. eigenvalues -- -102.71008-102.71007-102.71007-102.71007 -10.70057
 Alpha  occ. eigenvalues --  -10.69953  -9.85667  -9.85666  -9.85666  -9.85665
 Alpha  occ. eigenvalues --   -7.58114  -7.58112  -7.58112  -7.58111  -7.57372
 Alpha  occ. eigenvalues --   -7.57371  -7.57371  -7.57371  -7.57350  -7.57349
 Alpha  occ. eigenvalues --   -7.57349  -7.57349  -1.07769  -1.01795  -0.97317
 Alpha  occ. eigenvalues --   -0.94826  -0.83185  -0.64967  -0.58900  -0.58637
 Alpha  occ. eigenvalues --   -0.53450  -0.50633  -0.45934  -0.43548  -0.42799
 Alpha  occ. eigenvalues --   -0.42338  -0.41783  -0.41023  -0.38101  -0.31691
 Alpha virt. eigenvalues --   -0.00853   0.00650   0.00652   0.01386   0.03572
 Alpha virt. eigenvalues --    0.04869   0.05099   0.05272   0.06397   0.08033
 Alpha virt. eigenvalues --    0.09528   0.09559   0.10308   0.11996   0.12266
 Alpha virt. eigenvalues --    0.12991   0.13323   0.13598   0.14508   0.16017
 Alpha virt. eigenvalues --    0.16071   0.16694   0.18023   0.19551   0.21407
 Alpha virt. eigenvalues --    0.22483   0.23405   0.23503   0.27725   0.32569
 Alpha virt. eigenvalues --    0.50333   0.52662   0.55329   0.56472   0.59510
 Alpha virt. eigenvalues --    0.59785   0.61531   0.62290   0.63000   0.64900
 Alpha virt. eigenvalues --    0.64989   0.67014   0.67997   0.68418   0.69739
 Alpha virt. eigenvalues --    0.70270   0.70470   0.78317   0.80462   0.82711
 Alpha virt. eigenvalues --    0.82735   0.85931   0.87797   0.88676   0.90044
 Alpha virt. eigenvalues --    0.90273   0.90590   0.90621   0.91113   0.93109
 Alpha virt. eigenvalues --    0.95231   0.95404   0.95441   0.96255   1.09263
 Alpha virt. eigenvalues --    1.09498   1.14032   1.14600   1.15040   1.22574
 Alpha virt. eigenvalues --    1.23643   1.28120   1.45601   1.48309   1.49895
 Alpha virt. eigenvalues --    1.64803   1.91801   1.97961   1.98718   2.05486
 Alpha virt. eigenvalues --    2.29627   2.30787   2.56168   2.67116   4.04296
 Alpha virt. eigenvalues --    4.20363   4.39099   4.39761   4.46220   4.48799
          Condensed to atoms (all electrons):
               1          2          3          4          5          6
     1  C    6.503066  -0.341019  -0.127576  -0.127568   0.213585   0.213595
     2  C   -0.341019   6.503066   0.213584   0.213596  -0.127573  -0.127571
     3  Cl  -0.127576   0.213584  16.753094  -0.047389   0.002240   0.038992
     4  Cl  -0.127568   0.213596  -0.047389  16.753103   0.038991   0.002240
     5  Cl   0.213585  -0.127573   0.002240   0.038991  16.753096  -0.047389
     6  Cl   0.213595  -0.127571   0.038992   0.002240  -0.047389  16.753101
 Mulliken charges:
               1
     1  C   -0.334083
     2  C   -0.334083
     3  Cl   0.167056
     4  Cl   0.167027
     5  Cl   0.167050
     6  Cl   0.167032
 Sum of Mulliken charges =   0.00000
 Mulliken charges with hydrogens summed into heavy atoms:
               1
     1  C   -0.334083
     2  C   -0.334083
     3  Cl   0.167056
     4  Cl   0.167027
     5  Cl   0.167050
     6  Cl   0.167032
 APT charges:
               1
     1  C    0.505800
     2  C    0.505800
     3  Cl  -0.252898
     4  Cl  -0.252902
     5  Cl  -0.252899
     6  Cl  -0.252901
 Sum of APT charges =   0.00000
 APT charges with hydrogens summed into heavy atoms:
               1
     1  C    0.505800
     2  C    0.505800
     3  Cl  -0.252898
     4  Cl  -0.252902
     5  Cl  -0.252899
     6  Cl  -0.252901
 Electronic spatial extent (au):  <R**2>=           1279.4878
 Charge=              0.0000 electrons
 Dipole moment (field-independent basis, Debye):
    X=              0.0000    Y=              0.0000    Z=              0.0000  Tot=              0.0000
 Quadrupole moment (field-independent basis, Debye-Ang):
   XX=            -61.0401   YY=            -59.1725   ZZ=            -61.9727
   XY=             -0.0001   XZ=              0.0000   YZ=              0.0000
 Traceless Quadrupole moment (field-independent basis, Debye-Ang):
   XX=             -0.3117   YY=              1.5559   ZZ=             -1.2442
   XY=             -0.0001   XZ=              0.0000   YZ=              0.0000
 Octapole moment (field-independent basis, Debye-Ang**2):
  XXX=              0.0000  YYY=              0.0000  ZZZ=              0.0006  XYY=              0.0000
  XXY=             -0.0002  XXZ=              0.0008  XZZ=              0.0000  YZZ=              0.0000
  YYZ=              0.0011  XYZ=              0.0000
 Hexadecapole moment (field-independent basis, Debye-Ang**3):
 XXXX=           -849.2063 YYYY=           -656.2083 ZZZZ=            -69.9542 XXXY=             -0.0004
 XXXZ=             -0.0001 YYYX=             -0.0004 YYYZ=              0.0000 ZZZX=              0.0000
 ZZZY=              0.0000 XXYY=           -226.3683 XXZZ=           -157.5946 YYZZ=           -131.4376
 XXYZ=              0.0000 YYXZ=             -0.0001 ZZXY=             -0.0001
 N-N= 4.929445148667D+02 E-N=-5.536174126744D+03  KE= 1.911293105279D+03
  Exact polarizability:  87.930   0.000  81.881   0.000   0.000  40.156
 Approx polarizability: 101.827   0.000  99.283   0.000   0.000  49.033
 Calling FoFJK, ICntrl=    100127 FMM=F ISym2X=0 I1Cent= 0 IOpClX= 0 NMat=1 NMatS=1 NMatT=0.
 Full mass-weighted force constant matrix:
 Low frequencies ---  -40.2330  -23.9413   -0.0010    0.0037    0.0064   21.0670
 Low frequencies ---   89.4470  188.2464  246.6554
 Diagonal vibrational polarizability:
        2.8567543       7.0644485       0.1314404
 Harmonic frequencies (cm**-1), IR intensities (KM/Mole), Raman scattering
 activities (A**4/AMU), depolarization ratios for plane and unpolarized
 incident light, reduced masses (AMU), force constants (mDyne/A),
 and normal coordinates:
                      1                      2                      3
                      A                      A                      A
 Frequencies --     89.4470               188.2464               246.6554
 Red. masses --     34.9689                31.7073                34.9473
 Frc consts  --      0.1648                 0.6620                 1.2527
 IR Inten    --      0.0000                 1.0639                 0.0000
  Atom  AN      X      Y      Z        X      Y      Z        X      Y      Z
     1   6     0.00   0.00   0.00     0.00  -0.27   0.00    -0.02   0.00   0.00
     2   6     0.00   0.00   0.00     0.00  -0.27   0.00     0.02   0.00   0.00
     3  17     0.00   0.00   0.50     0.46   0.05   0.00     0.44   0.24   0.00
     4  17     0.00   0.00  -0.50    -0.46   0.05   0.00     0.44  -0.24   0.00
     5  17     0.00   0.00   0.50     0.46   0.05   0.00    -0.44  -0.24   0.00
     6  17     0.00   0.00  -0.50    -0.46   0.05   0.00    -0.44   0.24   0.00
                      4                      5                      6
                      A                      A                      A
 Frequencies --    270.1684               318.8602               355.4224
 Red. masses --     13.2772                28.2954                31.4829
 Frc consts  --      0.5710                 1.6950                 2.3432
 IR Inten    --      0.3565                 0.0988                 0.0000
  Atom  AN      X      Y      Z        X      Y      Z        X      Y      Z
     1   6     0.00   0.00   0.69    -0.38   0.00   0.00     0.00  -0.28   0.00
     2   6     0.00   0.00   0.69    -0.38   0.00   0.00     0.00   0.28   0.00
     3  17     0.00   0.00  -0.12     0.07   0.42   0.00    -0.35   0.30   0.00
     4  17     0.00   0.00  -0.12     0.07  -0.42   0.00     0.35   0.30   0.00
     5  17     0.00   0.00  -0.12     0.07   0.42   0.00     0.35  -0.30   0.00
     6  17     0.00   0.00  -0.12     0.07  -0.42   0.00    -0.35  -0.30   0.00
                      7                      8                      9
                      A                      A                      A
 Frequencies --    463.6259               528.7740               810.6143
 Red. masses --     34.6242                12.2383                14.5831
 Frc consts  --      4.3850                 2.0161                 5.6458
 IR Inten    --      0.0000                 0.0000                69.1154
  Atom  AN      X      Y      Z        X      Y      Z        X      Y      Z
     1   6    -0.09   0.00   0.00     0.00   0.00   0.70     0.67   0.00   0.00
     2   6     0.09   0.00   0.00     0.00   0.00  -0.70     0.67   0.00   0.00
     3  17     0.24  -0.43   0.00     0.00   0.00   0.05    -0.11   0.12   0.00
     4  17     0.24   0.43   0.00     0.00   0.00   0.05    -0.11  -0.12   0.00
     5  17    -0.24   0.43   0.00     0.00   0.00  -0.05    -0.11   0.12   0.00
     6  17    -0.24  -0.43   0.00     0.00   0.00  -0.05    -0.11  -0.12   0.00
                     10                     11                     12
                      A                      A                      A
 Frequencies --    928.4211              1011.4912              1682.5757
 Red. masses --     13.8168                12.6150                12.0437
 Frc consts  --      7.0170                 7.6044                20.0890
 IR Inten    --    200.3949                 0.0000                 0.0000
  Atom  AN      X      Y      Z        X      Y      Z        X      Y      Z
     1   6     0.00   0.68   0.00     0.00   0.70   0.00     0.71   0.00   0.00
     2   6     0.00   0.68   0.00     0.00  -0.70   0.00    -0.71   0.00   0.00
     3  17     0.08  -0.12   0.00    -0.03   0.08   0.00     0.01  -0.02   0.00
     4  17    -0.08  -0.12   0.00     0.03   0.08   0.00     0.01   0.02   0.00
     5  17     0.08  -0.12   0.00     0.03  -0.08   0.00    -0.01   0.02   0.00
     6  17    -0.08  -0.12   0.00    -0.03  -0.08   0.00    -0.01  -0.02   0.00

 -------------------
 - Thermochemistry -
 -------------------
 Temperature   298.150 Kelvin.  Pressure   1.00000 Atm.
 Atom     1 has atomic number  6 and mass  12.00000
 Atom     2 has atomic number  6 and mass  12.00000
 Atom     3 has atomic number 17 and mass  34.96885
 Atom     4 has atomic number 17 and mass  34.96885
 Atom     5 has atomic number 17 and mass  34.96885
 Atom     6 has atomic number 17 and mass  34.96885
 Molecular mass:   163.87541 amu.
 Principal axes and moments of inertia in atomic units:
                           1         2         3
     Eigenvalues --  1052.786151299.391472352.17762
           X            1.00000   0.00000   0.00000
           Y            0.00000   1.00000   0.00000
           Z            0.00000   0.00000   1.00000
 This molecule is an asymmetric top.
 Rotational symmetry number  1.
 Warning -- assumption of classical behavior for rotation
           may cause significant error
 Rotational temperatures (Kelvin)      0.08227     0.06666     0.03682
 Rotational constants (GHZ):           1.71425     1.38891     0.76726
 Zero-point vibrational energy      41237.1 (Joules/Mol)
                                    9.85590 (Kcal/Mol)
 Warning -- explicit consideration of   8 degrees of freedom as
           vibrations may cause significant error
 Vibrational temperatures:    128.69   270.84   354.88   388.71   458.77
          (Kelvin)            511.37   667.05   760.79  1166.29  1335.79
                             1455.31  2420.85
 
 Zero-point correction=                           0.015706 (Hartree/Particle)
 Thermal correction to Energy=                    0.022193
 Thermal correction to Enthalpy=                  0.023137
 Thermal correction to Gibbs Free Energy=        -0.016885
 Sum of electronic and zero-point Energies=          -1916.784725
 Sum of electronic and thermal Energies=             -1916.778238
 Sum of electronic and thermal Enthalpies=           -1916.777294
 Sum of electronic and thermal Free Energies=        -1916.817316
 
                     E (Thermal)             CV                S
                      KCal/Mol        Cal/Mol-Kelvin    Cal/Mol-Kelvin
 Total                   13.926             20.489             84.234
 Electronic               0.000              0.000              0.000
 Translational            0.889              2.981             41.190
 Rotational               0.889              2.981             29.555
 Vibrational             12.149             14.527             13.488
 Vibration     1          0.602              1.957              3.672
 Vibration     2          0.633              1.856              2.245
 Vibration     3          0.661              1.768              1.754
 Vibration     4          0.674              1.728              1.595
 Vibration     5          0.705              1.638              1.316
 Vibration     6          0.731              1.564              1.142
 Vibration     7          0.821              1.331              0.756
 Vibration     8          0.884              1.186              0.590
                       Q            Log10(Q)             Ln(Q)
 Total Bot       0.583976D+08          7.766395         17.882785
 Total V=0       0.979063D+15         14.990811         34.517617
 Vib (Bot)       0.110293D-05         -5.957453        -13.717542
 Vib (Bot)    1  0.229885D+01          0.361510          0.832408
 Vib (Bot)    2  0.106386D+01          0.026884          0.061902
 Vib (Bot)    3  0.792520D+00         -0.100990         -0.232538
 Vib (Bot)    4  0.715276D+00         -0.145526         -0.335087
 Vib (Bot)    5  0.589946D+00         -0.229188         -0.527724
 Vib (Bot)    6  0.517263D+00         -0.286288         -0.659204
 Vib (Bot)    7  0.365763D+00         -0.436801         -1.005770
 Vib (Bot)    8  0.302798D+00         -0.518847         -1.194690
 Vib (V=0)       0.184911D+02          1.266963          2.917291
 Vib (V=0)    1  0.285259D+01          0.455240          1.048229
 Vib (V=0)    2  0.167550D+01          0.224144          0.516110
 Vib (V=0)    3  0.143706D+01          0.157476          0.362602
 Vib (V=0)    4  0.137271D+01          0.137578          0.316786
 Vib (V=0)    5  0.127333D+01          0.104940          0.241634
 Vib (V=0)    6  0.121942D+01          0.086152          0.198373
 Vib (V=0)    7  0.111950D+01          0.049025          0.112884
 Vib (V=0)    8  0.108454D+01          0.035245          0.081155
 Electronic      0.100000D+01          0.000000          0.000000
 Translational   0.824567D+08          7.916226         18.227784
 Rotational      0.642128D+06          5.807622         13.372543
 ***** Axes restored to original set *****
 -------------------------------------------------------------------
 Center     Atomic                   Forces (Hartrees/Bohr)
 Number     Number              X              Y              Z
 -------------------------------------------------------------------
      1        6          -0.000006280   -0.000023890   -0.000004625
      2        6           0.000003697    0.000024298   -0.000004853
      3       17          -0.000000635   -0.000021375    0.000002924
      4       17          -0.000008779   -0.000018143    0.000003173
      5       17           0.000002021    0.000021199    0.000001812
      6       17           0.000009976    0.000017911    0.000001570
 -------------------------------------------------------------------
 Cartesian Forces:  Max     0.000024298 RMS     0.000012955
 FormGI is forming the generalized inverse of G from B-inverse, IUseBI=4.

 GradGradGradGradGradGradGradGradGradGradGradGradGradGradGradGradGradGrad
 Berny optimization.
 Internal  Forces:  Max     0.000032276 RMS     0.000016982
 Search for a local minimum.
 Step number   1 out of a maximum of    2
 All quantities printed in internal units (Hartrees-Bohrs-Radians)
 Second derivative matrix not updated -- analytic derivatives used.
 The second derivative matrix:
                          R1        R2        R3        R4        R5
           R1           0.62934
           R2           0.02477   0.26813
           R3           0.02477   0.02955   0.26813
           R4           0.02477   0.00302   0.00150   0.26814
           R5           0.02477   0.00150   0.00302   0.02955   0.26813
           A1           0.02362   0.03315  -0.04650   0.00127   0.00255
           A2           0.02362  -0.04650   0.03315   0.00255   0.00127
           A3          -0.04724   0.01335   0.01335  -0.00382  -0.00382
           A4           0.02362   0.00127   0.00255   0.03315  -0.04650
           A5           0.02362   0.00255   0.00127  -0.04650   0.03315
           A6          -0.04724  -0.00382  -0.00382   0.01335   0.01335
           D1           0.00000   0.00000   0.00000   0.00000   0.00000
           D2           0.00000   0.00000   0.00000   0.00000   0.00000
           D3           0.00000   0.00000   0.00000   0.00000   0.00000
           D4           0.00000   0.00000   0.00000   0.00000   0.00000
                          A1        A2        A3        A4        A5
           A1           0.18232
           A2          -0.09962   0.18232
           A3          -0.08271  -0.08271   0.16542
           A4          -0.04038   0.05364  -0.01325   0.18232
           A5           0.05364  -0.04038  -0.01326  -0.09962   0.18233
           A6          -0.01326  -0.01325   0.02651  -0.08271  -0.08271
           D1           0.00000   0.00000   0.00000   0.00000   0.00000
           D2           0.00000   0.00000   0.00000   0.00000   0.00000
           D3           0.00000   0.00000   0.00000   0.00000   0.00000
           D4           0.00000   0.00000   0.00000   0.00000   0.00000
                          A6        D1        D2        D3        D4
           A6           0.16542
           D1           0.00000   0.03162
           D2           0.00000   0.00498   0.02550
           D3           0.00000   0.00498  -0.01553   0.02550
           D4           0.00000  -0.02165   0.00498   0.00498   0.03162
 ITU=  0
     Eigenvalues ---    0.01993   0.04103   0.05327   0.13141   0.19896
     Eigenvalues ---    0.19986   0.25278   0.29662   0.30255   0.31301
     Eigenvalues ---    0.41315   0.65364
 Angle between quadratic step and forces=  32.81 degrees.
 Linear search not attempted -- first point.
 Iteration  1 RMS(Cart)=  0.00011199 RMS(Int)=  0.00000000
 Iteration  2 RMS(Cart)=  0.00000001 RMS(Int)=  0.00000000
 Variable       Old X    -DE/DX   Delta X   Delta X   Delta X     New X
                                 (Linear)    (Quad)   (Total)
    R1        2.53366   0.00002   0.00000  -0.00001  -0.00001   2.53366
    R2        3.24634   0.00001   0.00000   0.00006   0.00006   3.24639
    R3        3.24634   0.00001   0.00000   0.00005   0.00005   3.24639
    R4        3.24633   0.00002   0.00000   0.00006   0.00006   3.24639
    R5        3.24635   0.00001   0.00000   0.00005   0.00005   3.24639
    A1        2.13485   0.00002   0.00000   0.00006   0.00006   2.13491
    A2        2.13485   0.00002   0.00000   0.00006   0.00006   2.13491
    A3        2.01349  -0.00003   0.00000  -0.00012  -0.00012   2.01337
    A4        2.13486   0.00001   0.00000   0.00005   0.00005   2.13491
    A5        2.13484   0.00002   0.00000   0.00007   0.00007   2.13491
    A6        2.01349  -0.00003   0.00000  -0.00012  -0.00012   2.01337
    D1        3.14148   0.00001   0.00000   0.00012   0.00012  -3.14158
    D2       -0.00001   0.00000   0.00000   0.00001   0.00001   0.00000
    D3        0.00001   0.00000   0.00000  -0.00001  -0.00001   0.00000
    D4       -3.14148  -0.00001   0.00000  -0.00012  -0.00012   3.14158
         Item               Value     Threshold  Converged?
 Maximum Force            0.000032     0.000450     YES
 RMS     Force            0.000017     0.000300     YES
 Maximum Displacement     0.000200     0.001800     YES
 RMS     Displacement     0.000112     0.001200     YES
 Predicted change in Energy=-8.011307D-09
 Optimization completed.
    -- Stationary point found.
                           ----------------------------
                           !   Optimized Parameters   !
                           ! (Angstroms and Degrees)  !
 --------------------------                            --------------------------
 ! Name  Definition              Value          Derivative Info.                !
 --------------------------------------------------------------------------------
 ! R1    R(1,2)                  1.3408         -DE/DX =    0.0                 !
 ! R2    R(1,5)                  1.7179         -DE/DX =    0.0                 !
 ! R3    R(1,6)                  1.7179         -DE/DX =    0.0                 !
 ! R4    R(2,3)                  1.7179         -DE/DX =    0.0                 !
 ! R5    R(2,4)                  1.7179         -DE/DX =    0.0                 !
 ! A1    A(2,1,5)              122.318          -DE/DX =    0.0                 !
 ! A2    A(2,1,6)              122.3178         -DE/DX =    0.0                 !
 ! A3    A(5,1,6)              115.3642         -DE/DX =    0.0                 !
 ! A4    A(1,2,3)              122.3184         -DE/DX =    0.0                 !
 ! A5    A(1,2,4)              122.3174         -DE/DX =    0.0                 !
 ! A6    A(3,2,4)              115.3642         -DE/DX =    0.0                 !
 ! D1    D(5,1,2,3)           -180.0063         -DE/DX =    0.0                 !
 ! D2    D(5,1,2,4)             -0.0007         -DE/DX =    0.0                 !
 ! D3    D(6,1,2,3)              0.0007         -DE/DX =    0.0                 !
 ! D4    D(6,1,2,4)            180.0063         -DE/DX =    0.0                 !
 --------------------------------------------------------------------------------
 GradGradGradGradGradGradGradGradGradGradGradGradGradGradGradGradGradGrad

 1\1\GINC-KATANA3\Freq\RM062X\6-31+G(d)\C2Cl4\Z5358697\14-Mar-2025\0\\#
 N Geom=AllCheck Guess=TCheck SCRF=Check GenChk RM062X/6-31+G(d) Freq\\
 1,1,2,2-tetrachloroethylene\\0,1\C,0.2015177932,0.6387299969,-0.029026
 2997\C,-0.2015074321,-0.6386950276,0.0291660895\Cl,0.9056128328,-1.952
 2289675,0.0229079586\Cl,-1.8607954922,-1.0752162393,0.1150049523\Cl,-0
 .9056206753,1.952253859,-0.0229275543\Cl,1.8607929736,1.0752563785,-0.
 1150251463\\Version=ES64L-G09RevD.01\State=1-A\HF=-1916.8004312\RMSD=2
 .372e-09\RMSF=1.295e-05\ZeroPoint=0.0157064\Thermal=0.0221933\Dipole=0
 .0000086,-0.0000039,-0.0000146\DipoleDeriv=0.9681163,-0.1341316,-0.039
 6249,-0.1341255,0.590373,-0.0144079,-0.0396574,-0.0145102,-0.0410907,0
 .9681176,-0.1341234,-0.0396035,-0.1341256,0.5903894,-0.0143394,-0.0395
 749,-0.0142491,-0.0411064,-0.3212435,0.3416263,0.0039967,0.2569178,-0.
 4587865,0.004159,0.0067065,0.0004397,0.0213357,-0.6468737,-0.2075009,0
 .0356168,-0.1227918,-0.1315989,0.0102122,0.0328839,0.0138584,0.0197666
 ,-0.3212495,0.3416307,0.0039877,0.2569176,-0.4587794,0.0041644,0.00667
 49,0.0005392,0.0213319,-0.6468672,-0.207501,0.0356272,-0.1227924,-0.13
 15977,0.0102117,0.032967,0.013922,0.0197629\Polar=82.3488562,1.6751495
 ,87.3301082,-1.8843215,-1.5760711,40.2877203\PG=C01 [X(C2Cl4)]\NImag=0
 \\0.40755893,0.10764972,0.71623593,-0.01782296,-0.02508394,0.07752238,
 -0.10231785,-0.13391139,0.00664011,0.40755629,-0.13391125,-0.48457384,
 0.01973670,0.10764569,0.71624064,0.00663777,0.01972931,-0.04857373,-0.
 01781700,-0.02506580,0.07752071,-0.00446368,0.00620539,0.00022636,-0.0
 9072704,0.08743674,0.00031006,0.13301338,0.02553966,-0.03060717,0.0000
 3248,0.07091127,-0.14293644,0.00085343,-0.10687056,0.18338655,-0.00039
 023,0.00087375,0.00526244,0.00083756,0.00013466,-0.01945979,-0.0020260
 4,-0.00094667,0.00803734,-0.02795019,-0.00795716,0.00169245,-0.1820977
 2,-0.05941983,0.00894780,-0.04006343,0.01035133,0.00156892,0.24969230,
 -0.02729123,-0.00700884,0.00157440,-0.04289425,-0.05111452,0.00286799,
 0.01945034,0.00223069,-0.00079695,0.05955577,0.06613651,0.00231026,0.0
 0073702,0.00514986,0.00841950,0.00358424,-0.01989914,0.00127941,-0.000
 40225,0.00365409,-0.01238223,-0.00443541,0.00859809,-0.09072590,0.0874
 3459,0.00030544,-0.00446421,0.00620558,0.00022326,0.00033526,0.0003460
 0,0.00016747,0.00190551,-0.00656825,0.00004389,0.13301291,0.07090879,-
 0.14293121,0.00086525,0.02553982,-0.03060712,0.00003798,0.00034596,-0.
 00423408,0.00026156,-0.00027771,-0.00784029,0.00020037,-0.10686792,0.1
 8338187,0.00083115,0.00015035,-0.01946030,-0.00039255,0.00087418,0.005
 26249,0.00016730,0.00026177,0.00443175,-0.00015637,0.00047387,-0.00192
 588,-0.00201880,-0.00096250,0.00803781,-0.18210132,-0.05942116,0.00895
 861,-0.02794948,-0.00795692,0.00169811,0.00190550,-0.00027771,-0.00015
 768,-0.00148647,-0.00225237,0.00032917,-0.04006357,0.01035106,0.001569
 25,0.24969533,-0.04289569,-0.05111486,0.00287511,-0.02729115,-0.007008
 71,0.00157710,-0.00656787,-0.00783955,0.00047365,-0.00225240,-0.002403
 55,0.00031602,0.01945000,0.00223083,-0.00079767,0.05955710,0.06613583,
 0.00843401,0.00359350,-0.01990066,0.00231238,0.00073602,0.00514945,0.0
 0004291,0.00020125,-0.00192584,0.00032944,0.00031610,0.00442298,0.0012
 7874,-0.00040266,0.00365413,-0.01239747,-0.00444421,0.00859993\\0.0000
 0628,0.00002389,0.00000463,-0.00000370,-0.00002430,0.00000485,0.000000
 63,0.00002138,-0.00000292,0.00000878,0.00001814,-0.00000317,-0.0000020
 2,-0.00002120,-0.00000181,-0.00000998,-0.00001791,-0.00000157\\\@


 MOM AND DAD WENT TO ALPHA CENTAURI AND ALL
 I GOT WAS THIS DUMB T-SHIRT.
 Job cpu time:       0 days  0 hours  1 minutes  3.5 seconds.
 File lengths (MBytes):  RWF=    133 Int=      0 D2E=      0 Chk=      3 Scr=      2
 Normal termination of Gaussian 09 at Fri Mar 14 14:06:59 2025.
