 Entering Gaussian System, Link 0=g09
 Initial command:
 /apps/z_install_tree/linux-rocky8-ivybridge/gcc-12.2.0/gaussian-09-D.01-wczn3gur5lpur3omlkzwa2l5ecyxp5ef/g09/l1.exe "/srv/scratch/z5358697/gauss/Gau-2469785.inp" -scrdir="/srv/scratch/z5358697/gauss/"
 Entering Link 1 = /apps/z_install_tree/linux-rocky8-ivybridge/gcc-12.2.0/gaussian-09-D.01-wczn3gur5lpur3omlkzwa2l5ecyxp5ef/g09/l1.exe PID=   2469787.
  
 Copyright (c) 1988,1990,1992,1993,1995,1998,2003,2009,2013,
            Gaussian, Inc.  All Rights Reserved.
  
 This is part of the Gaussian(R) 09 program.  It is based on
 the Gaussian(R) 03 system (copyright 2003, Gaussian, Inc.),
 the Gaussian(R) 98 system (copyright 1998, Gaussian, Inc.),
 the Gaussian(R) 94 system (copyright 1995, Gaussian, Inc.),
 the Gaussian 92(TM) system (copyright 1992, Gaussian, Inc.),
 the Gaussian 90(TM) system (copyright 1990, Gaussian, Inc.),
 the Gaussian 88(TM) system (copyright 1988, Gaussian, Inc.),
 the Gaussian 86(TM) system (copyright 1986, Carnegie Mellon
 University), and the Gaussian 82(TM) system (copyright 1983,
 Carnegie Mellon University). Gaussian is a federally registered
 trademark of Gaussian, Inc.
  
 This software contains proprietary and confidential information,
 including trade secrets, belonging to Gaussian, Inc.
  
 This software is provided under written license and may be
 used, copied, transmitted, or stored only in accord with that
 written license.
  
 The following legend is applicable only to US Government
 contracts under FAR:
  
                    RESTRICTED RIGHTS LEGEND
  
 Use, reproduction and disclosure by the US Government is
 subject to restrictions as set forth in subparagraphs (a)
 and (c) of the Commercial Computer Software - Restricted
 Rights clause in FAR 52.227-19.
  
 Gaussian, Inc.
 340 Quinnipiac St., Bldg. 40, Wallingford CT 06492
  
  
 ---------------------------------------------------------------
 Warning -- This program may not be used in any manner that
 competes with the business of Gaussian, Inc. or will provide
 assistance to any competitor of Gaussian, Inc.  The licensee
 of this program is prohibited from giving any competitor of
 Gaussian, Inc. access to this program.  By using this program,
 the user acknowledges that Gaussian, Inc. is engaged in the
 business of creating and licensing software in the field of
 computational chemistry and represents and warrants to the
 licensee that it is not a competitor of Gaussian, Inc. and that
 it will not use this program in any manner prohibited above.
 ---------------------------------------------------------------
  

 Cite this work as:
 Gaussian 09, Revision D.01,
 M. J. Frisch, G. W. Trucks, H. B. Schlegel, G. E. Scuseria, 
 M. A. Robb, J. R. Cheeseman, G. Scalmani, V. Barone, B. Mennucci, 
 G. A. Petersson, H. Nakatsuji, M. Caricato, X. Li, H. P. Hratchian, 
 A. F. Izmaylov, J. Bloino, G. Zheng, J. L. Sonnenberg, M. Hada, 
 M. Ehara, K. Toyota, R. Fukuda, J. Hasegawa, M. Ishida, T. Nakajima, 
 Y. Honda, O. Kitao, H. Nakai, T. Vreven, J. A. Montgomery, Jr., 
 J. E. Peralta, F. Ogliaro, M. Bearpark, J. J. Heyd, E. Brothers, 
 K. N. Kudin, V. N. Staroverov, T. Keith, R. Kobayashi, J. Normand, 
 K. Raghavachari, A. Rendell, J. C. Burant, S. S. Iyengar, J. Tomasi, 
 M. Cossi, N. Rega, J. M. Millam, M. Klene, J. E. Knox, J. B. Cross, 
 V. Bakken, C. Adamo, J. Jaramillo, R. Gomperts, R. E. Stratmann, 
 O. Yazyev, A. J. Austin, R. Cammi, C. Pomelli, J. W. Ochterski, 
 R. L. Martin, K. Morokuma, V. G. Zakrzewski, G. A. Voth, 
 P. Salvador, J. J. Dannenberg, S. Dapprich, A. D. Daniels, 
 O. Farkas, J. B. Foresman, J. V. Ortiz, J. Cioslowski, 
 and D. J. Fox, Gaussian, Inc., Wallingford CT, 2013.
 
 ******************************************
 Gaussian 09:  ES64L-G09RevD.01 24-Apr-2013
                16-Mar-2025 
 ******************************************
 ---------------------------------
 #m062X/6-31+G(d) OPT Freq=noraman
 ---------------------------------
 1/14=-1,18=20,19=15,26=3,38=1/1,3;
 2/9=110,12=2,17=6,18=5,40=1/2;
 3/5=1,6=6,7=11,11=2,16=1,25=1,30=1,71=1,74=-55/1,2,3;
 4//1;
 5/5=2,38=5/2;
 6/7=2,8=2,9=2,10=2,28=1/1;
 7//1,2,3,16;
 1/14=-1,18=20,19=15,26=3/3(2);
 2/9=110/2;
 99//99;
 2/9=110/2;
 3/5=1,6=6,7=11,11=2,16=1,25=1,30=1,71=1,74=-55/1,2,3;
 4/5=5,16=3,69=1/1;
 5/5=2,38=5/2;
 7//1,2,3,16;
 1/14=-1,18=20,19=15,26=3/3(-5);
 2/9=110/2;
 6/7=2,8=2,9=2,10=2,19=2,28=1/1;
 99/9=1/99;
 -----------------------------
 1,3,5-triazinane-2,4,6-trione
 -----------------------------
 Symbolic Z-matrix:
 Charge =  0 Multiplicity = 1
 C                    -0.6629    1.1635    0.5052 
 O                    -1.2339    2.164     0.9397 
 N                    -0.4836    0.0076    1.2611 
 C                     0.15     -1.1556    0.8309 
 O                     0.2791   -2.1498    1.5456 
 N                     0.6254   -1.0981   -0.4769 
 C                     0.513    -0.0078   -1.3362 
 O                     0.9544   -0.0144   -2.4855 
 N                    -0.1414    1.0907   -0.7841 
 H                    -0.8471    0.0134    2.2098 
 H                     1.0955   -1.9242   -0.8357 
 H                    -0.2474    1.9113   -1.3737 
 

 GradGradGradGradGradGradGradGradGradGradGradGradGradGradGradGradGradGrad
 Berny optimization.
 Initialization pass.
                           ----------------------------
                           !    Initial Parameters    !
                           ! (Angstroms and Degrees)  !
 --------------------------                            --------------------------
 ! Name  Definition              Value          Derivative Info.                !
 --------------------------------------------------------------------------------
 ! R1    R(1,2)                  1.2312         estimate D2E/DX2                !
 ! R2    R(1,3)                  1.3927         estimate D2E/DX2                !
 ! R3    R(1,9)                  1.3927         estimate D2E/DX2                !
 ! R4    R(3,4)                  1.3927         estimate D2E/DX2                !
 ! R5    R(3,10)                 1.016          estimate D2E/DX2                !
 ! R6    R(4,5)                  1.2312         estimate D2E/DX2                !
 ! R7    R(4,6)                  1.3927         estimate D2E/DX2                !
 ! R8    R(6,7)                  1.3928         estimate D2E/DX2                !
 ! R9    R(6,11)                 1.016          estimate D2E/DX2                !
 ! R10   R(7,8)                  1.2312         estimate D2E/DX2                !
 ! R11   R(7,9)                  1.3928         estimate D2E/DX2                !
 ! R12   R(9,12)                 1.016          estimate D2E/DX2                !
 ! A1    A(2,1,3)              122.8619         estimate D2E/DX2                !
 ! A2    A(2,1,9)              122.8784         estimate D2E/DX2                !
 ! A3    A(3,1,9)              114.2597         estimate D2E/DX2                !
 ! A4    A(1,3,4)              125.7409         estimate D2E/DX2                !
 ! A5    A(1,3,10)             117.1304         estimate D2E/DX2                !
 ! A6    A(4,3,10)             117.1287         estimate D2E/DX2                !
 ! A7    A(3,4,5)              122.8766         estimate D2E/DX2                !
 ! A8    A(3,4,6)              114.2601         estimate D2E/DX2                !
 ! A9    A(5,4,6)              122.8633         estimate D2E/DX2                !
 ! A10   A(4,6,7)              125.7416         estimate D2E/DX2                !
 ! A11   A(4,6,11)             117.1298         estimate D2E/DX2                !
 ! A12   A(7,6,11)             117.1286         estimate D2E/DX2                !
 ! A13   A(6,7,8)              122.8758         estimate D2E/DX2                !
 ! A14   A(6,7,9)              114.2542         estimate D2E/DX2                !
 ! A15   A(8,7,9)              122.87           estimate D2E/DX2                !
 ! A16   A(1,9,7)              125.7434         estimate D2E/DX2                !
 ! A17   A(1,9,12)             117.1262         estimate D2E/DX2                !
 ! A18   A(7,9,12)             117.1304         estimate D2E/DX2                !
 ! D1    D(2,1,3,4)            179.9279         estimate D2E/DX2                !
 ! D2    D(2,1,3,10)            -0.0641         estimate D2E/DX2                !
 ! D3    D(9,1,3,4)             -0.058          estimate D2E/DX2                !
 ! D4    D(9,1,3,10)           179.95           estimate D2E/DX2                !
 ! D5    D(2,1,9,7)           -179.9483         estimate D2E/DX2                !
 ! D6    D(2,1,9,12)             0.0737         estimate D2E/DX2                !
 ! D7    D(3,1,9,7)              0.0375         estimate D2E/DX2                !
 ! D8    D(3,1,9,12)          -179.9405         estimate D2E/DX2                !
 ! D9    D(1,3,4,5)           -179.973          estimate D2E/DX2                !
 ! D10   D(1,3,4,6)              0.0381         estimate D2E/DX2                !
 ! D11   D(10,3,4,5)             0.0189         estimate D2E/DX2                !
 ! D12   D(10,3,4,6)          -179.9699         estimate D2E/DX2                !
 ! D13   D(3,4,6,7)              0.006          estimate D2E/DX2                !
 ! D14   D(3,4,6,11)          -179.9894         estimate D2E/DX2                !
 ! D15   D(5,4,6,7)           -179.9829         estimate D2E/DX2                !
 ! D16   D(5,4,6,11)             0.0218         estimate D2E/DX2                !
 ! D17   D(4,6,7,8)            179.9729         estimate D2E/DX2                !
 ! D18   D(4,6,7,9)             -0.0232         estimate D2E/DX2                !
 ! D19   D(11,6,7,8)            -0.0318         estimate D2E/DX2                !
 ! D20   D(11,6,7,9)           179.9722         estimate D2E/DX2                !
 ! D21   D(6,7,9,1)             -0.0004         estimate D2E/DX2                !
 ! D22   D(6,7,9,12)           179.9776         estimate D2E/DX2                !
 ! D23   D(8,7,9,1)           -179.9965         estimate D2E/DX2                !
 ! D24   D(8,7,9,12)            -0.0185         estimate D2E/DX2                !
 --------------------------------------------------------------------------------
 Trust Radius=3.00D-01 FncErr=1.00D-07 GrdErr=1.00D-06
 Number of steps in this run=     64 maximum allowed number of steps=    100.
 GradGradGradGradGradGradGradGradGradGradGradGradGradGradGradGradGradGrad

                          Input orientation:                          
 ---------------------------------------------------------------------
 Center     Atomic      Atomic             Coordinates (Angstroms)
 Number     Number       Type             X           Y           Z
 ---------------------------------------------------------------------
      1          6           0       -0.662900    1.163500    0.505200
      2          8           0       -1.233900    2.164000    0.939700
      3          7           0       -0.483600    0.007600    1.261100
      4          6           0        0.150000   -1.155600    0.830900
      5          8           0        0.279100   -2.149800    1.545600
      6          7           0        0.625400   -1.098100   -0.476900
      7          6           0        0.513000   -0.007800   -1.336200
      8          8           0        0.954400   -0.014400   -2.485500
      9          7           0       -0.141400    1.090700   -0.784100
     10          1           0       -0.847100    0.013400    2.209800
     11          1           0        1.095500   -1.924200   -0.835700
     12          1           0       -0.247400    1.911300   -1.373700
 ---------------------------------------------------------------------
                    Distance matrix (angstroms):
                    1          2          3          4          5
     1  C    0.000000
     2  O    1.231191   0.000000
     3  N    1.392709   2.305712   0.000000
     4  C    2.478934   3.598161   1.392679   0.000000
     5  O    3.598299   4.611416   2.305868   1.231218   0.000000
     6  N    2.781919   4.013110   2.339465   1.392714   2.305754
     7  C    2.478999   3.598346   2.781981   2.479019   3.598284
     8  O    3.598249   4.611516   4.013146   3.598320   4.611478
     9  N    1.392680   2.305865   2.339455   2.781906   4.013124
    10  H    2.064539   2.527419   1.015971   2.064494   2.527632
    11  H    3.797878   5.029068   3.259138   2.064527   2.527448
    12  H    2.064488   2.527619   3.259146   3.797903   5.029120
                    6          7          8          9         10
     6  N    0.000000
     7  C    1.392761   0.000000
     8  O    2.305888   1.231165   0.000000
     9  N    2.339487   1.392751   2.305816   0.000000
    10  H    3.259148   3.797952   5.029117   3.259145   0.000000
    11  H    1.015959   2.064557   2.527664   3.259173   4.099153
    12  H    3.259221   2.064597   2.527596   1.015996   4.099163
                   11         12
    11  H    0.000000
    12  H    4.099254   0.000000
 Stoichiometry    C3H3N3O3
 Framework group  C1[X(C3H3N3O3)]
 Deg. of freedom    30
 Full point group                 C1      NOp   1
 Largest Abelian subgroup         C1      NOp   1
 Largest concise Abelian subgroup C1      NOp   1
                         Standard orientation:                         
 ---------------------------------------------------------------------
 Center     Atomic      Atomic             Coordinates (Angstroms)
 Number     Number       Type             X           Y           Z
 ---------------------------------------------------------------------
      1          6           0        0.898659   -1.113920    0.000113
      2          8           0        1.671863   -2.072036   -0.000598
      3          7           0        1.334443    0.208853    0.000576
      4          6           0        0.515361    1.335201   -0.000043
      5          8           0        0.958570    2.483880   -0.000072
      6          7           0       -0.848097    1.051240   -0.000377
      7          6           0       -1.414075   -0.221337   -0.000027
      8          8           0       -2.630421   -0.411785    0.000138
      9          7           0       -0.486327   -1.260106    0.000210
     10          1           0        2.338193    0.365965    0.001314
     11          1           0       -1.486003    1.841966   -0.000998
     12          1           0       -0.852098   -2.207978    0.000823
 ---------------------------------------------------------------------
 Rotational constants (GHZ):      1.9918288      1.9917524      0.9958954
 Standard basis: 6-31+G(d) (6D, 7F)
 There are   177 symmetry adapted cartesian basis functions of A   symmetry.
 There are   177 symmetry adapted basis functions of A   symmetry.
   177 basis functions,   300 primitive gaussians,   177 cartesian basis functions
    33 alpha electrons       33 beta electrons
       nuclear repulsion energy       444.0205587935 Hartrees.
 NAtoms=   12 NActive=   12 NUniq=   12 SFac= 1.00D+00 NAtFMM=   60 NAOKFM=F Big=F
 Integral buffers will be    131072 words long.
 Raffenetti 2 integral format.
 Two-electron integral symmetry is turned on.
 One-electron integrals computed using PRISM.
 NBasis=   177 RedAO= T EigKep=  2.84D-04  NBF=   177
 NBsUse=   177 1.00D-06 EigRej= -1.00D+00 NBFU=   177
 ExpMin= 4.38D-02 ExpMax= 5.48D+03 ExpMxC= 8.25D+02 IAcc=2 IRadAn=         4 AccDes= 0.00D+00
 Harris functional with IExCor= 1009 and IRadAn=       4 diagonalized for initial guess.
 HarFok:  IExCor= 1009 AccDes= 0.00D+00 IRadAn=         4 IDoV= 1 UseB2=F ITyADJ=14
 ICtDFT=  3500011 ScaDFX=  1.000000  1.000000  1.000000  1.000000
 FoFCou: FMM=F IPFlag=           0 FMFlag=      100000 FMFlg1=           0
         NFxFlg=           0 DoJE=T BraDBF=F KetDBF=T FulRan=T
         wScrn=  0.000000 ICntrl=     500 IOpCl=  0 I1Cent=   200000004 NGrid=           0
         NMat0=    1 NMatS0=      1 NMatT0=    0 NMatD0=    1 NMtDS0=    0 NMtDT0=    0
 Petite list used in FoFCou.
 Requested convergence on RMS density matrix=1.00D-08 within 128 cycles.
 Requested convergence on MAX density matrix=1.00D-06.
 Requested convergence on             energy=1.00D-06.
 No special actions if energy rises.
 SCF Done:  E(RM062X) =  -505.955409346     A.U. after   12 cycles
            NFock= 12  Conv=0.27D-08     -V/T= 2.0090

 **********************************************************************

            Population analysis using the SCF density.

 **********************************************************************

 Orbital symmetries:
       Occupied  (A) (A) (A) (A) (A) (A) (A) (A) (A) (A) (A) (A)
                 (A) (A) (A) (A) (A) (A) (A) (A) (A) (A) (A) (A)
                 (A) (A) (A) (A) (A) (A) (A) (A) (A)
       Virtual   (A) (A) (A) (A) (A) (A) (A) (A) (A) (A) (A) (A)
                 (A) (A) (A) (A) (A) (A) (A) (A) (A) (A) (A) (A)
                 (A) (A) (A) (A) (A) (A) (A) (A) (A) (A) (A) (A)
                 (A) (A) (A) (A) (A) (A) (A) (A) (A) (A) (A) (A)
                 (A) (A) (A) (A) (A) (A) (A) (A) (A) (A) (A) (A)
                 (A) (A) (A) (A) (A) (A) (A) (A) (A) (A) (A) (A)
                 (A) (A) (A) (A) (A) (A) (A) (A) (A) (A) (A) (A)
                 (A) (A) (A) (A) (A) (A) (A) (A) (A) (A) (A) (A)
                 (A) (A) (A) (A) (A) (A) (A) (A) (A) (A) (A) (A)
                 (A) (A) (A) (A) (A) (A) (A) (A) (A) (A) (A) (A)
                 (A) (A) (A) (A) (A) (A) (A) (A) (A) (A) (A) (A)
                 (A) (A) (A) (A) (A) (A) (A) (A) (A) (A) (A) (A)
 The electronic state is 1-A.
 Alpha  occ. eigenvalues --  -19.66819 -19.66817 -19.66817 -14.86068 -14.86067
 Alpha  occ. eigenvalues --  -14.86066 -10.75188 -10.75187 -10.75186  -1.25070
 Alpha  occ. eigenvalues --   -1.21185  -1.21184  -1.12072  -1.06971  -1.06970
 Alpha  occ. eigenvalues --   -0.80769  -0.80766  -0.75616  -0.71780  -0.61624
 Alpha  occ. eigenvalues --   -0.61514  -0.61512  -0.57745  -0.54696  -0.54696
 Alpha  occ. eigenvalues --   -0.53211  -0.53210  -0.41773  -0.41772  -0.39115
 Alpha  occ. eigenvalues --   -0.39114  -0.38503  -0.37561
 Alpha virt. eigenvalues --   -0.00752  -0.00164  -0.00162   0.01832   0.01833
 Alpha virt. eigenvalues --    0.02465   0.05593   0.05595   0.05871   0.07852
 Alpha virt. eigenvalues --    0.07861   0.09575   0.09700   0.11332   0.11350
 Alpha virt. eigenvalues --    0.11750   0.15403   0.15406   0.16957   0.16965
 Alpha virt. eigenvalues --    0.18499   0.19297   0.19298   0.21496   0.22628
 Alpha virt. eigenvalues --    0.23565   0.23568   0.26196   0.26295   0.26297
 Alpha virt. eigenvalues --    0.27129   0.28036   0.28043   0.28198   0.30760
 Alpha virt. eigenvalues --    0.31448   0.31457   0.33412   0.33421   0.34593
 Alpha virt. eigenvalues --    0.34597   0.35505   0.37723   0.39195   0.39196
 Alpha virt. eigenvalues --    0.45168   0.45185   0.52797   0.53678   0.53683
 Alpha virt. eigenvalues --    0.55992   0.71869   0.71871   0.74776   0.75407
 Alpha virt. eigenvalues --    0.80810   0.84070   0.84072   0.87242   0.87247
 Alpha virt. eigenvalues --    0.93723   0.93728   0.98793   1.00576   1.00582
 Alpha virt. eigenvalues --    1.03263   1.12847   1.12852   1.17867   1.18230
 Alpha virt. eigenvalues --    1.21993   1.26144   1.26149   1.27206   1.29220
 Alpha virt. eigenvalues --    1.29941   1.29942   1.33541   1.35691   1.35695
 Alpha virt. eigenvalues --    1.38092   1.38242   1.38248   1.41862   1.41864
 Alpha virt. eigenvalues --    1.42369   1.45740   1.45743   1.49364   1.49378
 Alpha virt. eigenvalues --    1.50368   1.54134   1.54143   1.67485   1.80614
 Alpha virt. eigenvalues --    1.80617   1.81591   1.81592   1.82269   1.82540
 Alpha virt. eigenvalues --    1.86060   1.89884   1.89895   1.97860   1.99215
 Alpha virt. eigenvalues --    1.99215   2.00123   2.00467   2.00471   2.11942
 Alpha virt. eigenvalues --    2.11962   2.20424   2.20428   2.28324   2.29796
 Alpha virt. eigenvalues --    2.29800   2.35291   2.36742   2.36758   2.58726
 Alpha virt. eigenvalues --    2.58735   2.63557   2.69631   2.70719   2.70732
 Alpha virt. eigenvalues --    2.79484   2.84334   2.84349   2.98473   2.98488
 Alpha virt. eigenvalues --    3.10046   3.20322   3.20331   3.23925   3.42045
 Alpha virt. eigenvalues --    4.09727   4.15957   4.15975   4.36347   4.36362
 Alpha virt. eigenvalues --    4.38798   4.56198   4.75491   4.75497
          Condensed to atoms (all electrons):
               1          2          3          4          5          6
     1  C    4.805813   0.386728   0.180621  -0.183871   0.023116   0.037537
     2  O    0.386728   8.235762  -0.091965   0.023064   0.001704  -0.000831
     3  N    0.180621  -0.091965   7.615589   0.180765  -0.092033  -0.183076
     4  C   -0.183871   0.023064   0.180765   4.805395   0.386444   0.181048
     5  O    0.023116   0.001704  -0.092033   0.386444   8.236110  -0.091937
     6  N    0.037537  -0.000831  -0.183076   0.181048  -0.091937   7.615248
     7  C   -0.183949   0.023046   0.037620  -0.183628   0.023065   0.180704
     8  O    0.023068   0.001704  -0.000828   0.023050   0.001701  -0.091925
     9  N    0.180779  -0.091986  -0.182939   0.037411  -0.000815  -0.183017
    10  H   -0.007888   0.000450   0.261869  -0.007927   0.000458   0.011078
    11  H   -0.003451   0.000054   0.011096  -0.007933   0.000446   0.261834
    12  H   -0.007949   0.000445   0.011094  -0.003457   0.000054   0.011094
               7          8          9         10         11         12
     1  C   -0.183949   0.023068   0.180779  -0.007888  -0.003451  -0.007949
     2  O    0.023046   0.001704  -0.091986   0.000450   0.000054   0.000445
     3  N    0.037620  -0.000828  -0.182939   0.261869   0.011096   0.011094
     4  C   -0.183628   0.023050   0.037411  -0.007927  -0.007933  -0.003457
     5  O    0.023065   0.001701  -0.000815   0.000458   0.000446   0.000054
     6  N    0.180704  -0.091925  -0.183017   0.011078   0.261834   0.011094
     7  C    4.805306   0.386876   0.180985  -0.003461  -0.007892  -0.007880
     8  O    0.386876   8.235563  -0.092010   0.000054   0.000450   0.000442
     9  N    0.180985  -0.092010   7.615056   0.011081   0.011083   0.261838
    10  H   -0.003461   0.000054   0.011081   0.247941  -0.000052  -0.000052
    11  H   -0.007892   0.000450   0.011083  -0.000052   0.247887  -0.000052
    12  H   -0.007880   0.000442   0.261838  -0.000052  -0.000052   0.248022
 Mulliken charges:
               1
     1  C    0.749447
     2  O   -0.488175
     3  N   -0.747814
     4  C    0.749639
     5  O   -0.488312
     6  N   -0.747757
     7  C    0.749209
     8  O   -0.488146
     9  N   -0.747467
    10  H    0.486448
    11  H    0.486529
    12  H    0.486401
 Sum of Mulliken charges =   0.00000
 Mulliken charges with hydrogens summed into heavy atoms:
               1
     1  C    0.749447
     2  O   -0.488175
     3  N   -0.261366
     4  C    0.749639
     5  O   -0.488312
     6  N   -0.261228
     7  C    0.749209
     8  O   -0.488146
     9  N   -0.261066
 Electronic spatial extent (au):  <R**2>=           1060.7500
 Charge=              0.0000 electrons
 Dipole moment (field-independent basis, Debye):
    X=             -0.0007    Y=             -0.0005    Z=              0.0022  Tot=              0.0024
 Quadrupole moment (field-independent basis, Debye-Ang):
   XX=            -58.6836   YY=            -58.6843   ZZ=            -50.3968
   XY=             -0.0007   XZ=              0.0083   YZ=             -0.0073
 Traceless Quadrupole moment (field-independent basis, Debye-Ang):
   XX=             -2.7620   YY=             -2.7627   ZZ=              5.5247
   XY=             -0.0007   XZ=              0.0083   YZ=             -0.0073
 Octapole moment (field-independent basis, Debye-Ang**2):
  XXX=             36.6763  YYY=            -18.4443  ZZZ=             -0.0011  XYY=            -36.6836
  XXY=             18.4392  XXZ=              0.0107  XZZ=             -0.0012  YZZ=             -0.0006
  YYZ=              0.0092  XYZ=              0.0045
 Hexadecapole moment (field-independent basis, Debye-Ang**3):
 XXXX=           -686.8030 YYYY=           -686.8007 ZZZZ=            -46.1803 XXXY=             -0.0070
 XXXZ=              0.0498 YYYX=             -0.0047 YYYZ=             -0.0391 ZZZX=             -0.0012
 ZZZY=              0.0000 XXYY=           -228.9353 XXZZ=           -112.3303 YYZZ=           -112.3304
 XXYZ=             -0.0113 YYXZ=              0.0131 ZZXY=             -0.0002
 N-N= 4.440205587935D+02 E-N=-2.070294931262D+03  KE= 5.014355278329D+02
 Calling FoFJK, ICntrl=      2127 FMM=F ISym2X=0 I1Cent= 0 IOpClX= 0 NMat=1 NMatS=1 NMatT=0.
 ***** Axes restored to original set *****
 -------------------------------------------------------------------
 Center     Atomic                   Forces (Hartrees/Bohr)
 Number     Number              X              Y              Z
 -------------------------------------------------------------------
      1        6          -0.016213033    0.028215393    0.012397670
      2        8           0.018227691   -0.031785653   -0.013906799
      3        7           0.003965932   -0.000092844   -0.010289898
      4        6           0.003616574   -0.028050937    0.020335338
      5        8          -0.004112095    0.031631807   -0.022751282
      6        7          -0.005120004    0.008920489    0.003923835
      7        6           0.012527317   -0.000238740   -0.032494089
      8        8          -0.014068314    0.000231156    0.036580262
      9        7           0.001182289   -0.008798142    0.006267274
     10        1           0.000677390   -0.000041570   -0.001803661
     11        1          -0.000856240    0.001521508    0.000655680
     12        1           0.000172493   -0.001512467    0.001085670
 -------------------------------------------------------------------
 Cartesian Forces:  Max     0.036580262 RMS     0.015471955

 GradGradGradGradGradGradGradGradGradGradGradGradGradGradGradGradGradGrad
 Berny optimization.
 FormGI is forming the generalized inverse of G from B-inverse, IUseBI=4.
 Internal  Forces:  Max     0.039192928 RMS     0.009724147
 Search for a local minimum.
 Step number   1 out of a maximum of   64
 All quantities printed in internal units (Hartrees-Bohrs-Radians)
 Mixed Optimization -- RFO/linear search
 Second derivative matrix not updated -- first step.
 ITU=  0
     Eigenvalues ---    0.01788   0.01788   0.01788   0.01788   0.01788
     Eigenvalues ---    0.01788   0.01788   0.01788   0.01789   0.16000
     Eigenvalues ---    0.16000   0.16000   0.23392   0.23393   0.23500
     Eigenvalues ---    0.25000   0.25000   0.25000   0.42722   0.42725
     Eigenvalues ---    0.44983   0.44987   0.44989   0.46844   0.46847
     Eigenvalues ---    0.46852   0.46854   0.90581   0.90592   0.90603
 RFO step:  Lambda=-6.22042039D-03 EMin= 1.78759820D-02
 Linear search not attempted -- first point.
 Iteration  1 RMS(Cart)=  0.01602268 RMS(Int)=  0.00003161
 Iteration  2 RMS(Cart)=  0.00003317 RMS(Int)=  0.00000029
 Iteration  3 RMS(Cart)=  0.00000000 RMS(Int)=  0.00000029
 Variable       Old X    -DE/DX   Delta X   Delta X   Delta X     New X
                                 (Linear)    (Quad)   (Total)
    R1        2.32661  -0.03919   0.00000  -0.04297  -0.04297   2.28365
    R2        2.63184  -0.00846   0.00000  -0.01782  -0.01782   2.61402
    R3        2.63178  -0.00844   0.00000  -0.01778  -0.01778   2.61401
    R4        2.63178  -0.00856   0.00000  -0.01804  -0.01804   2.61375
    R5        1.91991  -0.00193   0.00000  -0.00422  -0.00422   1.91568
    R6        2.32666  -0.03918   0.00000  -0.04296  -0.04296   2.28370
    R7        2.63185  -0.00846   0.00000  -0.01782  -0.01782   2.61403
    R8        2.63194  -0.00844   0.00000  -0.01779  -0.01779   2.61415
    R9        1.91988  -0.00186   0.00000  -0.00409  -0.00409   1.91580
   R10        2.32657  -0.03919   0.00000  -0.04296  -0.04296   2.28360
   R11        2.63192  -0.00848   0.00000  -0.01787  -0.01787   2.61405
   R12        1.91995  -0.00187   0.00000  -0.00410  -0.00410   1.91586
    A1        2.14435   0.00135   0.00000   0.00559   0.00559   2.14994
    A2        2.14463   0.00115   0.00000   0.00480   0.00480   2.14943
    A3        1.99421  -0.00251   0.00000  -0.01039  -0.01039   1.98382
    A4        2.19459   0.00255   0.00000   0.01056   0.01056   2.20515
    A5        2.04431  -0.00124   0.00000  -0.00506  -0.00506   2.03925
    A6        2.04428  -0.00131   0.00000  -0.00550  -0.00550   2.03878
    A7        2.14460   0.00130   0.00000   0.00540   0.00540   2.15000
    A8        1.99422  -0.00255   0.00000  -0.01060  -0.01060   1.98362
    A9        2.14437   0.00125   0.00000   0.00520   0.00520   2.14957
   A10        2.19461   0.00255   0.00000   0.01057   0.01057   2.20517
   A11        2.04430  -0.00126   0.00000  -0.00517  -0.00517   2.03913
   A12        2.04428  -0.00129   0.00000  -0.00539  -0.00539   2.03888
   A13        2.14459   0.00131   0.00000   0.00541   0.00541   2.15000
   A14        1.99411  -0.00252   0.00000  -0.01044  -0.01044   1.98367
   A15        2.14449   0.00121   0.00000   0.00503   0.00503   2.14952
   A16        2.19464   0.00248   0.00000   0.01030   0.01030   2.20494
   A17        2.04424  -0.00126   0.00000  -0.00529  -0.00529   2.03895
   A18        2.04431  -0.00122   0.00000  -0.00501  -0.00501   2.03930
    D1        3.14033   0.00002   0.00000   0.00081   0.00081   3.14115
    D2       -0.00112   0.00002   0.00000   0.00094   0.00094  -0.00018
    D3       -0.00101   0.00001   0.00000   0.00021   0.00021  -0.00080
    D4        3.14072   0.00001   0.00000   0.00033   0.00033   3.14106
    D5       -3.14069  -0.00002   0.00000  -0.00070  -0.00070  -3.14139
    D6        0.00129  -0.00002   0.00000  -0.00092  -0.00092   0.00036
    D7        0.00065   0.00000   0.00000  -0.00010  -0.00009   0.00056
    D8       -3.14055  -0.00001   0.00000  -0.00032  -0.00032  -3.14087
    D9       -3.14112   0.00000   0.00000   0.00013   0.00013  -3.14099
   D10        0.00067   0.00000   0.00000  -0.00023  -0.00023   0.00043
   D11        0.00033   0.00000   0.00000   0.00001   0.00001   0.00034
   D12       -3.14107  -0.00001   0.00000  -0.00035  -0.00035  -3.14142
   D13        0.00010   0.00000   0.00000   0.00015   0.00014   0.00025
   D14       -3.14141   0.00000   0.00000   0.00009   0.00009  -3.14132
   D15       -3.14129   0.00000   0.00000  -0.00022  -0.00022  -3.14151
   D16        0.00038  -0.00001   0.00000  -0.00028  -0.00028   0.00010
   D17        3.14112   0.00000   0.00000   0.00021   0.00021   3.14133
   D18       -0.00040   0.00000   0.00000  -0.00004  -0.00004  -0.00045
   D19       -0.00055   0.00001   0.00000   0.00027   0.00027  -0.00028
   D20        3.14111   0.00000   0.00000   0.00002   0.00002   3.14112
   D21       -0.00001   0.00000   0.00000   0.00001   0.00001   0.00000
   D22        3.14120   0.00000   0.00000   0.00024   0.00024   3.14144
   D23       -3.14153  -0.00001   0.00000  -0.00024  -0.00025   3.14141
   D24       -0.00032   0.00000   0.00000  -0.00002  -0.00002  -0.00034
         Item               Value     Threshold  Converged?
 Maximum Force            0.039193     0.000450     NO 
 RMS     Force            0.009724     0.000300     NO 
 Maximum Displacement     0.050488     0.001800     NO 
 RMS     Displacement     0.016043     0.001200     NO 
 Predicted change in Energy=-3.136622D-03
 GradGradGradGradGradGradGradGradGradGradGradGradGradGradGradGradGradGrad

                          Input orientation:                          
 ---------------------------------------------------------------------
 Center     Atomic      Atomic             Coordinates (Angstroms)
 Number     Number       Type             X           Y           Z
 ---------------------------------------------------------------------
      1          6           0       -0.660188    1.158614    0.503091
      2          8           0       -1.220037    2.141055    0.929402
      3          7           0       -0.478744    0.007414    1.248265
      4          6           0        0.149460   -1.150820    0.827650
      5          8           0        0.276067   -2.126770    1.529024
      6          7           0        0.619105   -1.086892   -0.471898
      7          6           0        0.510923   -0.007745   -1.330612
      8          8           0        0.943927   -0.014170   -2.458783
      9          7           0       -0.139988    1.079663   -0.776205
     10          1           0       -0.841666    0.012920    2.194794
     11          1           0        1.088294   -1.911153   -0.829999
     12          1           0       -0.246051    1.898486   -1.364529
 ---------------------------------------------------------------------
                    Distance matrix (angstroms):
                    1          2          3          4          5
     1  C    0.000000
     2  O    1.208454   0.000000
     3  N    1.383281   2.281143   0.000000
     4  C    2.468675   3.566835   1.383135   0.000000
     5  O    3.566912   4.562039   2.281076   1.208484   0.000000
     6  N    2.762154   3.970608   2.315543   1.383285   2.280945
     7  C    2.468676   3.566683   2.762295   2.468880   3.566924
     8  O    3.566694   4.561528   3.970725   3.567042   4.561987
     9  N    1.383272   2.280824   2.315805   2.762460   3.970944
    10  H    2.051196   2.504663   1.013736   2.050781   2.504166
    11  H    3.775949   4.984403   3.233526   2.051174   2.504235
    12  H    2.051079   2.503919   3.233727   3.776287   4.984771
                    6          7          8          9         10
     6  N    0.000000
     7  C    1.383348   0.000000
     8  O    2.281218   1.208430   0.000000
     9  N    2.315769   1.383296   2.280879   0.000000
    10  H    3.233370   3.776031   4.984461   3.233748   0.000000
    11  H    1.013795   2.051081   2.504461   3.233660   4.071385
    12  H    3.233848   2.051311   2.504335   1.013827   4.071718
                   11         12
    11  H    0.000000
    12  H    4.071800   0.000000
 Stoichiometry    C3H3N3O3
 Framework group  C1[X(C3H3N3O3)]
 Deg. of freedom    30
 Full point group                 C1      NOp   1
 Largest Abelian subgroup         C1      NOp   1
 Largest concise Abelian subgroup C1      NOp   1
                         Standard orientation:                         
 ---------------------------------------------------------------------
 Center     Atomic      Atomic             Coordinates (Angstroms)
 Number     Number       Type             X           Y           Z
 ---------------------------------------------------------------------
      1          6           0       -0.682541   -1.251186   -0.000104
      2          8           0       -1.261501   -2.311925   -0.000273
      3          7           0        0.696368   -1.141302    0.000357
      4          6           0        1.425007    0.034347    0.000078
      5          8           0        2.633132    0.063792   -0.000096
      6          7           0        0.640366    1.173564   -0.000198
      7          6           0       -0.742308    1.216767    0.000064
      8          8           0       -1.371839    2.248267    0.000059
      9          7           0       -1.336648   -0.032340    0.000094
     10          1           0        1.224483   -2.006608    0.000722
     11          1           0        1.125803    2.063581   -0.000655
     12          1           0       -2.350174   -0.057064    0.000424
 ---------------------------------------------------------------------
 Rotational constants (GHZ):      2.0307205      2.0301989      1.0152299
 Standard basis: 6-31+G(d) (6D, 7F)
 There are   177 symmetry adapted cartesian basis functions of A   symmetry.
 There are   177 symmetry adapted basis functions of A   symmetry.
   177 basis functions,   300 primitive gaussians,   177 cartesian basis functions
    33 alpha electrons       33 beta electrons
       nuclear repulsion energy       448.4045970594 Hartrees.
 NAtoms=   12 NActive=   12 NUniq=   12 SFac= 1.00D+00 NAtFMM=   60 NAOKFM=F Big=F
 Integral buffers will be    131072 words long.
 Raffenetti 2 integral format.
 Two-electron integral symmetry is turned on.
 One-electron integrals computed using PRISM.
 NBasis=   177 RedAO= T EigKep=  2.80D-04  NBF=   177
 NBsUse=   177 1.00D-06 EigRej= -1.00D+00 NBFU=   177
 Initial guess from the checkpoint file:  "/srv/scratch/z5358697/gauss/Gau-2469787.chk"
 B after Tr=     0.000000    0.000000    0.000000
         Rot=    0.831417    0.000000    0.000000    0.555649 Ang= -67.51 deg.
 ExpMin= 4.38D-02 ExpMax= 5.48D+03 ExpMxC= 8.25D+02 IAcc=2 IRadAn=         4 AccDes= 0.00D+00
 Harris functional with IExCor= 1009 and IRadAn=       4 diagonalized for initial guess.
 HarFok:  IExCor= 1009 AccDes= 0.00D+00 IRadAn=         4 IDoV= 1 UseB2=F ITyADJ=14
 ICtDFT=  3500011 ScaDFX=  1.000000  1.000000  1.000000  1.000000
 FoFCou: FMM=F IPFlag=           0 FMFlag=      100000 FMFlg1=           0
         NFxFlg=           0 DoJE=T BraDBF=F KetDBF=T FulRan=T
         wScrn=  0.000000 ICntrl=     500 IOpCl=  0 I1Cent=   200000004 NGrid=           0
         NMat0=    1 NMatS0=      1 NMatT0=    0 NMatD0=    1 NMtDS0=    0 NMtDT0=    0
 Petite list used in FoFCou.
 Requested convergence on RMS density matrix=1.00D-08 within 128 cycles.
 Requested convergence on MAX density matrix=1.00D-06.
 Requested convergence on             energy=1.00D-06.
 No special actions if energy rises.
 SCF Done:  E(RM062X) =  -505.958627518     A.U. after   11 cycles
            NFock= 11  Conv=0.18D-08     -V/T= 2.0081
 Calling FoFJK, ICntrl=      2127 FMM=F ISym2X=0 I1Cent= 0 IOpClX= 0 NMat=1 NMatS=1 NMatT=0.
 ***** Axes restored to original set *****
 -------------------------------------------------------------------
 Center     Atomic                   Forces (Hartrees/Bohr)
 Number     Number              X              Y              Z
 -------------------------------------------------------------------
      1        6          -0.003432065    0.006064567    0.002714114
      2        8           0.000903865   -0.001603663   -0.000695837
      3        7          -0.000113623   -0.000081458    0.000375531
      4        6           0.000828104   -0.006105222    0.004213289
      5        8          -0.000216270    0.001636588   -0.001124693
      6        7           0.000134491   -0.000197643   -0.000124750
      7        6           0.002597525   -0.000053859   -0.006816503
      8        8          -0.000637184    0.000026900    0.001666178
      9        7          -0.000046270    0.000357279   -0.000254978
     10        1          -0.000078920    0.000038978    0.000130596
     11        1           0.000071767   -0.000120373   -0.000040527
     12        1          -0.000011420    0.000037906   -0.000042419
 -------------------------------------------------------------------
 Cartesian Forces:  Max     0.006816503 RMS     0.002213431

 GradGradGradGradGradGradGradGradGradGradGradGradGradGradGradGradGradGrad
 Berny optimization.
 Using GEDIIS/GDIIS optimizer.
 FormGI is forming the generalized inverse of G from B-inverse, IUseBI=4.
 Internal  Forces:  Max     0.003105707 RMS     0.001206925
 Search for a local minimum.
 Step number   2 out of a maximum of   64
 All quantities printed in internal units (Hartrees-Bohrs-Radians)
 Mixed Optimization -- RFO/linear search
 Update second derivatives using D2CorX and points    1    2
 DE= -3.22D-03 DEPred=-3.14D-03 R= 1.03D+00
 TightC=F SS=  1.41D+00  RLast= 9.22D-02 DXNew= 5.0454D-01 2.7647D-01
 Trust test= 1.03D+00 RLast= 9.22D-02 DXMaxT set to 3.00D-01
 ITU=  1  0
 Use linear search instead of GDIIS.
     Eigenvalues ---    0.01788   0.01788   0.01788   0.01788   0.01788
     Eigenvalues ---    0.01788   0.01788   0.01788   0.01789   0.16000
     Eigenvalues ---    0.16000   0.16000   0.22686   0.23383   0.23383
     Eigenvalues ---    0.25000   0.25000   0.25000   0.42676   0.42679
     Eigenvalues ---    0.44974   0.44986   0.44989   0.46844   0.46851
     Eigenvalues ---    0.46853   0.51455   0.85875   0.90586   0.90605
 RFO step:  Lambda=-1.81373312D-04 EMin= 1.78760005D-02
 Quartic linear search produced a step of  0.00328.
 Iteration  1 RMS(Cart)=  0.00279233 RMS(Int)=  0.00000558
 Iteration  2 RMS(Cart)=  0.00000597 RMS(Int)=  0.00000058
 Iteration  3 RMS(Cart)=  0.00000000 RMS(Int)=  0.00000058
 Variable       Old X    -DE/DX   Delta X   Delta X   Delta X     New X
                                 (Linear)    (Quad)   (Total)
    R1        2.28365  -0.00197  -0.00014  -0.00328  -0.00342   2.28023
    R2        2.61402   0.00306  -0.00006   0.00611   0.00605   2.62008
    R3        2.61401   0.00311  -0.00006   0.00620   0.00614   2.62015
    R4        2.61375   0.00308  -0.00006   0.00613   0.00607   2.61981
    R5        1.91568   0.00015  -0.00001   0.00023   0.00021   1.91590
    R6        2.28370  -0.00200  -0.00014  -0.00331  -0.00345   2.28025
    R7        2.61403   0.00304  -0.00006   0.00605   0.00600   2.62003
    R8        2.61415   0.00304  -0.00006   0.00606   0.00600   2.62015
    R9        1.91580   0.00015  -0.00001   0.00022   0.00021   1.91600
   R10        2.28360  -0.00178  -0.00014  -0.00308  -0.00322   2.28039
   R11        2.61405   0.00306  -0.00006   0.00610   0.00604   2.62009
   R12        1.91586   0.00006  -0.00001   0.00002   0.00001   1.91586
    A1        2.14994   0.00057   0.00002   0.00255   0.00257   2.15250
    A2        2.14943   0.00054   0.00002   0.00242   0.00243   2.15186
    A3        1.98382  -0.00111  -0.00003  -0.00497  -0.00500   1.97882
    A4        2.20515   0.00109   0.00003   0.00491   0.00494   2.21009
    A5        2.03925  -0.00060  -0.00002  -0.00279  -0.00281   2.03644
    A6        2.03878  -0.00049  -0.00002  -0.00211  -0.00213   2.03665
    A7        2.15000   0.00049   0.00002   0.00224   0.00226   2.15226
    A8        1.98362  -0.00110  -0.00003  -0.00498  -0.00501   1.97861
    A9        2.14957   0.00061   0.00002   0.00273   0.00275   2.15232
   A10        2.20517   0.00114   0.00003   0.00511   0.00515   2.21032
   A11        2.03913  -0.00059  -0.00002  -0.00269  -0.00270   2.03643
   A12        2.03888  -0.00055  -0.00002  -0.00243  -0.00244   2.03644
   A13        2.15000   0.00057   0.00002   0.00256   0.00258   2.15257
   A14        1.98367  -0.00113  -0.00003  -0.00510  -0.00513   1.97854
   A15        2.14952   0.00056   0.00002   0.00254   0.00255   2.15207
   A16        2.20494   0.00112   0.00003   0.00503   0.00506   2.21000
   A17        2.03895  -0.00054  -0.00002  -0.00239  -0.00241   2.03654
   A18        2.03930  -0.00058  -0.00002  -0.00263  -0.00265   2.03665
    D1        3.14115   0.00000   0.00000  -0.00020  -0.00020   3.14095
    D2       -0.00018   0.00000   0.00000  -0.00022  -0.00022  -0.00040
    D3       -0.00080   0.00001   0.00000   0.00060   0.00060  -0.00020
    D4        3.14106   0.00001   0.00000   0.00058   0.00058  -3.14155
    D5       -3.14139   0.00000   0.00000   0.00026   0.00026  -3.14113
    D6        0.00036   0.00000   0.00000   0.00019   0.00019   0.00055
    D7        0.00056  -0.00001   0.00000  -0.00054  -0.00054   0.00002
    D8       -3.14087  -0.00001   0.00000  -0.00061  -0.00061  -3.14149
    D9       -3.14099  -0.00001   0.00000  -0.00064  -0.00065   3.14155
   D10        0.00043   0.00000   0.00000  -0.00016  -0.00016   0.00027
   D11        0.00034  -0.00001   0.00000  -0.00062  -0.00063  -0.00028
   D12       -3.14142   0.00000   0.00000  -0.00014  -0.00014  -3.14156
   D13        0.00025  -0.00001   0.00000  -0.00044  -0.00044  -0.00019
   D14       -3.14132  -0.00001   0.00000  -0.00036  -0.00036   3.14151
   D15       -3.14151   0.00000   0.00000   0.00005   0.00004  -3.14147
   D16        0.00010   0.00000   0.00000   0.00013   0.00013   0.00023
   D17        3.14133   0.00000   0.00000   0.00010   0.00010   3.14143
   D18       -0.00045   0.00001   0.00000   0.00050   0.00050   0.00005
   D19       -0.00028   0.00000   0.00000   0.00001   0.00001  -0.00027
   D20        3.14112   0.00001   0.00000   0.00041   0.00041   3.14153
   D21        0.00000   0.00000   0.00000   0.00004   0.00004   0.00005
   D22        3.14144   0.00000   0.00000   0.00011   0.00012   3.14155
   D23        3.14141   0.00001   0.00000   0.00044   0.00044  -3.14134
   D24       -0.00034   0.00001   0.00000   0.00051   0.00051   0.00017
         Item               Value     Threshold  Converged?
 Maximum Force            0.003106     0.000450     NO 
 RMS     Force            0.001207     0.000300     NO 
 Maximum Displacement     0.009245     0.001800     NO 
 RMS     Displacement     0.002791     0.001200     NO 
 Predicted change in Energy=-9.082336D-05
 GradGradGradGradGradGradGradGradGradGradGradGradGradGradGradGradGradGrad

                          Input orientation:                          
 ---------------------------------------------------------------------
 Center     Atomic      Atomic             Coordinates (Angstroms)
 Number     Number       Type             X           Y           Z
 ---------------------------------------------------------------------
      1          6           0       -0.662212    1.162827    0.505102
      2          8           0       -1.221331    2.143771    0.930690
      3          7           0       -0.479110    0.007304    1.249132
      4          6           0        0.149885   -1.155047    0.830491
      5          8           0        0.276426   -2.129350    1.531020
      6          7           0        0.619538   -1.087528   -0.472249
      7          6           0        0.512621   -0.007802   -1.335504
      8          8           0        0.945093   -0.014142   -2.462057
      9          7           0       -0.140075    1.080354   -0.776700
     10          1           0       -0.842403    0.012981    2.195640
     11          1           0        1.088990   -1.911835   -0.830212
     12          1           0       -0.246321    1.899066   -1.365153
 ---------------------------------------------------------------------
                    Distance matrix (angstroms):
                    1          2          3          4          5
     1  C    0.000000
     2  O    1.206644   0.000000
     3  N    1.386485   2.284030   0.000000
     4  C    2.477482   3.573859   1.386345   0.000000
     5  O    3.573791   4.567630   2.283766   1.206657   0.000000
     6  N    2.768067   3.974711   2.317076   1.386458   2.283902
     7  C    2.477587   3.573722   2.768412   2.477758   3.574034
     8  O    3.573894   4.567352   3.975140   3.574198   4.567919
     9  N    1.386523   2.283670   2.317408   2.768421   3.975078
    10  H    2.052445   2.506781   1.013849   2.052451   2.506608
    11  H    3.781972   4.988616   3.235074   2.052457   2.506589
    12  H    2.052527   2.506275   3.235343   3.782252   4.988909
                    6          7          8          9         10
     6  N    0.000000
     7  C    1.386524   0.000000
     8  O    2.284180   1.206728   0.000000
     9  N    2.317200   1.386491   2.283843   0.000000
    10  H    3.235124   3.782261   4.988989   3.235329   0.000000
    11  H    1.013905   2.052526   2.506963   3.235221   4.073202
    12  H    3.235233   2.052563   2.506597   1.013831   4.073312
                   11         12
    11  H    0.000000
    12  H    4.073350   0.000000
 Stoichiometry    C3H3N3O3
 Framework group  C1[X(C3H3N3O3)]
 Deg. of freedom    30
 Full point group                 C1      NOp   1
 Largest Abelian subgroup         C1      NOp   1
 Largest concise Abelian subgroup C1      NOp   1
                         Standard orientation:                         
 ---------------------------------------------------------------------
 Center     Atomic      Atomic             Coordinates (Angstroms)
 Number     Number       Type             X           Y           Z
 ---------------------------------------------------------------------
      1          6           0       -0.277725   -1.403106    0.000166
      2          8           0       -0.512423   -2.586705   -0.000210
      3          7           0        1.006769   -0.881170    0.000202
      4          6           0        1.354240    0.460924   -0.000095
      5          8           0        2.496520    0.849791   -0.000001
      6          7           0        0.259927    1.312244   -0.000106
      7          6           0       -1.076318    0.942249   -0.000072
      8          8           0       -1.984423    1.736942    0.000079
      9          7           0       -1.266521   -0.431134    0.000039
     10          1           0        1.769523   -1.549075    0.000254
     11          1           0        0.456906    2.306831   -0.000239
     12          1           0       -2.226227   -0.757965    0.000105
 ---------------------------------------------------------------------
 Rotational constants (GHZ):      2.0247021      2.0241562      1.0122146
 Standard basis: 6-31+G(d) (6D, 7F)
 There are   177 symmetry adapted cartesian basis functions of A   symmetry.
 There are   177 symmetry adapted basis functions of A   symmetry.
   177 basis functions,   300 primitive gaussians,   177 cartesian basis functions
    33 alpha electrons       33 beta electrons
       nuclear repulsion energy       447.8566031832 Hartrees.
 NAtoms=   12 NActive=   12 NUniq=   12 SFac= 1.00D+00 NAtFMM=   60 NAOKFM=F Big=F
 Integral buffers will be    131072 words long.
 Raffenetti 2 integral format.
 Two-electron integral symmetry is turned on.
 One-electron integrals computed using PRISM.
 NBasis=   177 RedAO= T EigKep=  2.85D-04  NBF=   177
 NBsUse=   177 1.00D-06 EigRej= -1.00D+00 NBFU=   177
 Initial guess from the checkpoint file:  "/srv/scratch/z5358697/gauss/Gau-2469787.chk"
 B after Tr=     0.000000    0.000000    0.000000
         Rot=    0.988476    0.000000    0.000000   -0.151376 Ang=  17.41 deg.
 Requested convergence on RMS density matrix=1.00D-08 within 128 cycles.
 Requested convergence on MAX density matrix=1.00D-06.
 Requested convergence on             energy=1.00D-06.
 No special actions if energy rises.
 SCF Done:  E(RM062X) =  -505.958715675     A.U. after    9 cycles
            NFock=  9  Conv=0.58D-08     -V/T= 2.0082
 Calling FoFJK, ICntrl=      2127 FMM=F ISym2X=0 I1Cent= 0 IOpClX= 0 NMat=1 NMatS=1 NMatT=0.
 ***** Axes restored to original set *****
 -------------------------------------------------------------------
 Center     Atomic                   Forces (Hartrees/Bohr)
 Number     Number              X              Y              Z
 -------------------------------------------------------------------
      1        6          -0.000467355    0.000761302    0.000187882
      2        8           0.000059764   -0.000113700    0.000074547
      3        7          -0.000131606    0.000222515    0.000122093
      4        6           0.000161083   -0.000769580    0.000539378
      5        8           0.000005164    0.000028896   -0.000102723
      6        7           0.000104128   -0.000138654   -0.000188128
      7        6           0.000457624   -0.000140155   -0.000941681
      8        8          -0.000147304   -0.000019103    0.000357713
      9        7           0.000037857    0.000056793   -0.000125601
     10        1          -0.000063500    0.000048596    0.000106583
     11        1          -0.000000328   -0.000049977    0.000058324
     12        1          -0.000015527    0.000113066   -0.000088386
 -------------------------------------------------------------------
 Cartesian Forces:  Max     0.000941681 RMS     0.000300642

 GradGradGradGradGradGradGradGradGradGradGradGradGradGradGradGradGradGrad
 Berny optimization.
 Using GEDIIS/GDIIS optimizer.
 FormGI is forming the generalized inverse of G from B-inverse, IUseBI=4.
 Internal  Forces:  Max     0.000700002 RMS     0.000197859
 Search for a local minimum.
 Step number   3 out of a maximum of   64
 All quantities printed in internal units (Hartrees-Bohrs-Radians)
 Mixed Optimization -- En-DIIS/RFO-DIIS
 Update second derivatives using D2CorX and points    1    2    3
 DE= -8.82D-05 DEPred=-9.08D-05 R= 9.71D-01
 TightC=F SS=  1.41D+00  RLast= 2.21D-02 DXNew= 5.0454D-01 6.6220D-02
 Trust test= 9.71D-01 RLast= 2.21D-02 DXMaxT set to 3.00D-01
 ITU=  1  1  0
 Use linear search instead of GDIIS.
     Eigenvalues ---    0.01788   0.01788   0.01788   0.01788   0.01788
     Eigenvalues ---    0.01788   0.01788   0.01788   0.01790   0.15988
     Eigenvalues ---    0.16000   0.16001   0.22147   0.23379   0.23401
     Eigenvalues ---    0.25000   0.25000   0.25166   0.42620   0.42695
     Eigenvalues ---    0.44438   0.44986   0.44999   0.45252   0.46846
     Eigenvalues ---    0.46851   0.47192   0.86424   0.90587   0.90741
 RFO step:  Lambda=-8.16187943D-06 EMin= 1.78759970D-02
 Quartic linear search produced a step of  0.67084.
 Iteration  1 RMS(Cart)=  0.00263988 RMS(Int)=  0.00000728
 Iteration  2 RMS(Cart)=  0.00000700 RMS(Int)=  0.00000480
 Iteration  3 RMS(Cart)=  0.00000000 RMS(Int)=  0.00000480
 Variable       Old X    -DE/DX   Delta X   Delta X   Delta X     New X
                                 (Linear)    (Quad)   (Total)
    R1        2.28023  -0.00009  -0.00229   0.00068  -0.00161   2.27861
    R2        2.62008   0.00045   0.00406  -0.00068   0.00339   2.62346
    R3        2.62015   0.00056   0.00412  -0.00034   0.00378   2.62393
    R4        2.61981   0.00070   0.00407   0.00019   0.00426   2.62407
    R5        1.91590   0.00012   0.00014   0.00031   0.00045   1.91635
    R6        2.28025  -0.00008  -0.00232   0.00072  -0.00160   2.27865
    R7        2.62003   0.00048   0.00402  -0.00058   0.00344   2.62347
    R8        2.62015   0.00041   0.00403  -0.00086   0.00317   2.62332
    R9        1.91600   0.00002   0.00014  -0.00007   0.00007   1.91607
   R10        2.28039  -0.00039  -0.00216   0.00004  -0.00212   2.27827
   R11        2.62009   0.00057   0.00405  -0.00029   0.00376   2.62385
   R12        1.91586   0.00014   0.00001   0.00045   0.00046   1.91632
    A1        2.15250  -0.00009   0.00172  -0.00042   0.00130   2.15380
    A2        2.15186   0.00023   0.00163   0.00164   0.00327   2.15513
    A3        1.97882  -0.00014  -0.00335  -0.00122  -0.00458   1.97424
    A4        2.21009   0.00012   0.00331   0.00117   0.00449   2.21458
    A5        2.03644  -0.00008  -0.00188  -0.00098  -0.00286   2.03358
    A6        2.03665  -0.00003  -0.00143  -0.00020  -0.00162   2.03503
    A7        2.15226   0.00016   0.00152   0.00126   0.00278   2.15504
    A8        1.97861  -0.00012  -0.00336  -0.00111  -0.00447   1.97414
    A9        2.15232  -0.00005   0.00185  -0.00016   0.00169   2.15400
   A10        2.21032   0.00010   0.00345   0.00092   0.00437   2.21469
   A11        2.03643  -0.00010  -0.00181  -0.00100  -0.00281   2.03361
   A12        2.03644   0.00000  -0.00164   0.00008  -0.00156   2.03488
   A13        2.15257   0.00004   0.00173   0.00045   0.00218   2.15476
   A14        1.97854  -0.00005  -0.00344  -0.00074  -0.00418   1.97435
   A15        2.15207   0.00001   0.00171   0.00028   0.00200   2.15407
   A16        2.21000   0.00010   0.00339   0.00097   0.00436   2.21436
   A17        2.03654  -0.00007  -0.00162  -0.00064  -0.00226   2.03428
   A18        2.03665  -0.00003  -0.00178  -0.00033  -0.00211   2.03454
    D1        3.14095   0.00002  -0.00013   0.00001  -0.00012   3.14083
    D2       -0.00040   0.00002  -0.00015  -0.00011  -0.00025  -0.00065
    D3       -0.00020  -0.00001   0.00040   0.00456   0.00496   0.00476
    D4       -3.14155   0.00000   0.00039   0.00445   0.00483  -3.13672
    D5       -3.14113  -0.00002   0.00017   0.00069   0.00087  -3.14026
    D6        0.00055  -0.00002   0.00013  -0.00014  -0.00001   0.00055
    D7        0.00002   0.00001  -0.00036  -0.00386  -0.00422  -0.00420
    D8       -3.14149   0.00000  -0.00041  -0.00469  -0.00509   3.13661
    D9        3.14155   0.00001  -0.00043  -0.00427  -0.00471   3.13684
   D10        0.00027   0.00000  -0.00011  -0.00154  -0.00165  -0.00138
   D11       -0.00028   0.00001  -0.00042  -0.00415  -0.00458  -0.00486
   D12       -3.14156   0.00000  -0.00009  -0.00142  -0.00152   3.14011
   D13       -0.00019   0.00001  -0.00030  -0.00287  -0.00317  -0.00337
   D14        3.14151   0.00001  -0.00024  -0.00240  -0.00264   3.13886
   D15       -3.14147  -0.00001   0.00003  -0.00013  -0.00011  -3.14158
   D16        0.00023  -0.00001   0.00009   0.00033   0.00042   0.00065
   D17        3.14143   0.00000   0.00007   0.00112   0.00120  -3.14056
   D18        0.00005  -0.00001   0.00033   0.00344   0.00378   0.00382
   D19       -0.00027   0.00001   0.00001   0.00066   0.00067   0.00040
   D20        3.14153   0.00000   0.00028   0.00297   0.00324  -3.13841
   D21        0.00005   0.00000   0.00003   0.00026   0.00030   0.00035
   D22        3.14155   0.00000   0.00008   0.00109   0.00118  -3.14046
   D23       -3.14134  -0.00001   0.00030   0.00258   0.00288  -3.13845
   D24        0.00017  -0.00001   0.00034   0.00340   0.00375   0.00392
         Item               Value     Threshold  Converged?
 Maximum Force            0.000700     0.000450     NO 
 RMS     Force            0.000198     0.000300     YES
 Maximum Displacement     0.007719     0.001800     NO 
 RMS     Displacement     0.002639     0.001200     NO 
 Predicted change in Energy=-2.193994D-05
 GradGradGradGradGradGradGradGradGradGradGradGradGradGradGradGradGradGrad

                          Input orientation:                          
 ---------------------------------------------------------------------
 Center     Atomic      Atomic             Coordinates (Angstroms)
 Number     Number       Type             X           Y           Z
 ---------------------------------------------------------------------
      1          6           0       -0.661396    1.166912    0.507245
      2          8           0       -1.220287    2.146640    0.933512
      3          7           0       -0.479754    0.007315    1.248631
      4          6           0        0.149380   -1.158358    0.831979
      5          8           0        0.277451   -2.131745    1.532047
      6          7           0        0.619983   -1.087312   -0.472171
      7          6           0        0.512912   -0.008428   -1.339148
      8          8           0        0.945285   -0.014607   -2.464539
      9          7           0       -0.140037    1.080266   -0.776764
     10          1           0       -0.845524    0.012713    2.194441
     11          1           0        1.091281   -1.911152   -0.828882
     12          1           0       -0.248193    1.898357   -1.366151
 ---------------------------------------------------------------------
                    Distance matrix (angstroms):
                    1          2          3          4          5
     1  C    0.000000
     2  O    1.205790   0.000000
     3  N    1.388277   2.285695   0.000000
     4  C    2.483887   3.579010   1.388598   0.000000
     5  O    3.579496   4.572312   2.286758   1.205811   0.000000
     6  N    2.771771   3.977560   2.317065   1.388280   2.285839
     7  C    2.483866   3.579564   2.771685   2.483603   3.578782
     8  O    3.578955   4.572466   3.977292   3.578919   4.571759
     9  N    1.388525   2.286730   2.317080   2.771868   3.977678
    10  H    2.052489   2.506798   1.014088   2.053667   2.509689
    11  H    3.785710   4.991499   3.234923   2.052397   2.506984
    12  H    2.053135   2.508996   3.235235   3.785941   4.991751
                    6          7          8          9         10
     6  N    0.000000
     7  C    1.388201   0.000000
     8  O    2.286055   1.205608   0.000000
     9  N    2.317068   1.388479   2.285882   0.000000
    10  H    3.235520   3.785769   4.991377   3.235034   0.000000
    11  H    1.013942   2.053106   2.508700   3.235344   4.073446
    12  H    3.235297   2.053251   2.508043   1.014075   4.073116
                   11         12
    11  H    0.000000
    12  H    4.073722   0.000000
 Stoichiometry    C3H3N3O3
 Framework group  C1[X(C3H3N3O3)]
 Deg. of freedom    30
 Full point group                 C1      NOp   1
 Largest Abelian subgroup         C1      NOp   1
 Largest concise Abelian subgroup C1      NOp   1
                         Standard orientation:                         
 ---------------------------------------------------------------------
 Center     Atomic      Atomic             Coordinates (Angstroms)
 Number     Number       Type             X           Y           Z
 ---------------------------------------------------------------------
      1          6           0       -1.431345    0.088831    0.001883
      2          8           0       -2.634871    0.162664    0.000767
      3          7           0       -0.739445   -1.114738   -0.001345
      4          6           0        0.638824   -1.283789   -0.001194
      5          8           0        1.176515   -2.363077    0.000653
      6          7           0        1.335110   -0.082747    0.000923
      7          6           0        0.792585    1.195050   -0.000951
      8          8           0        1.458640    2.199968    0.000046
      9          7           0       -0.595891    1.197891   -0.000532
     10          1           0       -1.300503   -1.959474   -0.004203
     11          1           0        2.347065   -0.146149    0.003605
     12          1           0       -1.047632    2.105785   -0.002874
 ---------------------------------------------------------------------
 Rotational constants (GHZ):      2.0205910      2.0199855      1.0101448
 Standard basis: 6-31+G(d) (6D, 7F)
 There are   177 symmetry adapted cartesian basis functions of A   symmetry.
 There are   177 symmetry adapted basis functions of A   symmetry.
   177 basis functions,   300 primitive gaussians,   177 cartesian basis functions
    33 alpha electrons       33 beta electrons
       nuclear repulsion energy       447.4976941118 Hartrees.
 NAtoms=   12 NActive=   12 NUniq=   12 SFac= 1.00D+00 NAtFMM=   60 NAOKFM=F Big=F
 Integral buffers will be    131072 words long.
 Raffenetti 2 integral format.
 Two-electron integral symmetry is turned on.
 One-electron integrals computed using PRISM.
 NBasis=   177 RedAO= T EigKep=  2.88D-04  NBF=   177
 NBsUse=   177 1.00D-06 EigRej= -1.00D+00 NBFU=   177
 Initial guess from the checkpoint file:  "/srv/scratch/z5358697/gauss/Gau-2469787.chk"
 B after Tr=     0.000000    0.000000    0.000000
         Rot=    0.752748    0.000000    0.000000    0.658309 Ang= -82.34 deg.
 Requested convergence on RMS density matrix=1.00D-08 within 128 cycles.
 Requested convergence on MAX density matrix=1.00D-06.
 Requested convergence on             energy=1.00D-06.
 No special actions if energy rises.
 SCF Done:  E(RM062X) =  -505.958728127     A.U. after   10 cycles
            NFock= 10  Conv=0.44D-08     -V/T= 2.0082
 Calling FoFJK, ICntrl=      2127 FMM=F ISym2X=0 I1Cent= 0 IOpClX= 0 NMat=1 NMatS=1 NMatT=0.
 ***** Axes restored to original set *****
 -------------------------------------------------------------------
 Center     Atomic                   Forces (Hartrees/Bohr)
 Number     Number              X              Y              Z
 -------------------------------------------------------------------
      1        6           0.000712994   -0.002861978   -0.001452859
      2        8           0.000089001    0.000513474    0.000102206
      3        7          -0.000229041   -0.000200053    0.000956658
      4        6          -0.000004394    0.002783929   -0.001376248
      5        8          -0.000223973   -0.000205814    0.000121189
      6        7           0.000284576   -0.000897534   -0.000329049
      7        6          -0.000945870    0.000388517    0.003287511
      8        8           0.000208411   -0.000144539   -0.000904179
      9        7          -0.000118210    0.000725494   -0.000248923
     10        1           0.000134567   -0.000076616   -0.000030779
     11        1           0.000012755   -0.000053186   -0.000100869
     12        1           0.000079185    0.000028307   -0.000024657
 -------------------------------------------------------------------
 Cartesian Forces:  Max     0.003287511 RMS     0.001003181

 GradGradGradGradGradGradGradGradGradGradGradGradGradGradGradGradGradGrad
 Berny optimization.
 Using GEDIIS/GDIIS optimizer.
 FormGI is forming the generalized inverse of G from B-inverse, IUseBI=4.
 Internal  Forces:  Max     0.001231901 RMS     0.000505541
 Search for a local minimum.
 Step number   4 out of a maximum of   64
 All quantities printed in internal units (Hartrees-Bohrs-Radians)
 Mixed Optimization -- En-DIIS/RFO-DIIS
 Swapping is turned off.
 Update second derivatives using D2CorX and points    1    2    3    4
 DE= -1.25D-05 DEPred=-2.19D-05 R= 5.68D-01
 TightC=F SS=  1.41D+00  RLast= 2.19D-02 DXNew= 5.0454D-01 6.5553D-02
 Trust test= 5.68D-01 RLast= 2.19D-02 DXMaxT set to 3.00D-01
 ITU=  1  1  1  0
     Eigenvalues ---    0.01751   0.01788   0.01788   0.01788   0.01788
     Eigenvalues ---    0.01788   0.01788   0.01788   0.01885   0.15994
     Eigenvalues ---    0.16001   0.16032   0.22149   0.23379   0.23626
     Eigenvalues ---    0.24999   0.25012   0.25488   0.42495   0.42714
     Eigenvalues ---    0.43182   0.44989   0.45017   0.45160   0.46851
     Eigenvalues ---    0.46878   0.47274   0.85993   0.90593   0.91378
 En-DIIS/RFO-DIIS IScMMF=        0 using points:     4    3
 RFO step:  Lambda=-2.61149697D-05.
 DidBck=T Rises=F RFO-DIIS coefs:    0.20875    0.79125
 Iteration  1 RMS(Cart)=  0.00225964 RMS(Int)=  0.00000526
 Iteration  2 RMS(Cart)=  0.00000697 RMS(Int)=  0.00000199
 Iteration  3 RMS(Cart)=  0.00000000 RMS(Int)=  0.00000199
 Variable       Old X    -DE/DX   Delta X   Delta X   Delta X     New X
                                 (Linear)    (Quad)   (Total)
    R1        2.27861   0.00041   0.00128  -0.00010   0.00118   2.27979
    R2        2.62346  -0.00083  -0.00268   0.00051  -0.00217   2.62129
    R3        2.62393  -0.00108  -0.00299   0.00058  -0.00241   2.62152
    R4        2.62407  -0.00123  -0.00337   0.00077  -0.00259   2.62147
    R5        1.91635  -0.00008  -0.00036   0.00019  -0.00017   1.91618
    R6        2.27865   0.00021   0.00127  -0.00014   0.00113   2.27978
    R7        2.62347  -0.00079  -0.00272   0.00058  -0.00215   2.62132
    R8        2.62332  -0.00082  -0.00251   0.00042  -0.00209   2.62123
    R9        1.91607   0.00008  -0.00006   0.00007   0.00002   1.91609
   R10        2.27827   0.00092   0.00168  -0.00025   0.00142   2.27969
   R11        2.62385  -0.00096  -0.00297   0.00065  -0.00233   2.62152
   R12        1.91632   0.00003  -0.00036   0.00028  -0.00009   1.91624
    A1        2.15380  -0.00028  -0.00103  -0.00046  -0.00150   2.15230
    A2        2.15513  -0.00062  -0.00259   0.00030  -0.00230   2.15283
    A3        1.97424   0.00090   0.00362   0.00019   0.00381   1.97805
    A4        2.21458  -0.00090  -0.00355  -0.00024  -0.00379   2.21079
    A5        2.03358   0.00057   0.00226   0.00013   0.00239   2.03597
    A6        2.03503   0.00033   0.00129   0.00012   0.00140   2.03643
    A7        2.15504  -0.00056  -0.00220   0.00013  -0.00208   2.15296
    A8        1.97414   0.00092   0.00354   0.00029   0.00383   1.97796
    A9        2.15400  -0.00036  -0.00133  -0.00041  -0.00175   2.15226
   A10        2.21469  -0.00090  -0.00346  -0.00034  -0.00380   2.21089
   A11        2.03361   0.00053   0.00223   0.00001   0.00224   2.03585
   A12        2.03488   0.00038   0.00123   0.00033   0.00156   2.03645
   A13        2.15476  -0.00047  -0.00173  -0.00020  -0.00193   2.15283
   A14        1.97435   0.00077   0.00331   0.00035   0.00366   1.97801
   A15        2.15407  -0.00030  -0.00158  -0.00015  -0.00173   2.15234
   A16        2.21436  -0.00079  -0.00345  -0.00023  -0.00369   2.21067
   A17        2.03428   0.00042   0.00179   0.00006   0.00185   2.03613
   A18        2.03454   0.00036   0.00167   0.00017   0.00184   2.03638
    D1        3.14083   0.00014   0.00009   0.00247   0.00256  -3.13979
    D2       -0.00065   0.00014   0.00020   0.00254   0.00274   0.00208
    D3        0.00476  -0.00012  -0.00393  -0.00150  -0.00543  -0.00067
    D4       -3.13672  -0.00011  -0.00382  -0.00143  -0.00526   3.14121
    D5       -3.14026  -0.00014  -0.00069  -0.00231  -0.00300   3.13993
    D6        0.00055  -0.00014   0.00000  -0.00251  -0.00250  -0.00196
    D7       -0.00420   0.00012   0.00334   0.00166   0.00500   0.00080
    D8        3.13661   0.00011   0.00403   0.00146   0.00549  -3.14108
    D9        3.13684   0.00017   0.00373   0.00243   0.00616  -3.14019
   D10       -0.00138   0.00001   0.00131  -0.00004   0.00127  -0.00011
   D11       -0.00486   0.00016   0.00362   0.00236   0.00599   0.00112
   D12        3.14011   0.00001   0.00120  -0.00010   0.00110   3.14120
   D13       -0.00337   0.00012   0.00251   0.00177   0.00428   0.00092
   D14        3.13886   0.00009   0.00209   0.00131   0.00340  -3.14092
   D15       -3.14158  -0.00004   0.00009  -0.00069  -0.00060   3.14100
   D16        0.00065  -0.00007  -0.00033  -0.00116  -0.00149  -0.00084
   D17       -3.14056   0.00001  -0.00095   0.00027  -0.00067  -3.14123
   D18        0.00382  -0.00012  -0.00299  -0.00165  -0.00463  -0.00081
   D19        0.00040   0.00004  -0.00053   0.00074   0.00021   0.00061
   D20       -3.13841  -0.00009  -0.00257  -0.00118  -0.00375   3.14103
   D21        0.00035  -0.00002  -0.00024  -0.00025  -0.00049  -0.00014
   D22       -3.14046  -0.00001  -0.00093  -0.00005  -0.00098  -3.14144
   D23       -3.13845  -0.00014  -0.00228  -0.00217  -0.00445   3.14028
   D24        0.00392  -0.00014  -0.00297  -0.00197  -0.00494  -0.00102
         Item               Value     Threshold  Converged?
 Maximum Force            0.001232     0.000450     NO 
 RMS     Force            0.000506     0.000300     NO 
 Maximum Displacement     0.006540     0.001800     NO 
 RMS     Displacement     0.002260     0.001200     NO 
 Predicted change in Energy=-2.701590D-05
 GradGradGradGradGradGradGradGradGradGradGradGradGradGradGradGradGradGrad

                          Input orientation:                          
 ---------------------------------------------------------------------
 Center     Atomic      Atomic             Coordinates (Angstroms)
 Number     Number       Type             X           Y           Z
 ---------------------------------------------------------------------
      1          6           0       -0.663450    1.163451    0.505098
      2          8           0       -1.221011    2.144536    0.931748
      3          7           0       -0.479468    0.007435    1.249345
      4          6           0        0.150552   -1.155576    0.831166
      5          8           0        0.276468   -2.130190    1.530947
      6          7           0        0.619981   -1.087798   -0.472372
      7          6           0        0.513367   -0.007775   -1.336214
      8          8           0        0.944957   -0.014466   -2.462709
      9          7           0       -0.140142    1.080643   -0.776991
     10          1           0       -0.842999    0.013194    2.195921
     11          1           0        1.089301   -1.912327   -0.830129
     12          1           0       -0.246455    1.899472   -1.365610
 ---------------------------------------------------------------------
                    Distance matrix (angstroms):
                    1          2          3          4          5
     1  C    0.000000
     2  O    1.206413   0.000000
     3  N    1.387128   2.284285   0.000000
     4  C    2.479275   3.575198   1.387224   0.000000
     5  O    3.575456   4.568891   2.284771   1.206408   0.000000
     6  N    2.769615   3.976027   2.317894   1.387144   2.284265
     7  C    2.479335   3.575495   2.769669   2.479237   3.575105
     8  O    3.575241   4.568922   3.976029   3.575307   4.568638
     9  N    1.387250   2.284718   2.317963   2.769720   3.976128
    10  H    2.052854   2.506720   1.014000   2.053223   2.507886
    11  H    3.783567   4.989979   3.235850   2.052759   2.506559
    12  H    2.053086   2.507523   3.236061   3.783749   4.990157
                    6          7          8          9         10
     6  N    0.000000
     7  C    1.387098   0.000000
     8  O    2.284534   1.206361   0.000000
     9  N    2.317912   1.387248   2.284371   0.000000
    10  H    3.236091   3.783668   4.990029   3.235995   0.000000
    11  H    1.013952   2.053080   2.507594   3.236081   4.074112
    12  H    3.236104   2.053238   2.507240   1.014029   4.074115
                   11         12
    11  H    0.000000
    12  H    4.074407   0.000000
 Stoichiometry    C3H3N3O3
 Framework group  C1[X(C3H3N3O3)]
 Deg. of freedom    30
 Full point group                 C1      NOp   1
 Largest Abelian subgroup         C1      NOp   1
 Largest concise Abelian subgroup C1      NOp   1
                         Standard orientation:                         
 ---------------------------------------------------------------------
 Center     Atomic      Atomic             Coordinates (Angstroms)
 Number     Number       Type             X           Y           Z
 ---------------------------------------------------------------------
      1          6           0       -1.431098    0.031097   -0.000846
      2          8           0       -2.637233    0.056976    0.000446
      3          7           0       -0.694209   -1.144113   -0.000106
      4          6           0        0.688586   -1.254882    0.000525
      5          8           0        1.269332   -2.312310   -0.000261
      6          7           0        1.337863   -0.029074    0.000222
      7          6           0        0.742525    1.223768    0.000407
      8          8           0        1.368088    2.255260   -0.000245
      9          7           0       -0.643805    1.173302   -0.000075
     10          1           0       -1.220377   -2.010913   -0.000272
     11          1           0        2.351568   -0.051425    0.000047
     12          1           0       -1.131710    2.062237   -0.000103
 ---------------------------------------------------------------------
 Rotational constants (GHZ):      2.0232213      2.0230012      1.0115557
 Standard basis: 6-31+G(d) (6D, 7F)
 There are   177 symmetry adapted cartesian basis functions of A   symmetry.
 There are   177 symmetry adapted basis functions of A   symmetry.
   177 basis functions,   300 primitive gaussians,   177 cartesian basis functions
    33 alpha electrons       33 beta electrons
       nuclear repulsion energy       447.7261751409 Hartrees.
 NAtoms=   12 NActive=   12 NUniq=   12 SFac= 1.00D+00 NAtFMM=   60 NAOKFM=F Big=F
 Integral buffers will be    131072 words long.
 Raffenetti 2 integral format.
 Two-electron integral symmetry is turned on.
 One-electron integrals computed using PRISM.
 NBasis=   177 RedAO= T EigKep=  2.86D-04  NBF=   177
 NBsUse=   177 1.00D-06 EigRej= -1.00D+00 NBFU=   177
 Initial guess from the checkpoint file:  "/srv/scratch/z5358697/gauss/Gau-2469787.chk"
 B after Tr=     0.000000    0.000000    0.000000
         Rot=    0.999798    0.000000    0.000000   -0.020081 Ang=   2.30 deg.
 Requested convergence on RMS density matrix=1.00D-08 within 128 cycles.
 Requested convergence on MAX density matrix=1.00D-06.
 Requested convergence on             energy=1.00D-06.
 No special actions if energy rises.
 SCF Done:  E(RM062X) =  -505.958731766     A.U. after    9 cycles
            NFock=  9  Conv=0.74D-08     -V/T= 2.0082
 Calling FoFJK, ICntrl=      2127 FMM=F ISym2X=0 I1Cent= 0 IOpClX= 0 NMat=1 NMatS=1 NMatT=0.
 ***** Axes restored to original set *****
 -------------------------------------------------------------------
 Center     Atomic                   Forces (Hartrees/Bohr)
 Number     Number              X              Y              Z
 -------------------------------------------------------------------
      1        6           0.000396969    0.000095254    0.000065791
      2        8          -0.000111573   -0.000087735   -0.000130219
      3        7          -0.000047655    0.000019843   -0.000010022
      4        6          -0.000289111    0.000016841    0.000014556
      5        8           0.000074861    0.000103956   -0.000005946
      6        7           0.000162698   -0.000094027   -0.000036112
      7        6          -0.000282189    0.000107451    0.000059840
      8        8           0.000166984   -0.000082344   -0.000111162
      9        7          -0.000120465   -0.000034090    0.000206852
     10        1           0.000023430   -0.000028098   -0.000019735
     11        1           0.000011670    0.000003716   -0.000020986
     12        1           0.000014382   -0.000020769   -0.000012857
 -------------------------------------------------------------------
 Cartesian Forces:  Max     0.000396969 RMS     0.000123756

 GradGradGradGradGradGradGradGradGradGradGradGradGradGradGradGradGradGrad
 Berny optimization.
 Using GEDIIS/GDIIS optimizer.
 FormGI is forming the generalized inverse of G from B-inverse, IUseBI=4.
 Internal  Forces:  Max     0.000164001 RMS     0.000060432
 Search for a local minimum.
 Step number   5 out of a maximum of   64
 All quantities printed in internal units (Hartrees-Bohrs-Radians)
 Mixed Optimization -- En-DIIS/RFO-DIIS
 Swapping is turned off.
 Update second derivatives using D2CorX and points    1    2    3    4    5
 DE= -3.64D-06 DEPred=-2.70D-05 R= 1.35D-01
 Trust test= 1.35D-01 RLast= 2.23D-02 DXMaxT set to 3.00D-01
 ITU=  0  1  1  1  0
     Eigenvalues ---    0.01712   0.01787   0.01788   0.01788   0.01788
     Eigenvalues ---    0.01788   0.01788   0.01788   0.03410   0.15972
     Eigenvalues ---    0.15993   0.16118   0.20623   0.23307   0.23456
     Eigenvalues ---    0.24943   0.25072   0.26097   0.40937   0.42730
     Eigenvalues ---    0.44205   0.44990   0.45125   0.45200   0.46854
     Eigenvalues ---    0.46983   0.48314   0.86194   0.90596   0.92965
 En-DIIS/RFO-DIIS IScMMF=        0 using points:     5    4    3
 RFO step:  Lambda=-5.09073041D-07.
 DidBck=T Rises=F RFO-DIIS coefs:    0.47480    0.10603    0.41916
 Iteration  1 RMS(Cart)=  0.00037656 RMS(Int)=  0.00000052
 Iteration  2 RMS(Cart)=  0.00000034 RMS(Int)=  0.00000042
 Variable       Old X    -DE/DX   Delta X   Delta X   Delta X     New X
                                 (Linear)    (Quad)   (Total)
    R1        2.27979  -0.00007   0.00006  -0.00006   0.00000   2.27979
    R2        2.62129  -0.00007  -0.00028   0.00016  -0.00011   2.62118
    R3        2.62152  -0.00016  -0.00032   0.00010  -0.00022   2.62130
    R4        2.62147  -0.00008  -0.00042   0.00031  -0.00011   2.62136
    R5        1.91618  -0.00003  -0.00010   0.00008  -0.00002   1.91616
    R6        2.27978  -0.00008   0.00008  -0.00009  -0.00002   2.27977
    R7        2.62132   0.00006  -0.00032   0.00036   0.00005   2.62137
    R8        2.62123  -0.00001  -0.00023   0.00020  -0.00003   2.62120
    R9        1.91609   0.00001  -0.00004   0.00006   0.00002   1.91611
   R10        2.27969   0.00016   0.00014  -0.00001   0.00013   2.27982
   R11        2.62152   0.00000  -0.00035   0.00032  -0.00003   2.62149
   R12        1.91624  -0.00001  -0.00015   0.00015   0.00001   1.91624
    A1        2.15230   0.00004   0.00024  -0.00023   0.00002   2.15232
    A2        2.15283  -0.00006  -0.00016  -0.00001  -0.00017   2.15266
    A3        1.97805   0.00002  -0.00008   0.00024   0.00016   1.97820
    A4        2.21079  -0.00003   0.00011  -0.00034  -0.00023   2.21056
    A5        2.03597   0.00005  -0.00006   0.00032   0.00026   2.03623
    A6        2.03643  -0.00003  -0.00005   0.00002  -0.00004   2.03639
    A7        2.15296  -0.00003  -0.00007  -0.00006  -0.00013   2.15283
[...]
    R4        2.62147  -0.00008   0.00000  -0.00015  -0.00015   2.62133
    R5        1.91618  -0.00003   0.00000  -0.00006  -0.00006   1.91612
    R6        2.27978  -0.00008   0.00000  -0.00006  -0.00006   2.27972
    R7        2.62132   0.00006   0.00000   0.00014   0.00014   2.62147
    R8        2.62123  -0.00001   0.00000   0.00007   0.00007   2.62130
    R9        1.91609   0.00001   0.00000   0.00000   0.00000   1.91609
   R10        2.27969   0.00016   0.00000   0.00019   0.00019   2.27989
   R11        2.62152   0.00000   0.00000  -0.00012  -0.00012   2.62140
   R12        1.91624  -0.00001   0.00000  -0.00001  -0.00001   1.91623
    A1        2.15230   0.00004   0.00000   0.00024   0.00024   2.15254
    A2        2.15283  -0.00006   0.00000  -0.00024  -0.00024   2.15260
    A3        1.97805   0.00002   0.00000   0.00000   0.00000   1.97805
    A4        2.21079  -0.00003   0.00000  -0.00012  -0.00012   2.21066
    A5        2.03597   0.00005   0.00000   0.00049   0.00049   2.03646
    A6        2.03643  -0.00003   0.00000  -0.00037  -0.00037   2.03606
    A7        2.15296  -0.00003   0.00000  -0.00016  -0.00016   2.15280
    A8        1.97796   0.00006   0.00000   0.00028   0.00028   1.97824
    A9        2.15226  -0.00003   0.00000  -0.00011  -0.00011   2.15215
   A10        2.21089  -0.00009   0.00000  -0.00037  -0.00037   2.21052
   A11        2.03585   0.00007   0.00000   0.00044   0.00044   2.03629
   A12        2.03645   0.00001   0.00000  -0.00007  -0.00007   2.03637
   A13        2.15283  -0.00011   0.00000  -0.00046  -0.00046   2.15237
   A14        1.97801  -0.00001   0.00000   0.00001   0.00001   1.97802
   A15        2.15234   0.00013   0.00000   0.00045   0.00045   2.15279
   A16        2.21067   0.00005   0.00000   0.00020   0.00021   2.21088
   A17        2.03613  -0.00001   0.00000  -0.00001  -0.00001   2.03612
   A18        2.03638  -0.00004   0.00000  -0.00019  -0.00019   2.03619
    D1       -3.13979  -0.00008   0.00000  -0.00179  -0.00179  -3.14158
    D2        0.00208  -0.00009   0.00000  -0.00207  -0.00207   0.00002
    D3       -0.00067   0.00004   0.00000   0.00066   0.00066   0.00000
    D4        3.14121   0.00003   0.00000   0.00039   0.00039  -3.14159
    D5        3.13993   0.00008   0.00000   0.00166   0.00166   3.14158
    D6       -0.00196   0.00008   0.00000   0.00195   0.00195  -0.00001
    D7        0.00080  -0.00004   0.00000  -0.00080  -0.00080   0.00000
    D8       -3.14108  -0.00003   0.00000  -0.00051  -0.00051  -3.14159
    D9       -3.14019  -0.00007   0.00000  -0.00140  -0.00140  -3.14158
   D10       -0.00011   0.00000   0.00000   0.00011   0.00011   0.00000
   D11        0.00112  -0.00006   0.00000  -0.00112  -0.00112   0.00000
   D12        3.14120   0.00001   0.00000   0.00038   0.00038   3.14159
   D13        0.00092  -0.00005   0.00000  -0.00091  -0.00091   0.00000
   D14       -3.14092  -0.00004   0.00000  -0.00067  -0.00067  -3.14159
   D15        3.14100   0.00002   0.00000   0.00059   0.00059   3.14159
   D16       -0.00084   0.00004   0.00000   0.00083   0.00084   0.00000
   D17       -3.14123  -0.00001   0.00000  -0.00036  -0.00036  -3.14159
   D18       -0.00081   0.00005   0.00000   0.00080   0.00080   0.00000
   D19        0.00061  -0.00002   0.00000  -0.00060  -0.00060   0.00000
   D20        3.14103   0.00003   0.00000   0.00056   0.00056   3.14159
   D21       -0.00014   0.00001   0.00000   0.00014   0.00014   0.00000
   D22       -3.14144   0.00000   0.00000  -0.00015  -0.00015   3.14159
   D23        3.14028   0.00006   0.00000   0.00130   0.00130   3.14158
   D24       -0.00102   0.00005   0.00000   0.00101   0.00101  -0.00001
         Item               Value     Threshold  Converged?
 Maximum Force            0.000164     0.000450     YES
 RMS     Force            0.000060     0.000300     YES
 Maximum Displacement     0.001248     0.001800     YES
 RMS     Displacement     0.000384     0.001200     YES
 Predicted change in Energy=-8.030368D-07
 Optimization completed.
    -- Stationary point found.
                           ----------------------------
                           !   Optimized Parameters   !
                           ! (Angstroms and Degrees)  !
 --------------------------                            --------------------------
 ! Name  Definition              Value          Derivative Info.                !
 --------------------------------------------------------------------------------
 ! R1    R(1,2)                  1.2064         -DE/DX =   -0.0001              !
 ! R2    R(1,3)                  1.3871         -DE/DX =   -0.0001              !
 ! R3    R(1,9)                  1.3873         -DE/DX =   -0.0002              !
 ! R4    R(3,4)                  1.3872         -DE/DX =   -0.0001              !
 ! R5    R(3,10)                 1.014          -DE/DX =    0.0                 !
 ! R6    R(4,5)                  1.2064         -DE/DX =   -0.0001              !
 ! R7    R(4,6)                  1.3871         -DE/DX =    0.0001              !
 ! R8    R(6,7)                  1.3871         -DE/DX =    0.0                 !
 ! R9    R(6,11)                 1.014          -DE/DX =    0.0                 !
 ! R10   R(7,8)                  1.2064         -DE/DX =    0.0002              !
 ! R11   R(7,9)                  1.3872         -DE/DX =    0.0                 !
 ! R12   R(9,12)                 1.014          -DE/DX =    0.0                 !
 ! A1    A(2,1,3)              123.3179         -DE/DX =    0.0                 !
 ! A2    A(2,1,9)              123.3483         -DE/DX =   -0.0001              !
 ! A3    A(3,1,9)              113.3336         -DE/DX =    0.0                 !
 ! A4    A(1,3,4)              126.6688         -DE/DX =    0.0                 !
 ! A5    A(1,3,10)             116.6524         -DE/DX =    0.0001              !
 ! A6    A(4,3,10)             116.6788         -DE/DX =    0.0                 !
 ! A7    A(3,4,5)              123.3558         -DE/DX =    0.0                 !
 ! A8    A(3,4,6)              113.329          -DE/DX =    0.0001              !
 ! A9    A(5,4,6)              123.3152         -DE/DX =    0.0                 !
 ! A10   A(4,6,7)              126.6744         -DE/DX =   -0.0001              !
 ! A11   A(4,6,11)             116.6458         -DE/DX =    0.0001              !
 ! A12   A(7,6,11)             116.6798         -DE/DX =    0.0                 !
 ! A13   A(6,7,8)              123.348          -DE/DX =   -0.0001              !
 ! A14   A(6,7,9)              113.3318         -DE/DX =    0.0                 !
 ! A15   A(8,7,9)              123.3201         -DE/DX =    0.0001              !
 ! A16   A(1,9,7)              126.6623         -DE/DX =    0.0001              !
 ! A17   A(1,9,12)             116.6617         -DE/DX =    0.0                 !
 ! A18   A(7,9,12)             116.676          -DE/DX =    0.0                 !
 ! D1    D(2,1,3,4)           -179.8968         -DE/DX =   -0.0001              !
 ! D2    D(2,1,3,10)             0.1193         -DE/DX =   -0.0001              !
 ! D3    D(9,1,3,4)             -0.0381         -DE/DX =    0.0                 !
 ! D4    D(9,1,3,10)          -180.022          -DE/DX =    0.0                 !
 ! D5    D(2,1,9,7)            179.9045         -DE/DX =    0.0001              !
 ! D6    D(2,1,9,12)            -0.1121         -DE/DX =    0.0001              !
 ! D7    D(3,1,9,7)              0.0459         -DE/DX =    0.0                 !
 ! D8    D(3,1,9,12)          -179.9707         -DE/DX =    0.0                 !
 ! D9    D(1,3,4,5)           -179.9194         -DE/DX =   -0.0001              !
 ! D10   D(1,3,4,6)             -0.0062         -DE/DX =    0.0                 !
 ! D11   D(10,3,4,5)             0.0644         -DE/DX =   -0.0001              !
 ! D12   D(10,3,4,6)           179.9777         -DE/DX =    0.0                 !
 ! D13   D(3,4,6,7)              0.0526         -DE/DX =    0.0                 !
 ! D14   D(3,4,6,11)          -179.9614         -DE/DX =    0.0                 !
 ! D15   D(5,4,6,7)            179.9659         -DE/DX =    0.0                 !
 ! D16   D(5,4,6,11)            -0.0481         -DE/DX =    0.0                 !
 ! D17   D(4,6,7,8)           -179.9792         -DE/DX =    0.0                 !
 ! D18   D(4,6,7,9)             -0.0462         -DE/DX =    0.0                 !
 ! D19   D(11,6,7,8)             0.0348         -DE/DX =    0.0                 !
 ! D20   D(11,6,7,9)           179.9678         -DE/DX =    0.0                 !
 ! D21   D(6,7,9,1)             -0.008          -DE/DX =    0.0                 !
 ! D22   D(6,7,9,12)           180.0087         -DE/DX =    0.0                 !
 ! D23   D(8,7,9,1)            179.925          -DE/DX =    0.0001              !
 ! D24   D(8,7,9,12)            -0.0583         -DE/DX =    0.0001              !
 --------------------------------------------------------------------------------
 GradGradGradGradGradGradGradGradGradGradGradGradGradGradGradGradGradGrad

 1\1\GINC-KATANA3\Freq\RM062X\6-31+G(d)\C3H3N3O3\Z5358697\16-Mar-2025\0
 \\#N Geom=AllCheck Guess=TCheck SCRF=Check GenChk RM062X/6-31+G(d) Fre
 q\\1,3,5-triazinane-2,4,6-trione\\0,1\C,-0.6634503481,1.16345102,0.505
 0984174\O,-1.2210112544,2.1445362046,0.9317483973\N,-0.4794677339,0.00
 74349767,1.2493445929\C,0.1505517728,-1.1555756583,0.8311658114\O,0.27
 64681465,-2.1301900451,1.5309466018\N,0.6199809308,-1.0877982669,-0.47
 23718825\C,0.5133667932,-0.0077751356,-1.3362138764\O,0.9449570753,-0.
 0144661014,-2.4627092285\N,-0.1401421598,1.0806429818,-0.7769913627\H,
 -0.8429986519,0.0131944607,2.1959211903\H,1.0893007067,-1.9123267274,-
 0.8301286532\H,-0.2464552772,1.8994722912,-1.3656100077\\Version=ES64L
 -G09RevD.01\State=1-A\HF=-505.9587318\RMSD=3.229e-09\RMSF=1.238e-04\Ze
 roPoint=0.0813397\Thermal=0.0884044\Dipole=-0.000126,-0.0001141,0.0001
 249\DipoleDeriv=0.8953356,-0.6542379,-0.4938235,-0.6544737,2.0373231,0
 .0261896,-0.4944098,0.0270371,1.7099724,-0.6736194,0.4555981,0.2315636
 ,0.4563108,-1.2735122,-0.2716443,0.2327014,-0.2730749,-0.7216707,-0.54
 85993,0.4296412,0.0327265,0.4296399,-1.5871875,0.170612,0.0318953,0.17
 3232,-0.629519,0.7650115,-0.4661205,-0.3486471,-0.4664837,2.0335398,-0
 .4617178,-0.3482477,-0.4620185,1.8458395,-0.463564,0.1548239,-0.000157
 3,0.1549305,-1.2673253,0.5118001,-0.0001446,0.5101137,-0.9412466,-0.45
 19279,0.009407,0.2243291,0.0095099,-0.8460736,0.4877216,0.2244355,0.48
 77902,-1.4674298,0.8409819,-0.4122314,-0.6055571,-0.4130976,1.6090747,
 -0.152237,-0.6048505,-0.1547172,2.1930262,-0.5852838,0.0688065,0.41020
 57,0.0697726,-0.5898235,0.0171236,0.4097925,0.0199727,-1.4962967,-0.67
 99636,0.3362823,0.4756738,0.3359283,-0.8554771,-0.3587075,0.4748663,-0
 .3586622,-1.2280212,0.3023328,0.0541633,-0.0095601,0.0537013,0.1669731
 ,0.0221463,-0.0090185,0.0207786,0.3221494,0.318052,-0.0149247,0.021134
 7,-0.0148188,0.2875692,0.0732612,0.0210821,0.0734486,0.1869687,0.28124
 41,0.038792,0.0621117,0.0390804,0.2849193,-0.0645478,0.061898,-0.06390
 02,0.2262279\Polar=44.1126828,-12.9027448,70.8679057,-12.1828753,-4.93
 49277,71.4311901\PG=C01 [X(C3H3N3O3)]\NImag=0\\0.40055484,-0.30437366,
 0.87949280,-0.20031446,0.08094519,0.64135301,-0.22665296,0.25148935,0.
 11370768,0.22366570,0.25153091,-0.53231325,-0.18395526,-0.31774534,0.6
 1825596,0.11373498,-0.18397441,-0.18595401,-0.14828799,0.22131292,0.19
 419841,-0.07341741,0.02712624,0.03304063,0.00651050,0.04431791,-0.0124
 6390,0.22495630,0.03847195,-0.20109968,0.05964380,0.03514733,-0.086827
 76,0.02058728,-0.20946046,0.63855369,0.02100909,0.08936446,-0.19965862
 ,-0.00274372,-0.00349037,0.03052311,-0.24777666,-0.07926378,0.77917377
 ,-0.00966315,0.02426137,-0.04101287,0.00809298,-0.00962935,0.00740153,
 -0.10126062,0.06809487,0.06500131,0.30510476,0.00684141,-0.06034683,0.
 02963044,-0.00336429,0.01743110,-0.00218611,0.07954102,-0.20052081,-0.
 04774851,-0.17051140,0.87275916,-0.02259679,-0.01599700,0.06065199,0.0
 0080797,0.01416011,-0.01006369,0.05286099,-0.01772356,-0.16874404,-0.0
 9725328,-0.26580826,0.73510271,0.00402833,-0.00380445,0.01194996,-0.00
 212075,0.00345460,-0.00197969,0.01002939,0.03925419,-0.01632747,-0.094
 63321,0.06218920,-0.03180884,0.06208569,0.00247626,0.01726679,-0.01737
 251,0.00312641,-0.01088389,0.00175465,0.03001363,-0.08638403,0.0336348
 5,0.06222217,-0.52674458,0.30739233,-0.08585252,0.61089485,0.00529142,
 -0.00086448,-0.00588919,-0.00164040,0.00090834,0.00185214,-0.00654301,
 0.00941696,0.02685222,-0.03182827,0.30740586,-0.32322243,0.02974960,-0
 .37988792,0.36244355,0.00273513,-0.00430426,0.00528777,-0.00182062,0.0
 0246237,-0.00061985,-0.00790022,0.01146833,0.02783692,-0.09328390,0.03
 365325,0.08078648,0.02084624,-0.00777818,0.00524905,0.23591135,-0.0042
 7222,-0.00467420,0.01934602,0.00244910,-0.00182045,-0.00563236,0.01415
 279,0.01295177,-0.04304612,0.04503106,-0.13957544,-0.02208875,-0.01696
 251,-0.00340894,0.06891753,-0.26512076,0.73572992,0.00526817,0.0194083
 4,-0.03135507,-0.00061458,-0.00565202,0.00652917,0.02498226,-0.0360015
 4,-0.01998404,0.06873572,0.00777364,-0.23748562,0.01496745,0.04482714,
 -0.06694305,-0.22181606,-0.03692430,0.66518930,-0.02609759,-0.00467637
 ,0.03272619,0.01036545,-0.00178743,-0.00682852,-0.00147291,0.01393380,
 -0.00303654,0.00243284,-0.02806881,-0.01708364,0.00234912,0.00340818,0
 .00859721,-0.07662706,0.04559826,0.02506384,0.35915894,0.01272670,0.03
 071025,-0.08229134,-0.00801049,0.00487533,0.02332452,0.01393460,-0.036
 81627,0.00572900,-0.04540919,0.03207806,0.06873858,0.00968431,0.004501
 33,-0.02270240,0.05701084,-0.23251971,0.04514486,-0.13271119,0.5749147
 9,0.01426337,-0.03659850,-0.01407356,-0.00019531,0.00693822,0.00020149
 ,-0.00301674,0.00566222,0.00490009,0.00129609,0.02332758,-0.04348229,0
 .00195240,-0.00629250,0.00853071,0.01298549,0.07507882,-0.16219175,-0.
 27832507,-0.04977133,0.98270649,0.00863631,0.00577021,-0.01026453,-0.0
 0386429,0.00190861,0.00421832,-0.00050254,-0.00328630,0.00200149,0.004
 67769,0.00506794,0.00073674,-0.00083405,-0.00208282,0.00053286,0.01887
 454,-0.00916631,0.01187212,-0.17120912,0.00840111,0.22432688,0.1556198
 7,-0.00053937,-0.00841362,0.01776996,0.00223638,-0.00126126,-0.0061099
 1,-0.00329559,0.00831775,-0.00132375,0.01132277,-0.00849544,-0.0132615
 0,-0.00240511,-0.00109650,0.00589753,-0.01836531,0.00771708,0.06089924
 ,0.00839333,-0.10413702,0.00099979,-0.02008812,0.09371468,-0.00359887,
 0.00123096,0.01512455,0.00386245,-0.00523553,-0.00607016,0.00200948,-0
 .00133448,-0.00492082,-0.00590413,0.00313236,0.01915972,0.00087994,0.0
 0507197,-0.00913392,0.02161492,0.03675682,-0.07601787,0.22436585,0.000
 96182,-0.67258483,-0.28372262,-0.00481627,0.78948534,-0.08439465,0.030
 51540,0.05806415,-0.00824609,0.02467606,0.04692247,0.01291654,-0.01547
 861,0.00183757,-0.00717680,0.00991139,0.01617231,0.00129121,-0.0020127
 6,-0.00405297,0.00415188,0.01958023,-0.01252054,-0.09535691,0.07203299
 ,0.04550892,-0.00673654,0.02750398,0.04013921,0.20703453,0.01911443,-0
 .13997585,0.04537235,0.03388881,-0.00476789,-0.06307270,-0.01825177,0.
 01416608,0.04056559,0.00984508,-0.00505637,-0.01727370,-0.00201328,-0.
 00168857,0.00592387,0.02229717,-0.05286906,0.00529482,0.08355882,-0.23
 244968,-0.02450512,0.01824781,0.00665213,-0.03402030,-0.22109823,0.734
 62468,0.07014138,0.01552262,-0.24994702,0.03718311,-0.03892901,-0.0366
 7178,0.00477987,0.03331774,-0.04047464,0.01621177,-0.01742634,-0.02103
 872,-0.00404673,0.00592371,0.00326580,-0.01539447,0.01240409,0.0344842
 8,0.03331732,0.00567458,-0.14207473,0.04994477,-0.05829132,-0.04951991
 ,-0.18780931,-0.14990664,0.69681695,0.00269469,-0.00524574,-0.00787660
 ,-0.00329441,0.00011066,0.00031116,-0.07340363,0.02051251,0.14587570,-
 0.00657111,-0.00331457,0.01438896,-0.00136577,-0.00214569,-0.00252829,
 0.00152266,0.00358420,0.00074957,-0.00112198,0.00047655,-0.00001626,0.
 00011700,-0.00023959,-0.00032301,0.00239062,0.00269440,-0.00060702,0.0
 7695204,-0.01661613,0.01013679,0.03022650,0.00070890,-0.00029358,-0.00
 487258,0.02058148,-0.06516727,0.00521601,0.00804091,0.00959655,-0.0338
 0976,-0.00277117,-0.00013504,0.00401183,0.00392968,-0.00567752,-0.0008
 3090,0.00046570,-0.00226705,0.00018924,-0.00023678,0.00056706,-0.00008
 955,0.00233677,-0.00570134,0.00336230,-0.01683610,0.05748642,0.0041899
 0,0.00046493,-0.01389285,-0.00032915,-0.00329059,0.00120963,0.14580913
 ,0.00532041,-0.39721370,0.00234145,-0.00403516,-0.00428002,-0.00187081
 ,0.00238809,-0.00082227,0.00038899,0.00007514,0.00216142,-0.00000763,0
 .00016633,-0.00109334,-0.00032436,-0.00008409,0.00083766,-0.00023223,0
 .00242028,0.00128304,-0.15087642,-0.00356553,0.41175914,-0.00100083,-0
 .00004477,0.00022131,0.00014515,-0.00035245,-0.00027275,0.00242288,-0.
 00009346,0.00222998,-0.00643017,0.00769253,0.00244515,-0.00176030,-0.0
 0110977,-0.00261837,-0.10515338,0.16172296,0.08035060,-0.00110800,0.00
 009369,-0.00345851,-0.00282592,-0.00133767,0.00053212,0.00294072,-0.00
 010462,0.00088687,0.00087981,0.00068348,0.00036705,0.11082393,-0.00003
 753,-0.00135684,0.00054486,-0.00035337,0.00076873,0.00000704,-0.000456
 20,0.00142005,0.00310835,-0.00364249,0.01027021,-0.00383438,-0.0005072
 2,-0.00308946,0.00119689,0.16169515,-0.31438377,-0.10093980,0.01148702
 ,-0.01936234,-0.01212563,-0.00195942,0.00329978,-0.00171222,0.00023598
 ,-0.00138366,0.00426482,0.00018235,0.00071712,0.00013319,-0.16746320,0
 .32341681,0.00021425,0.00056349,-0.00209323,-0.00027004,0.00000139,0.0
 0060638,0.00260529,0.00216545,-0.00589533,0.01448177,-0.03360597,-0.00
 476315,-0.00325933,0.00279028,0.00238522,0.08034809,-0.10096027,-0.113
 06096,-0.01550287,0.01770522,0.01952782,0.00118568,-0.00333928,-0.0027
 4175,0.00052193,0.00517240,-0.00361612,0.00089673,-0.00117575,0.000192
 81,-0.08095639,0.10979372,0.10841210,0.00257729,-0.01671331,0.00447077
 ,-0.00278065,0.00105345,-0.00213576,0.00112174,0.00143584,0.00409232,-
 0.00128931,0.00036233,0.00054394,0.00008410,-0.00026490,-0.00020884,0.
 00074337,0.00340321,0.00296146,-0.00131280,0.01177008,-0.01532125,-0.0
 0195295,-0.00318568,0.00014466,-0.02881450,0.05182139,-0.00460757,0.00
 120008,-0.00028674,0.00054407,0.00106612,0.00081891,-0.00026510,0.0293
 5752,-0.00532274,0.01057363,0.00013999,0.00042722,-0.00316305,-0.00113
 836,0.00179635,0.00140648,-0.00274574,0.00037422,-0.00139562,-0.000494
 10,-0.00026605,0.00076805,-0.00022402,0.00305171,-0.00146969,-0.002999
 50,0.00039869,-0.01952769,0.01709720,-0.00257593,0.00313534,0.00005441
 ,0.05179679,-0.31155049,0.18408347,0.00022102,0.00073785,0.00000699,0.
 00031328,-0.00031663,0.00088932,-0.05021456,0.32080183,-0.00760245,0.0
 2993440,-0.01426601,-0.00148002,-0.00276821,0.00363931,0.00371267,-0.0
 0179052,-0.00455802,0.00052889,-0.00045953,-0.00183445,-0.00020650,-0.
 00023010,0.00068120,0.00333267,-0.00392662,-0.00132581,-0.00328614,-0.
 01267984,0.01963391,-0.00050735,0.00165959,-0.00361801,-0.00455151,0.1
 8402916,-0.19250717,0.00000546,0.00133819,-0.00014152,0.00027295,-0.00
 043684,0.00104621,0.00978131,-0.19466967,0.19325036\\-0.00039697,-0.00
 009525,-0.00006581,0.00011156,0.00008774,0.00013023,0.00004762,-0.0000
 1980,0.00001002,0.00028917,-0.00001697,-0.00001459,-0.00007487,-0.0001
 0391,0.00000594,-0.00016272,0.00009404,0.00003615,0.00028226,-0.000107
 53,-0.00005992,-0.00016700,0.00008236,0.00011119,0.00012045,0.00003413
 ,-0.00020680,-0.00002344,0.00002810,0.00001975,-0.00001168,-0.00000370
 ,0.00002099,-0.00001439,0.00002078,0.00001285\\\@


 THOSE WHO ASPIRE NOT TO GUESS AND DIVINE,
 BUT TO DISCOVER AND KNOW, WHO PROPOSE NOT TO DEVISE 
 MIMIC AND FABULOUS WORLDS OF THEIR OWN, BUT TO 
 EXAMINE AND DISSECT THE NATURE OF THIS VERY WORLD 
 ITSELF, MUST GO TO THE FACTS THEMSELVES FOR EVERYTHING.

                               -- FRANCIS BACON, 1620
 Job cpu time:       0 days  0 hours  4 minutes 29.3 seconds.
 File lengths (MBytes):  RWF=    134 Int=      0 D2E=      0 Chk=      4 Scr=      2
 Normal termination of Gaussian 09 at Sun Mar 16 22:19:46 2025.
