 Entering Gaussian System, Link 0=g09
 Initial command:
 /apps/z_install_tree/linux-rocky8-ivybridge/gcc-12.2.0/gaussian-09-D.01-wczn3gur5lpur3omlkzwa2l5ecyxp5ef/g09/l1.exe "/srv/scratch/z5358697/gauss/Gau-598289.inp" -scrdir="/srv/scratch/z5358697/gauss/"
 Entering Link 1 = /apps/z_install_tree/linux-rocky8-ivybridge/gcc-12.2.0/gaussian-09-D.01-wczn3gur5lpur3omlkzwa2l5ecyxp5ef/g09/l1.exe PID=    598290.
  
 Copyright (c) 1988,1990,1992,1993,1995,1998,2003,2009,2013,
            Gaussian, Inc.  All Rights Reserved.
  
 This is part of the Gaussian(R) 09 program.  It is based on
 the Gaussian(R) 03 system (copyright 2003, Gaussian, Inc.),
 the Gaussian(R) 98 system (copyright 1998, Gaussian, Inc.),
 the Gaussian(R) 94 system (copyright 1995, Gaussian, Inc.),
 the Gaussian 92(TM) system (copyright 1992, Gaussian, Inc.),
 the Gaussian 90(TM) system (copyright 1990, Gaussian, Inc.),
 the Gaussian 88(TM) system (copyright 1988, Gaussian, Inc.),
 the Gaussian 86(TM) system (copyright 1986, Carnegie Mellon
 University), and the Gaussian 82(TM) system (copyright 1983,
 Carnegie Mellon University). Gaussian is a federally registered
 trademark of Gaussian, Inc.
  
 This software contains proprietary and confidential information,
 including trade secrets, belonging to Gaussian, Inc.
  
 This software is provided under written license and may be
 used, copied, transmitted, or stored only in accord with that
 written license.
  
 The following legend is applicable only to US Government
 contracts under FAR:
  
                    RESTRICTED RIGHTS LEGEND
  
 Use, reproduction and disclosure by the US Government is
 subject to restrictions as set forth in subparagraphs (a)
 and (c) of the Commercial Computer Software - Restricted
 Rights clause in FAR 52.227-19.
  
 Gaussian, Inc.
 340 Quinnipiac St., Bldg. 40, Wallingford CT 06492
  
  
 ---------------------------------------------------------------
 Warning -- This program may not be used in any manner that
 competes with the business of Gaussian, Inc. or will provide
 assistance to any competitor of Gaussian, Inc.  The licensee
 of this program is prohibited from giving any competitor of
 Gaussian, Inc. access to this program.  By using this program,
 the user acknowledges that Gaussian, Inc. is engaged in the
 business of creating and licensing software in the field of
 computational chemistry and represents and warrants to the
 licensee that it is not a competitor of Gaussian, Inc. and that
 it will not use this program in any manner prohibited above.
 ---------------------------------------------------------------
  

 Cite this work as:
 Gaussian 09, Revision D.01,
 M. J. Frisch, G. W. Trucks, H. B. Schlegel, G. E. Scuseria, 
 M. A. Robb, J. R. Cheeseman, G. Scalmani, V. Barone, B. Mennucci, 
 G. A. Petersson, H. Nakatsuji, M. Caricato, X. Li, H. P. Hratchian, 
 A. F. Izmaylov, J. Bloino, G. Zheng, J. L. Sonnenberg, M. Hada, 
 M. Ehara, K. Toyota, R. Fukuda, J. Hasegawa, M. Ishida, T. Nakajima, 
 Y. Honda, O. Kitao, H. Nakai, T. Vreven, J. A. Montgomery, Jr., 
 J. E. Peralta, F. Ogliaro, M. Bearpark, J. J. Heyd, E. Brothers, 
 K. N. Kudin, V. N. Staroverov, T. Keith, R. Kobayashi, J. Normand, 
 K. Raghavachari, A. Rendell, J. C. Burant, S. S. Iyengar, J. Tomasi, 
 M. Cossi, N. Rega, J. M. Millam, M. Klene, J. E. Knox, J. B. Cross, 
 V. Bakken, C. Adamo, J. Jaramillo, R. Gomperts, R. E. Stratmann, 
 O. Yazyev, A. J. Austin, R. Cammi, C. Pomelli, J. W. Ochterski, 
 R. L. Martin, K. Morokuma, V. G. Zakrzewski, G. A. Voth, 
 P. Salvador, J. J. Dannenberg, S. Dapprich, A. D. Daniels, 
 O. Farkas, J. B. Foresman, J. V. Ortiz, J. Cioslowski, 
 and D. J. Fox, Gaussian, Inc., Wallingford CT, 2013.
 
 ******************************************
 Gaussian 09:  ES64L-G09RevD.01 24-Apr-2013
                15-Mar-2025 
 ******************************************
 ---------------------------------
 #m062X/6-31+G(d) OPT Freq=noraman
 ---------------------------------
 1/14=-1,18=20,19=15,26=3,38=1/1,3;
 2/9=110,12=2,17=6,18=5,40=1/2;
 3/5=1,6=6,7=11,11=2,16=1,25=1,30=1,71=1,74=-55/1,2,3;
 4//1;
 5/5=2,38=5/2;
 6/7=2,8=2,9=2,10=2,28=1/1;
 7//1,2,3,16;
 1/14=-1,18=20,19=15,26=3/3(2);
 2/9=110/2;
 99//99;
 2/9=110/2;
 3/5=1,6=6,7=11,11=2,16=1,25=1,30=1,71=1,74=-55/1,2,3;
 4/5=5,16=3,69=1/1;
 5/5=2,38=5/2;
 7//1,2,3,16;
 1/14=-1,18=20,19=15,26=3/3(-5);
 2/9=110/2;
 6/7=2,8=2,9=2,10=2,19=2,28=1/1;
 99/9=1/99;
 ---------
 azetidine
 ---------
 Symbolic Z-matrix:
 Charge =  0 Multiplicity = 1
 C                     0.8686   -0.4836   -0.4587 
 C                     1.775     0.4761   -1.2453 
 N                     1.0597    0.102    -2.5174 
 C                     0.5736   -1.1399   -1.8165 
 H                    -0.0018    0.0031   -0.0048 
 H                     1.3626   -1.1136    0.2847 
 H                     1.6955    1.5328   -0.9753 
 H                     2.8324    0.1886   -1.2546 
 H                     1.7031   -0.108    -3.2815 
 H                    -0.4746   -1.3867   -2.0074 
 H                     1.1913   -2.0181   -2.0345 
 

 GradGradGradGradGradGradGradGradGradGradGradGradGradGradGradGradGradGrad
 Berny optimization.
 Initialization pass.
                           ----------------------------
                           !    Initial Parameters    !
                           ! (Angstroms and Degrees)  !
 --------------------------                            --------------------------
 ! Name  Definition              Value          Derivative Info.                !
 --------------------------------------------------------------------------------
 ! R1    R(1,2)                  1.5367         estimate D2E/DX2                !
 ! R2    R(1,4)                  1.5367         estimate D2E/DX2                !
 ! R3    R(1,5)                  1.0957         estimate D2E/DX2                !
 ! R4    R(1,6)                  1.0925         estimate D2E/DX2                !
 ! R5    R(2,3)                  1.5066         estimate D2E/DX2                !
 ! R6    R(2,7)                  1.0935         estimate D2E/DX2                !
 ! R7    R(2,8)                  1.0958         estimate D2E/DX2                !
 ! R8    R(3,4)                  1.5066         estimate D2E/DX2                !
 ! R9    R(3,9)                  1.0207         estimate D2E/DX2                !
 ! R10   R(4,10)                 1.0937         estimate D2E/DX2                !
 ! R11   R(4,11)                 1.0956         estimate D2E/DX2                !
 ! A1    A(2,1,4)               85.8519         estimate D2E/DX2                !
 ! A2    A(2,1,5)              113.7793         estimate D2E/DX2                !
 ! A3    A(2,1,6)              116.2152         estimate D2E/DX2                !
 ! A4    A(4,1,5)              113.7818         estimate D2E/DX2                !
 ! A5    A(4,1,6)              116.2165         estimate D2E/DX2                !
 ! A6    A(5,1,6)              109.4792         estimate D2E/DX2                !
 ! A7    A(1,2,3)               89.8332         estimate D2E/DX2                !
 ! A8    A(1,2,7)              115.736          estimate D2E/DX2                !
 ! A9    A(1,2,8)              114.1834         estimate D2E/DX2                !
 ! A10   A(3,2,7)              114.45           estimate D2E/DX2                !
 ! A11   A(3,2,8)              112.6945         estimate D2E/DX2                !
 ! A12   A(7,2,8)              109.0119         estimate D2E/DX2                !
 ! A13   A(2,3,4)               87.9976         estimate D2E/DX2                !
 ! A14   A(2,3,9)              112.5742         estimate D2E/DX2                !
 ! A15   A(4,3,9)              112.4598         estimate D2E/DX2                !
 ! A16   A(1,4,3)               89.8323         estimate D2E/DX2                !
 ! A17   A(1,4,10)             115.7603         estimate D2E/DX2                !
 ! A18   A(1,4,11)             114.2004         estimate D2E/DX2                !
 ! A19   A(3,4,10)             114.4594         estimate D2E/DX2                !
 ! A20   A(3,4,11)             112.7223         estimate D2E/DX2                !
 ! A21   A(10,4,11)            108.9506         estimate D2E/DX2                !
 ! D1    D(4,1,2,3)             18.9237         estimate D2E/DX2                !
 ! D2    D(4,1,2,7)            136.1867         estimate D2E/DX2                !
 ! D3    D(4,1,2,8)            -96.0138         estimate D2E/DX2                !
 ! D4    D(5,1,2,3)            -95.2728         estimate D2E/DX2                !
 ! D5    D(5,1,2,7)             21.9903         estimate D2E/DX2                !
 ! D6    D(5,1,2,8)            149.7897         estimate D2E/DX2                !
 ! D7    D(6,1,2,3)            136.1816         estimate D2E/DX2                !
 ! D8    D(6,1,2,7)           -106.5554         estimate D2E/DX2                !
 ! D9    D(6,1,2,8)             21.2441         estimate D2E/DX2                !
 ! D10   D(2,1,4,3)            -18.9236         estimate D2E/DX2                !
 ! D11   D(2,1,4,10)          -136.2027         estimate D2E/DX2                !
 ! D12   D(2,1,4,11)            96.0479         estimate D2E/DX2                !
 ! D13   D(5,1,4,3)             95.2704         estimate D2E/DX2                !
 ! D14   D(5,1,4,10)           -22.0087         estimate D2E/DX2                !
 ! D15   D(5,1,4,11)          -149.7581         estimate D2E/DX2                !
 ! D16   D(6,1,4,3)           -136.1802         estimate D2E/DX2                !
 ! D17   D(6,1,4,10)           106.5406         estimate D2E/DX2                !
 ! D18   D(6,1,4,11)           -21.2087         estimate D2E/DX2                !
 ! D19   D(1,2,3,4)            -19.2758         estimate D2E/DX2                !
 ! D20   D(1,2,3,9)           -132.8197         estimate D2E/DX2                !
 ! D21   D(7,2,3,4)           -137.6795         estimate D2E/DX2                !
 ! D22   D(7,2,3,9)            108.7766         estimate D2E/DX2                !
 ! D23   D(8,2,3,4)             97.0083         estimate D2E/DX2                !
 ! D24   D(8,2,3,9)            -16.5356         estimate D2E/DX2                !
 ! D25   D(2,3,4,1)             19.2756         estimate D2E/DX2                !
 ! D26   D(2,3,4,10)           137.7084         estimate D2E/DX2                !
 ! D27   D(2,3,4,11)           -97.0325         estimate D2E/DX2                !
 ! D28   D(9,3,4,1)            132.9281         estimate D2E/DX2                !
 ! D29   D(9,3,4,10)          -108.6391         estimate D2E/DX2                !
 ! D30   D(9,3,4,11)            16.62           estimate D2E/DX2                !
 --------------------------------------------------------------------------------
 Trust Radius=3.00D-01 FncErr=1.00D-07 GrdErr=1.00D-06
 Number of steps in this run=     72 maximum allowed number of steps=    100.
 GradGradGradGradGradGradGradGradGradGradGradGradGradGradGradGradGradGrad

                          Input orientation:                          
 ---------------------------------------------------------------------
 Center     Atomic      Atomic             Coordinates (Angstroms)
 Number     Number       Type             X           Y           Z
 ---------------------------------------------------------------------
      1          6           0        0.868600   -0.483600   -0.458700
      2          6           0        1.775000    0.476100   -1.245300
      3          7           0        1.059700    0.102000   -2.517400
      4          6           0        0.573600   -1.139900   -1.816500
      5          1           0       -0.001800    0.003100   -0.004800
      6          1           0        1.362600   -1.113600    0.284700
      7          1           0        1.695500    1.532800   -0.975300
      8          1           0        2.832400    0.188600   -1.254600
      9          1           0        1.703100   -0.108000   -3.281500
     10          1           0       -0.474600   -1.386700   -2.007400
     11          1           0        1.191300   -2.018100   -2.034500
 ---------------------------------------------------------------------
                    Distance matrix (angstroms):
                    1          2          3          4          5
     1  C    0.000000
     2  C    1.536660   0.000000
     3  N    2.148882   1.506600   0.000000
     4  C    1.536677   2.093105   1.506609   0.000000
     5  H    1.095673   2.218014   2.729418   2.218060   0.000000
     6  H    1.092511   2.244576   3.069397   2.244606   1.786733
     7  H    2.239756   1.093542   2.197613   3.018212   2.482474
     8  H    2.223020   1.095827   2.178217   2.680079   3.103079
     9  H    2.967434   2.119541   1.020741   2.118210   3.695374
    10  H    2.240145   3.018530   2.197818   1.093653   2.483041
    11  H    2.223054   2.680406   2.178379   1.095588   3.102969
                    6          7          8          9         10
     6  H    0.000000
     7  H    2.949891   0.000000
     8  H    2.495091   1.782533   0.000000
     9  H    3.720881   2.830343   2.339148   0.000000
    10  H    2.950188   3.781276   3.739589   2.828565   0.000000
    11  H    2.495226   3.739654   2.858492   2.337826   1.781747
                   11
    11  H    0.000000
 Stoichiometry    C3H7N
 Framework group  C1[X(C3H7N)]
 Deg. of freedom    27
 Full point group                 C1      NOp   1
 Largest Abelian subgroup         C1      NOp   1
 Largest concise Abelian subgroup C1      NOp   1
                         Standard orientation:                         
 ---------------------------------------------------------------------
 Center     Atomic      Atomic             Coordinates (Angstroms)
 Number     Number       Type             X           Y           Z
 ---------------------------------------------------------------------
      1          6           0        0.017707    1.082457   -0.067902
      2          6           0        1.045969   -0.048081    0.092990
      3          7           0       -0.017148   -1.058210   -0.252357
      4          6           0       -1.046858   -0.014002    0.092892
      5          1           0        0.025385    1.548840   -1.059328
      6          1           0        0.030340    1.859241    0.700229
      7          1           0        1.890386   -0.024306   -0.601438
      8          1           0        1.426459   -0.166923    1.113745
      9          1           0       -0.031401   -1.848466    0.393556
     10          1           0       -1.890392    0.037049   -0.601313
     11          1           0       -1.431652   -0.120206    1.113170
 ---------------------------------------------------------------------
 Rotational constants (GHZ):     11.5654892     11.1618974      6.5806368
 Standard basis: 6-31+G(d) (6D, 7F)
 There are    90 symmetry adapted cartesian basis functions of A   symmetry.
 There are    90 symmetry adapted basis functions of A   symmetry.
    90 basis functions,   156 primitive gaussians,    90 cartesian basis functions
    16 alpha electrons       16 beta electrons
       nuclear repulsion energy       128.1977027496 Hartrees.
 NAtoms=   11 NActive=   11 NUniq=   11 SFac= 1.00D+00 NAtFMM=   60 NAOKFM=F Big=F
 Integral buffers will be    131072 words long.
 Raffenetti 2 integral format.
 Two-electron integral symmetry is turned on.
 One-electron integrals computed using PRISM.
 NBasis=    90 RedAO= T EigKep=  1.33D-04  NBF=    90
 NBsUse=    90 1.00D-06 EigRej= -1.00D+00 NBFU=    90
 ExpMin= 4.38D-02 ExpMax= 4.17D+03 ExpMxC= 6.27D+02 IAcc=2 IRadAn=         4 AccDes= 0.00D+00
 Harris functional with IExCor= 1009 and IRadAn=       4 diagonalized for initial guess.
 HarFok:  IExCor= 1009 AccDes= 0.00D+00 IRadAn=         4 IDoV= 1 UseB2=F ITyADJ=14
 ICtDFT=  3500011 ScaDFX=  1.000000  1.000000  1.000000  1.000000
 FoFCou: FMM=F IPFlag=           0 FMFlag=      100000 FMFlg1=           0
         NFxFlg=           0 DoJE=T BraDBF=F KetDBF=T FulRan=T
         wScrn=  0.000000 ICntrl=     500 IOpCl=  0 I1Cent=   200000004 NGrid=           0
         NMat0=    1 NMatS0=      1 NMatT0=    0 NMatD0=    1 NMtDS0=    0 NMtDT0=    0
 Petite list used in FoFCou.
 Keep R1 ints in memory in canonical form, NReq=9342190.
 Requested convergence on RMS density matrix=1.00D-08 within 128 cycles.
 Requested convergence on MAX density matrix=1.00D-06.
 Requested convergence on             energy=1.00D-06.
 No special actions if energy rises.
 SCF Done:  E(RM062X) =  -173.152491395     A.U. after   11 cycles
            NFock= 11  Conv=0.90D-08     -V/T= 2.0091

 **********************************************************************

            Population analysis using the SCF density.

 **********************************************************************

 Orbital symmetries:
       Occupied  (A) (A) (A) (A) (A) (A) (A) (A) (A) (A) (A) (A)
                 (A) (A) (A) (A)
       Virtual   (A) (A) (A) (A) (A) (A) (A) (A) (A) (A) (A) (A)
                 (A) (A) (A) (A) (A) (A) (A) (A) (A) (A) (A) (A)
                 (A) (A) (A) (A) (A) (A) (A) (A) (A) (A) (A) (A)
                 (A) (A) (A) (A) (A) (A) (A) (A) (A) (A) (A) (A)
                 (A) (A) (A) (A) (A) (A) (A) (A) (A) (A) (A) (A)
                 (A) (A) (A) (A) (A) (A) (A) (A) (A) (A) (A) (A)
                 (A) (A)
 The electronic state is 1-A.
 Alpha  occ. eigenvalues --  -14.74563 -10.57034 -10.57029 -10.54597  -1.02805
 Alpha  occ. eigenvalues --   -0.81426  -0.76093  -0.63942  -0.58554  -0.55204
 Alpha  occ. eigenvalues --   -0.46222  -0.45170  -0.43118  -0.39715  -0.37398
 Alpha  occ. eigenvalues --   -0.29343
 Alpha virt. eigenvalues --    0.02466   0.03245   0.03550   0.05131   0.06960
 Alpha virt. eigenvalues --    0.07414   0.08867   0.08942   0.09648   0.11877
 Alpha virt. eigenvalues --    0.15504   0.15643   0.16732   0.18361   0.20564
 Alpha virt. eigenvalues --    0.21347   0.21700   0.27773   0.28635   0.29091
 Alpha virt. eigenvalues --    0.31731   0.31982   0.35133   0.35719   0.36348
 Alpha virt. eigenvalues --    0.38436   0.41155   0.65993   0.67372   0.70504
 Alpha virt. eigenvalues --    0.70900   0.74097   0.76014   0.79097   0.85107
 Alpha virt. eigenvalues --    0.90344   0.98244   0.99030   1.00931   1.02295
 Alpha virt. eigenvalues --    1.05922   1.08148   1.09608   1.15222   1.15918
 Alpha virt. eigenvalues --    1.16928   1.26906   1.37370   1.40764   1.44095
 Alpha virt. eigenvalues --    1.58571   1.74313   1.81808   1.92261   1.92321
 Alpha virt. eigenvalues --    2.02484   2.08716   2.09521   2.16676   2.17852
 Alpha virt. eigenvalues --    2.19021   2.20062   2.37622   2.40453   2.49035
 Alpha virt. eigenvalues --    2.58136   2.63939   2.64667   2.73999   2.89770
 Alpha virt. eigenvalues --    4.08752   4.25633   4.38346   4.65846
          Condensed to atoms (all electrons):
               1          2          3          4          5          6
     1  C    5.910404   0.100749  -0.278997   0.100356   0.397546   0.369049
     2  C    0.100749   5.564157   0.250970  -0.323667  -0.038980  -0.031313
     3  N   -0.278997   0.250970   7.200312   0.250819   0.013839   0.021681
     4  C    0.100356  -0.323667   0.250819   5.564717  -0.038995  -0.031277
     5  H    0.397546  -0.038980   0.013839  -0.038995   0.474652  -0.024009
     6  H    0.369049  -0.031313   0.021681  -0.031277  -0.024009   0.493690
     7  H   -0.082459   0.400105  -0.034639   0.042300  -0.005688   0.002256
     8  H    0.003136   0.377762  -0.079488  -0.001476   0.003071  -0.005870
     9  H    0.030490  -0.050980   0.322026  -0.051017  -0.000346  -0.000541
    10  H   -0.082390   0.042237  -0.034640   0.400131  -0.005685   0.002254
    11  H    0.003174  -0.001441  -0.079424   0.377629   0.003072  -0.005869
               7          8          9         10         11
     1  C   -0.082459   0.003136   0.030490  -0.082390   0.003174
     2  C    0.400105   0.377762  -0.050980   0.042237  -0.001441
     3  N   -0.034639  -0.079488   0.322026  -0.034640  -0.079424
     4  C    0.042300  -0.001476  -0.051017   0.400131   0.377629
     5  H   -0.005688   0.003071  -0.000346  -0.005685   0.003072
     6  H    0.002256  -0.005870  -0.000541   0.002254  -0.005869
     7  H    0.513699  -0.039757   0.001821  -0.000049  -0.000789
     8  H   -0.039757   0.554163  -0.006976  -0.000790   0.003883
     9  H    0.001821  -0.006976   0.380545   0.001828  -0.007002
    10  H   -0.000049  -0.000790   0.001828   0.513838  -0.039871
    11  H   -0.000789   0.003883  -0.007002  -0.039871   0.554303
 Mulliken charges:
               1
     1  C   -0.471058
     2  C   -0.289599
     3  N   -0.552459
     4  C   -0.289519
     5  H    0.221522
     6  H    0.209948
     7  H    0.203201
     8  H    0.192341
     9  H    0.380152
    10  H    0.203135
    11  H    0.192336
 Sum of Mulliken charges =   0.00000
 Mulliken charges with hydrogens summed into heavy atoms:
               1
     1  C   -0.039588
     2  C    0.105943
     3  N   -0.172307
     4  C    0.105951
 Electronic spatial extent (au):  <R**2>=            251.6154
 Charge=              0.0000 electrons
 Dipole moment (field-independent basis, Debye):
    X=              0.0099    Y=              0.6712    Z=              1.5712  Tot=              1.7086
 Quadrupole moment (field-independent basis, Debye-Ang):
   XX=            -25.4713   YY=            -26.1486   ZZ=            -26.8333
   XY=             -0.0066   XZ=             -0.0524   YZ=             -3.0593
 Traceless Quadrupole moment (field-independent basis, Debye-Ang):
   XX=              0.6798   YY=              0.0024   ZZ=             -0.6822
   XY=             -0.0066   XZ=             -0.0524   YZ=             -3.0593
 Octapole moment (field-independent basis, Debye-Ang**2):
  XXX=             -0.0557  YYY=             -3.5615  ZZZ=              2.0314  XYY=             -0.0306
  XXY=             -1.0828  XXZ=             -0.7202  XZZ=              0.0332  YZZ=              1.9691
  YYZ=              4.7268  XYZ=              0.0896
 Hexadecapole moment (field-independent basis, Debye-Ang**3):
 XXXX=           -148.1659 YYYY=           -136.6751 ZZZZ=            -55.6712 XXXY=             -0.0464
 XXXZ=             -0.0516 YYYX=              0.2425 YYYZ=             -8.5879 ZZZX=             -0.0841
 ZZZY=             -4.9692 XXYY=            -50.2980 XXZZ=            -32.2087 YYZZ=            -33.8719
 XXYZ=             -0.8287 YYXZ=             -0.1174 ZZXY=             -0.0277
 N-N= 1.281977027496D+02 E-N=-6.576427230845D+02  KE= 1.715933625761D+02
 Calling FoFJK, ICntrl=      2127 FMM=F ISym2X=0 I1Cent= 0 IOpClX= 0 NMat=1 NMatS=1 NMatT=0.
 ***** Axes restored to original set *****
 -------------------------------------------------------------------
 Center     Atomic                   Forces (Hartrees/Bohr)
 Number     Number              X              Y              Z
 -------------------------------------------------------------------
      1        6           0.008129120   -0.006463718    0.001037411
      2        6          -0.006964718    0.006364177   -0.007924363
      3        7           0.003666594   -0.008701257    0.016336980
      4        6          -0.005826073    0.008325891   -0.007158092
      5        1           0.001967874   -0.000208822   -0.003515004
      6        1          -0.001098462    0.000429622    0.001137173
      7        1           0.001074658    0.001447777   -0.002960672
      8        1           0.000349377   -0.002407480    0.002787927
      9        1          -0.002889956    0.002195400    0.000417273
     10        1           0.000026358    0.000108653   -0.003403816
     11        1           0.001565227   -0.001090243    0.003245184
 -------------------------------------------------------------------
 Cartesian Forces:  Max     0.016336980 RMS     0.005090322

 GradGradGradGradGradGradGradGradGradGradGradGradGradGradGradGradGradGrad
 Berny optimization.
 FormGI is forming the generalized inverse of G from B-inverse, IUseBI=4.
 Internal  Forces:  Max     0.008371077 RMS     0.002350199
 Search for a local minimum.
 Step number   1 out of a maximum of   72
 All quantities printed in internal units (Hartrees-Bohrs-Radians)
 Mixed Optimization -- RFO/linear search
 Second derivative matrix not updated -- first step.
 ITU=  0
     Eigenvalues ---    0.00386   0.02434   0.02604   0.03597   0.04405
     Eigenvalues ---    0.05056   0.05177   0.05364   0.06383   0.06425
     Eigenvalues ---    0.07257   0.07442   0.07523   0.08555   0.08784
     Eigenvalues ---    0.21706   0.26722   0.27240   0.29798   0.30740
     Eigenvalues ---    0.34148   0.34165   0.34175   0.34394   0.34406
     Eigenvalues ---    0.34524   0.44220
 RFO step:  Lambda=-2.49222381D-03 EMin= 3.85710329D-03
 Linear search not attempted -- first point.
 Iteration  1 RMS(Cart)=  0.01970514 RMS(Int)=  0.00043242
 Iteration  2 RMS(Cart)=  0.00039557 RMS(Int)=  0.00022649
 Iteration  3 RMS(Cart)=  0.00000007 RMS(Int)=  0.00022649
 Variable       Old X    -DE/DX   Delta X   Delta X   Delta X     New X
                                 (Linear)    (Quad)   (Total)
    R1        2.90387   0.00000   0.00000   0.00360   0.00344   2.90731
    R2        2.90390  -0.00006   0.00000   0.00355   0.00341   2.90731
    R3        2.07052  -0.00311   0.00000  -0.00903  -0.00903   2.06149
    R4        2.06455   0.00003   0.00000   0.00007   0.00007   2.06462
    R5        2.84706  -0.00837   0.00000  -0.02964  -0.02949   2.81757
    R6        2.06650   0.00059   0.00000   0.00170   0.00170   2.06820
    R7        2.07081   0.00095   0.00000   0.00275   0.00275   2.07356
    R8        2.84708  -0.00834   0.00000  -0.02948  -0.02933   2.81775
    R9        1.92892  -0.00258   0.00000  -0.00580  -0.00580   1.92312
   R10        2.06670   0.00054   0.00000   0.00157   0.00157   2.06827
   R11        2.07036   0.00111   0.00000   0.00323   0.00323   2.07359
    A1        1.49840   0.00036   0.00000   0.00951   0.00899   1.50739
    A2        1.98582  -0.00248   0.00000  -0.02409  -0.02411   1.96171
    A3        2.02834   0.00198   0.00000   0.01799   0.01784   2.04618
    A4        1.98587  -0.00248   0.00000  -0.02397  -0.02399   1.96188
    A5        2.02836   0.00200   0.00000   0.01818   0.01803   2.04639
    A6        1.91077   0.00042   0.00000   0.00193   0.00212   1.91289
    A7        1.56789  -0.00255   0.00000  -0.01216  -0.01213   1.55575
    A8        2.01997   0.00323   0.00000   0.03743   0.03746   2.05743
    A9        1.99288  -0.00209   0.00000  -0.03521  -0.03497   1.95791
   A10        1.99753  -0.00010   0.00000  -0.01329  -0.01310   1.98443
   A11        1.96689   0.00154   0.00000   0.01622   0.01582   1.98271
   A12        1.90262  -0.00025   0.00000   0.00422   0.00443   1.90705
   A13        1.53585   0.00602   0.00000   0.03231   0.03214   1.56798
   A14        1.96479  -0.00143   0.00000   0.01747   0.01661   1.98140
   A15        1.96279  -0.00132   0.00000   0.01958   0.01879   1.98158
   A16        1.56787  -0.00255   0.00000  -0.01220  -0.01218   1.55569
   A17        2.02040   0.00322   0.00000   0.03705   0.03707   2.05747
   A18        1.99317  -0.00213   0.00000  -0.03539  -0.03515   1.95803
   A19        1.99769  -0.00010   0.00000  -0.01326  -0.01308   1.98462
   A20        1.96737   0.00150   0.00000   0.01564   0.01523   1.98261
   A21        1.90155  -0.00019   0.00000   0.00513   0.00535   1.90689
    D1        0.33028  -0.00229   0.00000  -0.02695  -0.02693   0.30335
    D2        2.37691  -0.00299   0.00000  -0.03946  -0.03956   2.33735
    D3       -1.67576  -0.00232   0.00000  -0.03179  -0.03206  -1.70781
    D4       -1.66282   0.00057   0.00000  -0.00204  -0.00195  -1.66477
    D5        0.38380  -0.00013   0.00000  -0.01455  -0.01458   0.36923
    D6        2.61432   0.00054   0.00000  -0.00688  -0.00707   2.60725
    D7        2.37682   0.00049   0.00000   0.00156   0.00177   2.37858
    D8       -1.85974  -0.00021   0.00000  -0.01095  -0.01086  -1.87060
    D9        0.37078   0.00046   0.00000  -0.00328  -0.00336   0.36742
   D10       -0.33028   0.00230   0.00000   0.02697   0.02695  -0.30333
   D11       -2.37719   0.00300   0.00000   0.03956   0.03966  -2.33752
   D12        1.67635   0.00228   0.00000   0.03110   0.03137   1.70772
   D13        1.66278  -0.00056   0.00000   0.00194   0.00185   1.66463
   D14       -0.38412   0.00014   0.00000   0.01453   0.01456  -0.36956
   D15       -2.61377  -0.00058   0.00000   0.00607   0.00627  -2.60751
   D16       -2.37679  -0.00046   0.00000  -0.00136  -0.00157  -2.37837
   D17        1.85949   0.00023   0.00000   0.01123   0.01114   1.87062
   D18       -0.37016  -0.00049   0.00000   0.00276   0.00284  -0.36732
   D19       -0.33643   0.00139   0.00000   0.02360   0.02376  -0.31266
   D20       -2.31814   0.00039   0.00000  -0.01445  -0.01459  -2.33273
   D21       -2.40296  -0.00090   0.00000  -0.00902  -0.00893  -2.41189
   D22        1.89851  -0.00190   0.00000  -0.04706  -0.04728   1.85123
   D23        1.69311  -0.00179   0.00000  -0.01759  -0.01751   1.67560
   D24       -0.28860  -0.00278   0.00000  -0.05564  -0.05587  -0.34447
   D25        0.33642  -0.00138   0.00000  -0.02359  -0.02376   0.31266
   D26        2.40346   0.00091   0.00000   0.00858   0.00848   2.41195
   D27       -1.69354   0.00185   0.00000   0.01794   0.01785  -1.67569
   D28        2.32003  -0.00050   0.00000   0.01236   0.01253   2.33257
   D29       -1.89611   0.00178   0.00000   0.04453   0.04477  -1.85134
   D30        0.29007   0.00273   0.00000   0.05389   0.05414   0.34422
         Item               Value     Threshold  Converged?
 Maximum Force            0.008371     0.000450     NO 
 RMS     Force            0.002350     0.000300     NO 
 Maximum Displacement     0.064318     0.001800     NO 
 RMS     Displacement     0.019774     0.001200     NO 
 Predicted change in Energy=-1.301225D-03
 GradGradGradGradGradGradGradGradGradGradGradGradGradGradGradGradGradGrad

                          Input orientation:                          
 ---------------------------------------------------------------------
 Center     Atomic      Atomic             Coordinates (Angstroms)
 Number     Number       Type             X           Y           Z
 ---------------------------------------------------------------------
      1          6           0        0.885537   -0.496104   -0.459421
      2          6           0        1.772954    0.485189   -1.244587
      3          7           0        1.063250    0.091146   -2.495233
      4          6           0        0.564215   -1.140516   -1.818984
      5          1           0        0.017266   -0.007274   -0.015352
      6          1           0        1.375021   -1.124162    0.288652
      7          1           0        1.690375    1.550787   -1.009029
      8          1           0        2.830120    0.191656   -1.228279
      9          1           0        1.689147   -0.098558   -3.274924
     10          1           0       -0.482243   -1.371459   -2.041436
     11          1           0        1.179758   -2.028006   -2.012705
 ---------------------------------------------------------------------
                    Distance matrix (angstroms):
                    1          2          3          4          5
     1  C    0.000000
     2  C    1.538483   0.000000
     3  N    2.126258   1.490995   0.000000
     4  C    1.538481   2.105683   1.491087   0.000000
     5  H    1.090893   2.199086   2.693247   2.199199   0.000000
     6  H    1.092549   2.258137   3.053554   2.258274   1.784196
     7  H    2.267068   1.094443   2.175463   3.027767   2.492838
     8  H    2.201263   1.097282   2.176489   2.694057   3.069677
     9  H    2.954808   2.114250   1.017670   2.114453   3.664468
    10  H    2.267121   3.027875   2.175706   1.094483   2.493095
    11  H    2.201358   2.694074   2.176513   1.097296   3.069880
                    6          7          8          9         10
     6  H    0.000000
     7  H    2.989778   0.000000
     8  H    2.479873   1.787267   0.000000
     9  H    3.721507   2.802610   2.361102   0.000000
    10  H    2.989965   3.784925   3.751840   2.802982   0.000000
    11  H    2.480182   3.751779   2.875051   2.361238   1.787212
                   11
    11  H    0.000000
 Stoichiometry    C3H7N
 Framework group  C1[X(C3H7N)]
 Deg. of freedom    27
 Full point group                 C1      NOp   1
 Largest Abelian subgroup         C1      NOp   1
 Largest concise Abelian subgroup C1      NOp   1
                         Standard orientation:                         
 ---------------------------------------------------------------------
 Center     Atomic      Atomic             Coordinates (Angstroms)
 Number     Number       Type             X           Y           Z
 ---------------------------------------------------------------------
      1          6           0       -0.000412    1.077279   -0.063864
      2          6           0        1.052829   -0.034429    0.083513
      3          7           0        0.000418   -1.042305   -0.232212
      4          6           0       -1.052853   -0.035186    0.083496
      5          1           0       -0.000443    1.520337   -1.060733
      6          1           0       -0.000554    1.868953    0.689074
      7          1           0        1.892391   -0.040400   -0.618558
      8          1           0        1.437524   -0.107340    1.108561
      9          1           0        0.000838   -1.841171    0.398235
     10          1           0       -1.892533   -0.041695   -0.618494
     11          1           0       -1.437527   -0.108536    1.108535
 ---------------------------------------------------------------------
 Rotational constants (GHZ):     11.5077456     11.3801736      6.6090741
 Standard basis: 6-31+G(d) (6D, 7F)
 There are    90 symmetry adapted cartesian basis functions of A   symmetry.
 There are    90 symmetry adapted basis functions of A   symmetry.
    90 basis functions,   156 primitive gaussians,    90 cartesian basis functions
    16 alpha electrons       16 beta electrons
       nuclear repulsion energy       128.5951104822 Hartrees.
 NAtoms=   11 NActive=   11 NUniq=   11 SFac= 1.00D+00 NAtFMM=   60 NAOKFM=F Big=F
 Integral buffers will be    131072 words long.
 Raffenetti 2 integral format.
 Two-electron integral symmetry is turned on.
 One-electron integrals computed using PRISM.
 NBasis=    90 RedAO= T EigKep=  1.33D-04  NBF=    90
 NBsUse=    90 1.00D-06 EigRej= -1.00D+00 NBFU=    90
 Initial guess from the checkpoint file:  "/srv/scratch/z5358697/gauss/Gau-598290.chk"
 B after Tr=     0.000000    0.000000    0.000000
         Rot=    0.999953    0.005015   -0.000079   -0.008353 Ang=   1.12 deg.
 ExpMin= 4.38D-02 ExpMax= 4.17D+03 ExpMxC= 6.27D+02 IAcc=2 IRadAn=         4 AccDes= 0.00D+00
 Harris functional with IExCor= 1009 and IRadAn=       4 diagonalized for initial guess.
 HarFok:  IExCor= 1009 AccDes= 0.00D+00 IRadAn=         4 IDoV= 1 UseB2=F ITyADJ=14
 ICtDFT=  3500011 ScaDFX=  1.000000  1.000000  1.000000  1.000000
 FoFCou: FMM=F IPFlag=           0 FMFlag=      100000 FMFlg1=           0
         NFxFlg=           0 DoJE=T BraDBF=F KetDBF=T FulRan=T
         wScrn=  0.000000 ICntrl=     500 IOpCl=  0 I1Cent=   200000004 NGrid=           0
         NMat0=    1 NMatS0=      1 NMatT0=    0 NMatD0=    1 NMtDS0=    0 NMtDT0=    0
 Petite list used in FoFCou.
 Keep R1 ints in memory in canonical form, NReq=9342190.
 Requested convergence on RMS density matrix=1.00D-08 within 128 cycles.
 Requested convergence on MAX density matrix=1.00D-06.
 Requested convergence on             energy=1.00D-06.
 No special actions if energy rises.
 SCF Done:  E(RM062X) =  -173.153863054     A.U. after   10 cycles
            NFock= 10  Conv=0.64D-08     -V/T= 2.0089
 Calling FoFJK, ICntrl=      2127 FMM=F ISym2X=0 I1Cent= 0 IOpClX= 0 NMat=1 NMatS=1 NMatT=0.
 ***** Axes restored to original set *****
 -------------------------------------------------------------------
 Center     Atomic                   Forces (Hartrees/Bohr)
 Number     Number              X              Y              Z
 -------------------------------------------------------------------
      1        6          -0.000414853   -0.000789218    0.003193591
      2        6          -0.002417721    0.000198552   -0.005044985
      3        7           0.003016233   -0.004255426    0.005595345
      4        6           0.000593295    0.004230860   -0.003653713
      5        1          -0.000757402    0.000424907    0.000344529
      6        1          -0.000507720    0.000433827   -0.000208196
      7        1           0.000357065   -0.000466739    0.000400850
      8        1           0.000767922   -0.000367298    0.000220253
      9        1          -0.001588901    0.001650637   -0.001389902
     10        1           0.000432624   -0.000365481    0.000423803
     11        1           0.000519458   -0.000694620    0.000118425
 -------------------------------------------------------------------
 Cartesian Forces:  Max     0.005595345 RMS     0.002085562

 GradGradGradGradGradGradGradGradGradGradGradGradGradGradGradGradGradGrad
 Berny optimization.
 Using GEDIIS/GDIIS optimizer.
 FormGI is forming the generalized inverse of G from B-inverse, IUseBI=4.
 Internal  Forces:  Max     0.003098938 RMS     0.000786030
 Search for a local minimum.
 Step number   2 out of a maximum of   72
 All quantities printed in internal units (Hartrees-Bohrs-Radians)
 Mixed Optimization -- En-DIIS/RFO-DIIS
 Update second derivatives using D2CorX and points    1    2
 DE= -1.37D-03 DEPred=-1.30D-03 R= 1.05D+00
 TightC=F SS=  1.41D+00  RLast= 1.78D-01 DXNew= 5.0454D-01 5.3499D-01
 Trust test= 1.05D+00 RLast= 1.78D-01 DXMaxT set to 5.05D-01
 ITU=  1  0
 Use linear search instead of GDIIS.
     Eigenvalues ---    0.00370   0.02178   0.02474   0.03710   0.04474
     Eigenvalues ---    0.04843   0.04999   0.05103   0.06319   0.06505
     Eigenvalues ---    0.07380   0.07486   0.07617   0.08805   0.09885
     Eigenvalues ---    0.23030   0.25218   0.26840   0.29170   0.29942
     Eigenvalues ---    0.34096   0.34163   0.34344   0.34401   0.34490
     Eigenvalues ---    0.34832   0.44217
 RFO step:  Lambda=-6.16805887D-04 EMin= 3.70364449D-03
 Quartic linear search produced a step of  0.11855.
 Iteration  1 RMS(Cart)=  0.03369368 RMS(Int)=  0.00081512
 Iteration  2 RMS(Cart)=  0.00082270 RMS(Int)=  0.00018744
 Iteration  3 RMS(Cart)=  0.00000009 RMS(Int)=  0.00018744
 Variable       Old X    -DE/DX   Delta X   Delta X   Delta X     New X
                                 (Linear)    (Quad)   (Total)
    R1        2.90731   0.00088   0.00041   0.00595   0.00623   2.91354
    R2        2.90731   0.00088   0.00040   0.00591   0.00619   2.91350
    R3        2.06149   0.00094  -0.00107   0.00199   0.00092   2.06241
    R4        2.06462  -0.00062   0.00001  -0.00200  -0.00199   2.06263
    R5        2.81757  -0.00304  -0.00350  -0.01616  -0.01953   2.79804
    R6        2.06820  -0.00040   0.00020  -0.00108  -0.00088   2.06732
    R7        2.07356   0.00084   0.00033   0.00307   0.00340   2.07696
    R8        2.81775  -0.00310  -0.00348  -0.01634  -0.01968   2.79806
    R9        1.92312  -0.00022  -0.00069  -0.00123  -0.00192   1.92120
   R10        2.06827  -0.00042   0.00019  -0.00119  -0.00100   2.06727
   R11        2.07359   0.00083   0.00038   0.00310   0.00348   2.07707
    A1        1.50739  -0.00193   0.00107  -0.01464  -0.01408   1.49331
    A2        1.96171   0.00046  -0.00286   0.00146  -0.00145   1.96026
    A3        2.04618   0.00071   0.00211   0.00386   0.00622   2.05239
    A4        1.96188   0.00045  -0.00284   0.00125  -0.00165   1.96023
    A5        2.04639   0.00070   0.00214   0.00364   0.00603   2.05241
    A6        1.91289  -0.00049   0.00025   0.00187   0.00204   1.91493
    A7        1.55575   0.00056  -0.00144  -0.00656  -0.00833   1.54742
    A8        2.05743  -0.00074   0.00444   0.00075   0.00519   2.06263
    A9        1.95791   0.00019  -0.00415  -0.00402  -0.00793   1.94998
   A10        1.98443   0.00016  -0.00155   0.00300   0.00170   1.98613
   A11        1.98271  -0.00016   0.00187   0.00616   0.00791   1.99061
   A12        1.90705   0.00005   0.00053   0.00023   0.00070   1.90775
   A13        1.56798   0.00073   0.00381   0.00001   0.00312   1.57110
   A14        1.98140   0.00043   0.00197   0.02330   0.02482   2.00622
   A15        1.98158   0.00042   0.00223   0.02328   0.02508   2.00666
   A16        1.55569   0.00058  -0.00144  -0.00649  -0.00826   1.54743
   A17        2.05747  -0.00075   0.00439   0.00070   0.00510   2.06256
   A18        1.95803   0.00018  -0.00417  -0.00415  -0.00808   1.94994
   A19        1.98462   0.00014  -0.00155   0.00276   0.00146   1.98608
   A20        1.98261  -0.00015   0.00181   0.00621   0.00789   1.99050
   A21        1.90689   0.00006   0.00063   0.00048   0.00106   1.90795
    D1        0.30335  -0.00009  -0.00319   0.04175   0.03835   0.34170
    D2        2.33735   0.00023  -0.00469   0.04158   0.03672   2.37406
    D3       -1.70781  -0.00020  -0.00380   0.03863   0.03470  -1.67311
    D4       -1.66477   0.00018  -0.00023   0.04640   0.04613  -1.61864
    D5        0.36923   0.00050  -0.00173   0.04623   0.04450   0.41372
    D6        2.60725   0.00007  -0.00084   0.04328   0.04248   2.64974
    D7        2.37858  -0.00021   0.00021   0.03864   0.03874   2.41732
    D8       -1.87060   0.00011  -0.00129   0.03847   0.03710  -1.83350
    D9        0.36742  -0.00032  -0.00040   0.03552   0.03509   0.40251
   D10       -0.30333   0.00009   0.00319  -0.04177  -0.03837  -0.34169
   D11       -2.33752  -0.00022   0.00470  -0.04135  -0.03647  -2.37399
   D12        1.70772   0.00021   0.00372  -0.03858  -0.03473   1.67299
   D13        1.66463  -0.00018   0.00022  -0.04621  -0.04595   1.61868
   D14       -0.36956  -0.00049   0.00173  -0.04579  -0.04406  -0.41362
   D15       -2.60751  -0.00006   0.00074  -0.04302  -0.04232  -2.64983
   D16       -2.37837   0.00019  -0.00019  -0.03885  -0.03893  -2.41730
   D17        1.87062  -0.00011   0.00132  -0.03844  -0.03703   1.83359
   D18       -0.36732   0.00032   0.00034  -0.03567  -0.03530  -0.40262
   D19       -0.31266  -0.00032   0.00282  -0.04535  -0.04263  -0.35529
   D20       -2.33273  -0.00122  -0.00173  -0.07602  -0.07788  -2.41061
   D21       -2.41189   0.00020  -0.00106  -0.04363  -0.04468  -2.45657
   D22        1.85123  -0.00071  -0.00561  -0.07430  -0.07994   1.77129
   D23        1.67560   0.00013  -0.00208  -0.05179  -0.05398   1.62162
   D24       -0.34447  -0.00077  -0.00662  -0.08246  -0.08924  -0.43371
   D25        0.31266   0.00032  -0.00282   0.04535   0.04263   0.35530
   D26        2.41195  -0.00020   0.00101   0.04356   0.04455   2.45650
   D27       -1.67569  -0.00013   0.00212   0.05190   0.05413  -1.62156
   D28        2.33257   0.00124   0.00149   0.07604   0.07766   2.41023
   D29       -1.85134   0.00072   0.00531   0.07424   0.07958  -1.77176
   D30        0.34422   0.00079   0.00642   0.08259   0.08916   0.43338
         Item               Value     Threshold  Converged?
 Maximum Force            0.003099     0.000450     NO 
 RMS     Force            0.000786     0.000300     NO 
 Maximum Displacement     0.116144     0.001800     NO 
 RMS     Displacement     0.033810     0.001200     NO 
 Predicted change in Energy=-3.469618D-04
 GradGradGradGradGradGradGradGradGradGradGradGradGradGradGradGradGradGrad

                          Input orientation:                          
 ---------------------------------------------------------------------
 Center     Atomic      Atomic             Coordinates (Angstroms)
 Number     Number       Type             X           Y           Z
 ---------------------------------------------------------------------
      1          6           0        0.875176   -0.490476   -0.453513
      2          6           0        1.781702    0.472001   -1.246561
      3          7           0        1.045955    0.096922   -2.475524
      4          6           0        0.579494   -1.144931   -1.817799
      5          1           0        0.000729    0.012506   -0.037018
      6          1           0        1.343805   -1.109834    0.313392
      7          1           0        1.732999    1.539274   -1.011314
      8          1           0        2.830917    0.144897   -1.235141
      9          1           0        1.627686   -0.044965   -3.297135
     10          1           0       -0.456803   -1.405838   -2.051785
     11          1           0        1.223740   -2.016857   -1.998903
 ---------------------------------------------------------------------
                    Distance matrix (angstroms):
                    1          2          3          4          5
     1  C    0.000000
     2  C    1.541777   0.000000
     3  N    2.112518   1.480662   0.000000
     4  C    1.541757   2.094298   1.480671   0.000000
     5  H    1.091382   2.201362   2.654418   2.201320   0.000000
     6  H    1.091494   2.264378   3.053363   2.264371   1.785017
     7  H    2.273080   1.093977   2.167099   3.030833   2.506199
     8  H    2.199902   1.099081   2.174153   2.659333   3.076197
     9  H    2.975053   2.120337   1.016655   2.120629   3.643989
    10  H    2.273000   3.030771   2.167055   1.093954   2.506058
    11  H    2.199901   2.659277   2.174129   1.099139   3.076209
                    6          7          8          9         10
     6  H    0.000000
     7  H    2.987322   0.000000
     8  H    2.486726   1.788801   0.000000
     9  H    3.774976   2.783142   2.394919   0.000000
    10  H    2.987285   3.814643   3.725694   2.783517   0.000000
    11  H    2.486728   3.725687   2.799916   2.395190   1.788956
                   11
    11  H    0.000000
 Stoichiometry    C3H7N
 Framework group  C1[X(C3H7N)]
 Deg. of freedom    27
 Full point group                 C1      NOp   1
 Largest Abelian subgroup         C1      NOp   1
 Largest concise Abelian subgroup C1      NOp   1
                         Standard orientation:                         
 ---------------------------------------------------------------------
 Center     Atomic      Atomic             Coordinates (Angstroms)
 Number     Number       Type             X           Y           Z
 ---------------------------------------------------------------------
      1          6           0       -0.001213    1.078115   -0.080877
      2          6           0        1.047181   -0.037930    0.099106
      3          7           0        0.001122   -1.028098   -0.243949
      4          6           0       -1.047116   -0.040232    0.099128
      5          1           0       -0.001702    1.486933   -1.092798
      6          1           0       -0.002093    1.892858    0.645451
      7          1           0        1.907401   -0.052519   -0.576611
      8          1           0        1.400121   -0.100865    1.138073
      9          1           0        0.002341   -1.868729    0.327826
     10          1           0       -1.907240   -0.056707   -0.576632
     11          1           0       -1.399794   -0.104003    1.138193
 ---------------------------------------------------------------------
 Rotational constants (GHZ):     11.5644794     11.4107200      6.6683137
 Standard basis: 6-31+G(d) (6D, 7F)
 There are    90 symmetry adapted cartesian basis functions of A   symmetry.
 There are    90 symmetry adapted basis functions of A   symmetry.
    90 basis functions,   156 primitive gaussians,    90 cartesian basis functions
    16 alpha electrons       16 beta electrons
       nuclear repulsion energy       128.8970201633 Hartrees.
 NAtoms=   11 NActive=   11 NUniq=   11 SFac= 1.00D+00 NAtFMM=   60 NAOKFM=F Big=F
 Integral buffers will be    131072 words long.
 Raffenetti 2 integral format.
 Two-electron integral symmetry is turned on.
 One-electron integrals computed using PRISM.
 NBasis=    90 RedAO= T EigKep=  1.35D-04  NBF=    90
 NBsUse=    90 1.00D-06 EigRej= -1.00D+00 NBFU=    90
 Initial guess from the checkpoint file:  "/srv/scratch/z5358697/gauss/Gau-598290.chk"
 B after Tr=     0.000000    0.000000    0.000000
         Rot=    0.999999    0.001428   -0.000010   -0.000374 Ang=   0.17 deg.
 ExpMin= 4.38D-02 ExpMax= 4.17D+03 ExpMxC= 6.27D+02 IAcc=2 IRadAn=         4 AccDes= 0.00D+00
 Harris functional with IExCor= 1009 and IRadAn=       4 diagonalized for initial guess.
 HarFok:  IExCor= 1009 AccDes= 0.00D+00 IRadAn=         4 IDoV= 1 UseB2=F ITyADJ=14
 ICtDFT=  3500011 ScaDFX=  1.000000  1.000000  1.000000  1.000000
 FoFCou: FMM=F IPFlag=           0 FMFlag=      100000 FMFlg1=           0
         NFxFlg=           0 DoJE=T BraDBF=F KetDBF=T FulRan=T
         wScrn=  0.000000 ICntrl=     500 IOpCl=  0 I1Cent=   200000004 NGrid=           0
         NMat0=    1 NMatS0=      1 NMatT0=    0 NMatD0=    1 NMtDS0=    0 NMtDT0=    0
 Petite list used in FoFCou.
 Keep R1 ints in memory in canonical form, NReq=9342190.
 Requested convergence on RMS density matrix=1.00D-08 within 128 cycles.
 Requested convergence on MAX density matrix=1.00D-06.
 Requested convergence on             energy=1.00D-06.
 No special actions if energy rises.
 SCF Done:  E(RM062X) =  -173.154275005     A.U. after   11 cycles
            NFock= 11  Conv=0.23D-08     -V/T= 2.0088
 Calling FoFJK, ICntrl=      2127 FMM=F ISym2X=0 I1Cent= 0 IOpClX= 0 NMat=1 NMatS=1 NMatT=0.
 ***** Axes restored to original set *****
 -------------------------------------------------------------------
 Center     Atomic                   Forces (Hartrees/Bohr)
 Number     Number              X              Y              Z
 -------------------------------------------------------------------
      1        6           0.000559465   -0.000783358    0.001074178
      2        6          -0.001810211    0.001527809   -0.000849017
      3        7           0.002482301   -0.002112018    0.000881540
      4        6          -0.001639417    0.001649333   -0.000832469
      5        1          -0.000454361    0.000452523   -0.000317795
      6        1           0.000029571    0.000004805   -0.000083484
      7        1           0.000533757   -0.000062586    0.000965938
      8        1           0.000216569   -0.000474034   -0.000250070
      9        1          -0.000379347    0.000659844   -0.001186578
     10        1          -0.000070698   -0.000883557    0.000672194
     11        1           0.000532371    0.000021238   -0.000074439
 -------------------------------------------------------------------
 Cartesian Forces:  Max     0.002482301 RMS     0.000977058

 GradGradGradGradGradGradGradGradGradGradGradGradGradGradGradGradGradGrad
 Berny optimization.
 Using GEDIIS/GDIIS optimizer.
 FormGI is forming the generalized inverse of G from B-inverse, IUseBI=4.
 Internal  Forces:  Max     0.000677701 RMS     0.000328545
 Search for a local minimum.
 Step number   3 out of a maximum of   72
 All quantities printed in internal units (Hartrees-Bohrs-Radians)
 Mixed Optimization -- En-DIIS/RFO-DIIS
 Swapping is turned off.
 Update second derivatives using D2CorX and points    1    2    3
 DE= -4.12D-04 DEPred=-3.47D-04 R= 1.19D+00
 TightC=F SS=  1.41D+00  RLast= 2.92D-01 DXNew= 8.4853D-01 8.7511D-01
 Trust test= 1.19D+00 RLast= 2.92D-01 DXMaxT set to 8.49D-01
 ITU=  1  1  0
     Eigenvalues ---    0.00342   0.01869   0.02473   0.03726   0.04380
     Eigenvalues ---    0.04463   0.04978   0.05080   0.06366   0.06773
     Eigenvalues ---    0.07373   0.07630   0.07715   0.08771   0.10335
     Eigenvalues ---    0.23130   0.26090   0.26718   0.29571   0.29708
     Eigenvalues ---    0.34066   0.34163   0.34400   0.34429   0.34492
     Eigenvalues ---    0.34789   0.44483
 En-DIIS/RFO-DIIS IScMMF=        0 using points:     3    2
 RFO step:  Lambda=-2.93689900D-05.
 DidBck=F Rises=F RFO-DIIS coefs:    1.32234   -0.32234
 Iteration  1 RMS(Cart)=  0.01570930 RMS(Int)=  0.00024614
 Iteration  2 RMS(Cart)=  0.00021532 RMS(Int)=  0.00010659
 Iteration  3 RMS(Cart)=  0.00000002 RMS(Int)=  0.00010659
 Variable       Old X    -DE/DX   Delta X   Delta X   Delta X     New X
                                 (Linear)    (Quad)   (Total)
    R1        2.91354   0.00013   0.00201   0.00069   0.00261   2.91615
    R2        2.91350   0.00015   0.00200   0.00074   0.00266   2.91615
    R3        2.06241   0.00045   0.00030   0.00063   0.00092   2.06334
    R4        2.06263  -0.00005  -0.00064   0.00008  -0.00056   2.06206
    R5        2.79804  -0.00001  -0.00629  -0.00121  -0.00742   2.79063
    R6        2.06732   0.00012  -0.00028   0.00076   0.00048   2.06779
    R7        2.07696   0.00035   0.00110   0.00118   0.00227   2.07923
    R8        2.79806  -0.00002  -0.00634  -0.00121  -0.00747   2.79059
    R9        1.92120   0.00065  -0.00062   0.00153   0.00091   1.92211
   R10        2.06727   0.00013  -0.00032   0.00080   0.00048   2.06775
   R11        2.07707   0.00031   0.00112   0.00107   0.00219   2.07927
    A1        1.49331  -0.00007  -0.00454   0.00113  -0.00359   1.48972
    A2        1.96026  -0.00009  -0.00047  -0.00531  -0.00584   1.95442
    A3        2.05239   0.00000   0.00200   0.00210   0.00422   2.05661
    A4        1.96023  -0.00008  -0.00053  -0.00523  -0.00582   1.95441
    A5        2.05241  -0.00001   0.00194   0.00211   0.00416   2.05657
    A6        1.91493   0.00018   0.00066   0.00374   0.00438   1.91932
    A7        1.54742   0.00015  -0.00268  -0.00049  -0.00326   1.54416
    A8        2.06263  -0.00028   0.00167  -0.00005   0.00156   2.06419
    A9        1.94998  -0.00014  -0.00255  -0.00662  -0.00912   1.94086
   A10        1.98613   0.00068   0.00055   0.01396   0.01458   2.00071
   A11        1.99061  -0.00046   0.00255  -0.00636  -0.00392   1.98670
   A12        1.90775   0.00003   0.00023  -0.00071  -0.00051   1.90724
   A13        1.57110   0.00004   0.00101   0.00257   0.00326   1.57436
   A14        2.00622   0.00050   0.00800   0.01207   0.01965   2.02588
   A15        2.00666   0.00047   0.00808   0.01165   0.01932   2.02599
   A16        1.54743   0.00015  -0.00266  -0.00051  -0.00326   1.54417
   A17        2.06256  -0.00028   0.00164  -0.00003   0.00156   2.06412
   A18        1.94994  -0.00013  -0.00261  -0.00657  -0.00912   1.94082
   A19        1.98608   0.00068   0.00047   0.01399   0.01454   2.00062
   A20        1.99050  -0.00045   0.00254  -0.00624  -0.00381   1.98669
   A21        1.90795   0.00002   0.00034  -0.00087  -0.00056   1.90739
    D1        0.34170  -0.00037   0.01236  -0.00377   0.00850   0.35019
    D2        2.37406   0.00044   0.01183   0.01211   0.02388   2.39794
    D3       -1.67311   0.00009   0.01119   0.00445   0.01557  -1.65754
    D4       -1.61864  -0.00024   0.01487   0.00188   0.01672  -1.60193
    D5        0.41372   0.00056   0.01434   0.01776   0.03210   0.44582
    D6        2.64974   0.00021   0.01369   0.01010   0.02379   2.67353
    D7        2.41732  -0.00041   0.01249  -0.00031   0.01212   2.42944
    D8       -1.83350   0.00039   0.01196   0.01557   0.02750  -1.80600
    D9        0.40251   0.00004   0.01131   0.00791   0.01919   0.42171
   D10       -0.34169   0.00037  -0.01237   0.00377  -0.00850  -0.35020
   D11       -2.37399  -0.00044  -0.01176  -0.01215  -0.02384  -2.39783
   D12        1.67299  -0.00008  -0.01120  -0.00432  -0.01546   1.65753
   D13        1.61868   0.00024  -0.01481  -0.00196  -0.01675   1.60193
   D14       -0.41362  -0.00057  -0.01420  -0.01788  -0.03208  -0.44570
   D15       -2.64983  -0.00021  -0.01364  -0.01006  -0.02370  -2.67352
   D16       -2.41730   0.00041  -0.01255   0.00032  -0.01218  -2.42948
   D17        1.83359  -0.00039  -0.01194  -0.01560  -0.02752   1.80607
   D18       -0.40262  -0.00004  -0.01138  -0.00778  -0.01914  -0.42176
   D19       -0.35529   0.00036  -0.01374   0.00365  -0.01013  -0.36542
   D20       -2.41061  -0.00031  -0.02510  -0.01383  -0.03906  -2.44968
   D21       -2.45657   0.00044  -0.01440   0.00072  -0.01366  -2.47023
   D22        1.77129  -0.00023  -0.02577  -0.01676  -0.04260   1.72870
   D23        1.62162   0.00021  -0.01740  -0.00498  -0.02238   1.59924
   D24       -0.43371  -0.00047  -0.02876  -0.02246  -0.05131  -0.48502
   D25        0.35530  -0.00037   0.01374  -0.00365   0.01012   0.36542
   D26        2.45650  -0.00045   0.01436  -0.00070   0.01364   2.47014
   D27       -1.62156  -0.00022   0.01745   0.00491   0.02236  -1.59920
   D28        2.41023   0.00033   0.02503   0.01419   0.03935   2.44958
   D29       -1.77176   0.00025   0.02565   0.01715   0.04287  -1.72888
   D30        0.43338   0.00048   0.02874   0.02276   0.05159   0.48496
         Item               Value     Threshold  Converged?
 Maximum Force            0.000678     0.000450     NO 
 RMS     Force            0.000329     0.000300     NO 
 Maximum Displacement     0.050046     0.001800     NO 
 RMS     Displacement     0.015734     0.001200     NO 
 Predicted change in Energy=-9.205203D-05
 GradGradGradGradGradGradGradGradGradGradGradGradGradGradGradGradGradGrad

                          Input orientation:                          
 ---------------------------------------------------------------------
 Center     Atomic      Atomic             Coordinates (Angstroms)
 Number     Number       Type             X           Y           Z
 ---------------------------------------------------------------------
      1          6           0        0.871555   -0.488155   -0.452411
      2          6           0        1.784025    0.469234   -1.247489
      3          7           0        1.043484    0.096707   -2.469608
      4          6           0        0.583100   -1.146028   -1.818188
      5          1           0       -0.006155    0.022704   -0.051372
      6          1           0        1.331034   -1.103656    0.322669
      7          1           0        1.754366    1.535491   -1.003454
      8          1           0        2.828465    0.123297   -1.237775
      9          1           0        1.601202   -0.020186   -3.312137
     10          1           0       -0.448552   -1.427312   -2.050278
     11          1           0        1.242875   -2.009395   -1.991257
 ---------------------------------------------------------------------
                    Distance matrix (angstroms):
                    1          2          3          4          5
     1  C    0.000000
     2  C    1.543161   0.000000
     3  N    2.107299   1.476737   0.000000
     4  C    1.543163   2.092126   1.476717   0.000000
     5  H    1.091871   2.198824   2.637249   2.198816   0.000000
     6  H    1.091196   2.268166   3.052927   2.268142   1.787922
     7  H    2.275555   1.094229   2.173721   3.037467   2.508868
     8  H    2.195488   1.100283   2.168934   2.643810   3.074531
     9  H    2.988213   2.129725   1.017138   2.129774   3.635660
    10  H    2.275495   3.037393   2.173624   1.094208   2.508762
    11  H    2.195472   2.643792   2.168927   1.100300   3.074518
                    6          7          8          9         10
     6  H    0.000000
     7  H    2.983774   0.000000
     8  H    2.486503   1.789662   0.000000
     9  H    3.802461   2.788119   2.414485   0.000000
    10  H    2.983715   3.837564   3.715291   2.788151   0.000000
    11  H    2.486441   3.715320   2.762283   2.414555   1.789757
                   11
    11  H    0.000000
 Stoichiometry    C3H7N
 Framework group  C1[X(C3H7N)]
 Deg. of freedom    27
 Full point group                 C1      NOp   1
 Largest Abelian subgroup         C1      NOp   1
 Largest concise Abelian subgroup C1      NOp   1
                         Standard orientation:                         
 ---------------------------------------------------------------------
 Center     Atomic      Atomic             Coordinates (Angstroms)
 Number     Number       Type             X           Y           Z
 ---------------------------------------------------------------------
      1          6           0       -0.000156    1.077990   -0.085866
      2          6           0        1.046068   -0.040595    0.102620
      3          7           0        0.000130   -1.023259   -0.245426
      4          6           0       -1.046058   -0.040896    0.102637
      5          1           0       -0.000230    1.469995   -1.104941
      6          1           0       -0.000297    1.901417    0.630150
      7          1           0        1.918831   -0.050445   -0.557323
      8          1           0        1.381179   -0.099849    1.148953
      9          1           0        0.000323   -1.886084    0.293185
     10          1           0       -1.918732   -0.050998   -0.557385
     11          1           0       -1.381104   -0.100220    1.149004
 ---------------------------------------------------------------------
 Rotational constants (GHZ):     11.5752829     11.4271720      6.6829782
 Standard basis: 6-31+G(d) (6D, 7F)
 There are    90 symmetry adapted cartesian basis functions of A   symmetry.
 There are    90 symmetry adapted basis functions of A   symmetry.
    90 basis functions,   156 primitive gaussians,    90 cartesian basis functions
    16 alpha electrons       16 beta electrons
       nuclear repulsion energy       128.9777566462 Hartrees.
 NAtoms=   11 NActive=   11 NUniq=   11 SFac= 1.00D+00 NAtFMM=   60 NAOKFM=F Big=F
 Integral buffers will be    131072 words long.
 Raffenetti 2 integral format.
 Two-electron integral symmetry is turned on.
 One-electron integrals computed using PRISM.
 NBasis=    90 RedAO= T EigKep=  1.35D-04  NBF=    90
 NBsUse=    90 1.00D-06 EigRej= -1.00D+00 NBFU=    90
 Initial guess from the checkpoint file:  "/srv/scratch/z5358697/gauss/Gau-598290.chk"
 B after Tr=     0.000000    0.000000    0.000000
         Rot=    1.000000    0.000325    0.000007    0.000486 Ang=   0.07 deg.
 ExpMin= 4.38D-02 ExpMax= 4.17D+03 ExpMxC= 6.27D+02 IAcc=2 IRadAn=         4 AccDes= 0.00D+00
 Harris functional with IExCor= 1009 and IRadAn=       4 diagonalized for initial guess.
 HarFok:  IExCor= 1009 AccDes= 0.00D+00 IRadAn=         4 IDoV= 1 UseB2=F ITyADJ=14
 ICtDFT=  3500011 ScaDFX=  1.000000  1.000000  1.000000  1.000000
 FoFCou: FMM=F IPFlag=           0 FMFlag=      100000 FMFlg1=           0
         NFxFlg=           0 DoJE=T BraDBF=F KetDBF=T FulRan=T
         wScrn=  0.000000 ICntrl=     500 IOpCl=  0 I1Cent=   200000004 NGrid=           0
         NMat0=    1 NMatS0=      1 NMatT0=    0 NMatD0=    1 NMtDS0=    0 NMtDT0=    0
 Petite list used in FoFCou.
 Keep R1 ints in memory in canonical form, NReq=9342190.
 Requested convergence on RMS density matrix=1.00D-08 within 128 cycles.
 Requested convergence on MAX density matrix=1.00D-06.
 Requested convergence on             energy=1.00D-06.
 No special actions if energy rises.
 SCF Done:  E(RM062X) =  -173.154359851     A.U. after   10 cycles
            NFock= 10  Conv=0.62D-08     -V/T= 2.0088
 Calling FoFJK, ICntrl=      2127 FMM=F ISym2X=0 I1Cent= 0 IOpClX= 0 NMat=1 NMatS=1 NMatT=0.
 ***** Axes restored to original set *****
 -------------------------------------------------------------------
 Center     Atomic                   Forces (Hartrees/Bohr)
 Number     Number              X              Y              Z
 -------------------------------------------------------------------
      1        6          -0.000215720    0.000215319   -0.000159185
      2        6           0.000054254   -0.000342000    0.000634692
      3        7          -0.000088409    0.000384784   -0.000825224
      4        6           0.000138565   -0.000249679    0.000672098
      5        1          -0.000153807    0.000145498   -0.000084925
      6        1           0.000108615   -0.000035624   -0.000119324
      7        1          -0.000007522   -0.000099364    0.000055206
      8        1           0.000079499    0.000053046   -0.000233596
      9        1          -0.000013718   -0.000077371    0.000222346
     10        1           0.000061507   -0.000016224    0.000086382
     11        1           0.000036737    0.000021617   -0.000248471
 -------------------------------------------------------------------
 Cartesian Forces:  Max     0.000825224 RMS     0.000263876

 GradGradGradGradGradGradGradGradGradGradGradGradGradGradGradGradGradGrad
 Berny optimization.
 Using GEDIIS/GDIIS optimizer.
 FormGI is forming the generalized inverse of G from B-inverse, IUseBI=4.
 Internal  Forces:  Max     0.000283040 RMS     0.000107677
 Search for a local minimum.
 Step number   4 out of a maximum of   72
 All quantities printed in internal units (Hartrees-Bohrs-Radians)
 Mixed Optimization -- En-DIIS/RFO-DIIS
 Swapping is turned off.
 Update second derivatives using D2CorX and points    1    2    3    4
 DE= -8.48D-05 DEPred=-9.21D-05 R= 9.22D-01
 TightC=F SS=  1.41D+00  RLast= 1.53D-01 DXNew= 1.4270D+00 4.5836D-01
 Trust test= 9.22D-01 RLast= 1.53D-01 DXMaxT set to 8.49D-01
 ITU=  1  1  1  0
     Eigenvalues ---    0.00315   0.02098   0.02472   0.03754   0.04356
     Eigenvalues ---    0.04717   0.04987   0.05104   0.06252   0.06740
     Eigenvalues ---    0.07326   0.07680   0.07763   0.08790   0.09763
     Eigenvalues ---    0.22978   0.26415   0.26689   0.29214   0.29654
     Eigenvalues ---    0.34034   0.34163   0.34336   0.34400   0.34491
     Eigenvalues ---    0.34757   0.44432
 En-DIIS/RFO-DIIS IScMMF=        0 using points:     4    3    2
 RFO step:  Lambda=-2.13620247D-06.
 DidBck=F Rises=F RFO-DIIS coefs:    0.94070    0.05537    0.00393
 Iteration  1 RMS(Cart)=  0.00225784 RMS(Int)=  0.00000548
 Iteration  2 RMS(Cart)=  0.00000380 RMS(Int)=  0.00000419
 Iteration  3 RMS(Cart)=  0.00000000 RMS(Int)=  0.00000419
 Variable       Old X    -DE/DX   Delta X   Delta X   Delta X     New X
                                 (Linear)    (Quad)   (Total)
    R1        2.91615  -0.00022  -0.00018  -0.00085  -0.00102   2.91513
    R2        2.91615  -0.00021  -0.00018  -0.00084  -0.00102   2.91514
    R3        2.06334   0.00016  -0.00006   0.00037   0.00032   2.06365
    R4        2.06206  -0.00002   0.00004  -0.00002   0.00002   2.06208
    R5        2.79063   0.00027   0.00052   0.00084   0.00135   2.79198
    R6        2.06779  -0.00008  -0.00002  -0.00016  -0.00018   2.06761
    R7        2.07923   0.00006  -0.00015   0.00020   0.00005   2.07929
    R8        2.79059   0.00028   0.00052   0.00088   0.00139   2.79198
    R9        1.92211  -0.00018  -0.00005  -0.00032  -0.00037   1.92175
   R10        2.06775  -0.00007  -0.00002  -0.00012  -0.00015   2.06761
   R11        2.07927   0.00004  -0.00014   0.00016   0.00002   2.07929
    A1        1.48972   0.00008   0.00027  -0.00057  -0.00030   1.48942
    A2        1.95442   0.00003   0.00035  -0.00039  -0.00004   1.95439
    A3        2.05661  -0.00014  -0.00027  -0.00049  -0.00077   2.05584
    A4        1.95441   0.00003   0.00035  -0.00037  -0.00002   1.95440
    A5        2.05657  -0.00014  -0.00027  -0.00045  -0.00073   2.05585
    A6        1.91932   0.00011  -0.00027   0.00167   0.00140   1.92072
    A7        1.54416   0.00006   0.00023  -0.00044  -0.00021   1.54395
    A8        2.06419  -0.00007  -0.00011  -0.00048  -0.00059   2.06360
    A9        1.94086   0.00013   0.00057   0.00156   0.00213   1.94299
   A10        2.00071  -0.00002  -0.00087   0.00085  -0.00002   2.00069
   A11        1.98670  -0.00008   0.00020  -0.00166  -0.00146   1.98524
   A12        1.90724   0.00000   0.00003   0.00003   0.00006   1.90730
   A13        1.57436  -0.00026  -0.00021  -0.00181  -0.00201   1.57235
   A14        2.02588   0.00006  -0.00126  -0.00057  -0.00181   2.02407
   A15        2.02599   0.00006  -0.00124  -0.00067  -0.00190   2.02409
   A16        1.54417   0.00005   0.00023  -0.00045  -0.00023   1.54394
   A17        2.06412  -0.00007  -0.00011  -0.00044  -0.00054   2.06358
   A18        1.94082   0.00013   0.00057   0.00159   0.00216   1.94299
   A19        2.00062  -0.00002  -0.00087   0.00093   0.00006   2.00068
   A20        1.98669  -0.00007   0.00019  -0.00166  -0.00145   1.98524
   A21        1.90739  -0.00001   0.00003  -0.00009  -0.00006   1.90734
    D1        0.35019   0.00012  -0.00065   0.00439   0.00374   0.35394
    D2        2.39794   0.00011  -0.00156   0.00501   0.00345   2.40139
    D3       -1.65754   0.00016  -0.00106   0.00614   0.00509  -1.65245
    D4       -1.60193   0.00005  -0.00117   0.00505   0.00388  -1.59804
    D5        0.44582   0.00003  -0.00208   0.00567   0.00359   0.44941
    D6        2.67353   0.00009  -0.00158   0.00680   0.00523   2.67875
    D7        2.42944  -0.00002  -0.00087   0.00346   0.00259   2.43203
    D8       -1.80600  -0.00003  -0.00178   0.00407   0.00229  -1.80371
    D9        0.42171   0.00002  -0.00128   0.00520   0.00393   0.42564
   D10       -0.35020  -0.00012   0.00066  -0.00439  -0.00374  -0.35394
   D11       -2.39783  -0.00011   0.00156  -0.00509  -0.00354  -2.40137
   D12        1.65753  -0.00016   0.00105  -0.00613  -0.00508   1.65245
   D13        1.60193  -0.00005   0.00117  -0.00507  -0.00390   1.59803
   D14       -0.44570  -0.00004   0.00208  -0.00577  -0.00370  -0.44940
   D15       -2.67352  -0.00008   0.00157  -0.00681  -0.00524  -2.67877
   D16       -2.42948   0.00002   0.00088  -0.00341  -0.00254  -2.43202
   D17        1.80607   0.00003   0.00178  -0.00412  -0.00234   1.80373
   D18       -0.42176  -0.00002   0.00127  -0.00515  -0.00388  -0.42564
   D19       -0.36542  -0.00006   0.00077  -0.00435  -0.00358  -0.36900
   D20       -2.44968   0.00000   0.00262  -0.00240   0.00023  -2.44945
   D21       -2.47023   0.00000   0.00099  -0.00379  -0.00281  -2.47304
   D22        1.72870   0.00006   0.00284  -0.00184   0.00100   1.72970
   D23        1.59924   0.00009   0.00154  -0.00309  -0.00156   1.59768
   D24       -0.48502   0.00015   0.00339  -0.00114   0.00225  -0.48277
   D25        0.36542   0.00006  -0.00077   0.00435   0.00358   0.36900
   D26        2.47014   0.00000  -0.00098   0.00385   0.00287   2.47301
   D27       -1.59920  -0.00010  -0.00154   0.00306   0.00153  -1.59767
   D28        2.44958   0.00001  -0.00264   0.00249  -0.00015   2.44943
   D29       -1.72888  -0.00005  -0.00286   0.00199  -0.00087  -1.72975
   D30        0.48496  -0.00015  -0.00341   0.00120  -0.00221   0.48276
         Item               Value     Threshold  Converged?
 Maximum Force            0.000283     0.000450     YES
 RMS     Force            0.000108     0.000300     YES
 Maximum Displacement     0.006076     0.001800     NO 
 RMS     Displacement     0.002258     0.001200     NO 
 Predicted change in Energy=-4.194089D-06
 GradGradGradGradGradGradGradGradGradGradGradGradGradGradGradGradGradGrad

                          Input orientation:                          
 ---------------------------------------------------------------------
 Center     Atomic      Atomic             Coordinates (Angstroms)
 Number     Number       Type             X           Y           Z
 ---------------------------------------------------------------------
      1          6           0        0.870365   -0.487307   -0.452298
      2          6           0        1.784347    0.468119   -1.246951
      3          7           0        1.041403    0.098169   -2.469258
      4          6           0        0.584029   -1.146307   -1.817370
      5          1           0       -0.007852    0.024710   -0.053398
      6          1           0        1.329194   -1.102518    0.323411
      7          1           0        1.756937    1.534065   -1.001724
      8          1           0        2.828328    0.120629   -1.240770
      9          1           0        1.599504   -0.019268   -3.311224
     10          1           0       -0.446945   -1.430110   -2.049037
     11          1           0        1.246090   -2.007482   -1.992683
 ---------------------------------------------------------------------
                    Distance matrix (angstroms):
                    1          2          3          4          5
     1  C    0.000000
     2  C    1.542620   0.000000
     3  N    2.107170   1.477452   0.000000
     4  C    1.542624   2.091055   1.477454   0.000000
     5  H    1.092038   2.198445   2.634903   2.198454   0.000000
     6  H    1.091208   2.267180   3.053437   2.267186   1.788944
     7  H    2.274604   1.094133   2.174268   3.037331   2.508377
     8  H    2.196564   1.100311   2.168591   2.640923   3.076194
     9  H    2.987334   2.129070   1.016944   2.129086   3.633037
    10  H    2.274590   3.037315   2.174260   1.094131   2.508362
    11  H    2.196563   2.640916   2.168591   1.100311   3.076199
                    6          7          8          9         10
     6  H    0.000000
     7  H    2.981698   0.000000
     8  H    2.488002   1.789643   0.000000
     9  H    3.802246   2.787726   2.411713   0.000000
    10  H    2.981694   3.839309   3.712883   2.787750   0.000000
    11  H    2.488003   3.712886   2.756394   2.411731   1.789666
                   11
    11  H    0.000000
 Stoichiometry    C3H7N
 Framework group  C1[X(C3H7N)]
 Deg. of freedom    27
 Full point group                 C1      NOp   1
 Largest Abelian subgroup         C1      NOp   1
 Largest concise Abelian subgroup C1      NOp   1
                         Standard orientation:                         
 ---------------------------------------------------------------------
 Center     Atomic      Atomic             Coordinates (Angstroms)
 Number     Number       Type             X           Y           Z
 ---------------------------------------------------------------------
      1          6           0       -0.000044    1.077776   -0.086908
      2          6           0        1.045527   -0.040271    0.103952
      3          7           0        0.000040   -1.023261   -0.247547
      4          6           0       -1.045529   -0.040357    0.103956
      5          1           0       -0.000055    1.467523   -1.107029
      6          1           0       -0.000073    1.901837    0.628394
      7          1           0        1.919664   -0.049322   -0.554022
      8          1           0        1.378204   -0.102527    1.150916
      9          1           0        0.000092   -1.885470    0.291684
     10          1           0       -1.919645   -0.049467   -0.554040
     11          1           0       -1.378189   -0.102636    1.150924
 ---------------------------------------------------------------------
 Rotational constants (GHZ):     11.5781572     11.4238440      6.6873349
 Standard basis: 6-31+G(d) (6D, 7F)
 There are    90 symmetry adapted cartesian basis functions of A   symmetry.
 There are    90 symmetry adapted basis functions of A   symmetry.
    90 basis functions,   156 primitive gaussians,    90 cartesian basis functions
    16 alpha electrons       16 beta electrons
       nuclear repulsion energy       128.9844126998 Hartrees.
 NAtoms=   11 NActive=   11 NUniq=   11 SFac= 1.00D+00 NAtFMM=   60 NAOKFM=F Big=F
 Integral buffers will be    131072 words long.
 Raffenetti 2 integral format.
 Two-electron integral symmetry is turned on.
 One-electron integrals computed using PRISM.
 NBasis=    90 RedAO= T EigKep=  1.35D-04  NBF=    90
 NBsUse=    90 1.00D-06 EigRej= -1.00D+00 NBFU=    90
 Initial guess from the checkpoint file:  "/srv/scratch/z5358697/gauss/Gau-598290.chk"
 B after Tr=     0.000000    0.000000    0.000000
         Rot=    1.000000   -0.000120    0.000002    0.000052 Ang=  -0.01 deg.
 Keep R1 ints in memory in canonical form, NReq=9342190.
 Requested convergence on RMS density matrix=1.00D-08 within 128 cycles.
 Requested convergence on MAX density matrix=1.00D-06.
 Requested convergence on             energy=1.00D-06.
 No special actions if energy rises.
 SCF Done:  E(RM062X) =  -173.154364697     A.U. after    9 cycles
            NFock=  9  Conv=0.19D-08     -V/T= 2.0088
 Calling FoFJK, ICntrl=      2127 FMM=F ISym2X=0 I1Cent= 0 IOpClX= 0 NMat=1 NMatS=1 NMatT=0.
 ***** Axes restored to original set *****
 -------------------------------------------------------------------
 Center     Atomic                   Forces (Hartrees/Bohr)
 Number     Number              X              Y              Z
 -------------------------------------------------------------------
      1        6           0.000230973   -0.000178026    0.000019737
      2        6          -0.000132159    0.000065481    0.000223055
      3        7          -0.000032679    0.000138589   -0.000317604
      4        6          -0.000170807    0.000015457    0.000206903
      5        1          -0.000022892    0.000061156   -0.000127421
      6        1          -0.000010716    0.000005450    0.000006246
      7        1           0.000032275   -0.000015957    0.000019153
      8        1          -0.000002693   -0.000034868   -0.000025118
      9        1           0.000054186   -0.000039167   -0.000009208
     10        1           0.000019260   -0.000037002    0.000010937
     11        1           0.000035252    0.000018888   -0.000006680
 -------------------------------------------------------------------
 Cartesian Forces:  Max     0.000317604 RMS     0.000107671

 GradGradGradGradGradGradGradGradGradGradGradGradGradGradGradGradGradGrad
 Berny optimization.
 Using GEDIIS/GDIIS optimizer.
 FormGI is forming the generalized inverse of G from B-inverse, IUseBI=4.
 Internal  Forces:  Max     0.000154650 RMS     0.000044966
 Search for a local minimum.
 Step number   5 out of a maximum of   72
 All quantities printed in internal units (Hartrees-Bohrs-Radians)
 Mixed Optimization -- En-DIIS/RFO-DIIS
 Swapping is turned off.
 Update second derivatives using D2CorX and points    1    2    3    4    5
 DE= -4.85D-06 DEPred=-4.19D-06 R= 1.16D+00
 TightC=F SS=  1.41D+00  RLast= 1.90D-02 DXNew= 1.4270D+00 5.7141D-02
 Trust test= 1.16D+00 RLast= 1.90D-02 DXMaxT set to 8.49D-01
 ITU=  1  1  1  1  0
     Eigenvalues ---    0.00325   0.01671   0.02471   0.03744   0.04352
     Eigenvalues ---    0.04855   0.05097   0.05182   0.05897   0.06759
     Eigenvalues ---    0.07326   0.07677   0.07753   0.08780   0.11534
     Eigenvalues ---    0.22308   0.24736   0.26677   0.29507   0.29633
     Eigenvalues ---    0.33973   0.34163   0.34380   0.34401   0.34503
     Eigenvalues ---    0.34885   0.44862
 En-DIIS/RFO-DIIS IScMMF=        0 using points:     5    4    3    2
 RFO step:  Lambda=-3.54408245D-07.
 DidBck=F Rises=F RFO-DIIS coefs:    1.17734   -0.14293   -0.07256    0.03815
 Iteration  1 RMS(Cart)=  0.00054242 RMS(Int)=  0.00001063
 Iteration  2 RMS(Cart)=  0.00000041 RMS(Int)=  0.00001062
 Variable       Old X    -DE/DX   Delta X   Delta X   Delta X     New X
                                 (Linear)    (Quad)   (Total)
    R1        2.91513  -0.00008  -0.00033  -0.00019  -0.00052   2.91461
    R2        2.91514  -0.00008  -0.00033  -0.00021  -0.00052   2.91461
    R3        2.06365   0.00000   0.00005  -0.00001   0.00004   2.06369
    R4        2.06208   0.00000   0.00006  -0.00007  -0.00001   2.06207
    R5        2.79198   0.00015   0.00073   0.00013   0.00085   2.79283
    R6        2.06761  -0.00001   0.00002  -0.00010  -0.00008   2.06753
    R7        2.07929   0.00001  -0.00004   0.00006   0.00001   2.07930
    R8        2.79198   0.00015   0.00074   0.00012   0.00085   2.79283
    R9        1.92175   0.00004   0.00004   0.00002   0.00005   1.92180
   R10        2.06761  -0.00001   0.00003  -0.00010  -0.00007   2.06754
   R11        2.07929   0.00001  -0.00005   0.00006   0.00001   2.07929
    A1        1.48942   0.00005   0.00036  -0.00033   0.00005   1.48948
    A2        1.95439  -0.00005  -0.00015  -0.00077  -0.00092   1.95347
    A3        2.05584   0.00000  -0.00023   0.00065   0.00040   2.05625
    A4        1.95440  -0.00005  -0.00014  -0.00080  -0.00093   1.95346
    A5        2.05585   0.00000  -0.00022   0.00063   0.00040   2.05625
[...]
 Atom     6 has atomic number  1 and mass   1.00783
 Atom     7 has atomic number  1 and mass   1.00783
 Atom     8 has atomic number  1 and mass   1.00783
 Atom     9 has atomic number  1 and mass   1.00783
 Atom    10 has atomic number  1 and mass   1.00783
 Atom    11 has atomic number  1 and mass   1.00783
 Molecular mass:    57.05785 amu.
 Principal axes and moments of inertia in atomic units:
                           1         2         3
     Eigenvalues --   155.87465 157.98020 269.87451
           X           -0.00006   1.00000   0.00000
           Y            0.99937   0.00006  -0.03548
           Z            0.03548   0.00000   0.99937
 This molecule is an asymmetric top.
 Rotational symmetry number  1.
 Rotational temperatures (Kelvin)      0.55566     0.54826     0.32094
 Rotational constants (GHZ):          11.57816    11.42384     6.68733
 Zero-point vibrational energy     265682.6 (Joules/Mol)
                                   63.49967 (Kcal/Mol)
 Warning -- explicit consideration of   1 degrees of freedom as
           vibrations may cause significant error
 Vibrational temperatures:    339.65   946.21  1115.43  1215.24  1364.85
          (Kelvin)           1377.99  1421.98  1518.17  1551.93  1632.48
                             1703.70  1735.56  1777.12  1839.72  1859.15
                             1974.54  2006.73  2167.86  2200.33  2243.75
                             4375.91  4379.97  4481.82  4497.70  4500.35
                             4572.14  5108.21
 
 Zero-point correction=                           0.101193 (Hartree/Particle)
 Thermal correction to Energy=                    0.105122
 Thermal correction to Enthalpy=                  0.106066
 Thermal correction to Gibbs Free Energy=         0.075268
 Sum of electronic and zero-point Energies=           -173.053172
 Sum of electronic and thermal Energies=              -173.049243
 Sum of electronic and thermal Enthalpies=            -173.048298
 Sum of electronic and thermal Free Energies=         -173.079097
 
                     E (Thermal)             CV                S
                      KCal/Mol        Cal/Mol-Kelvin    Cal/Mol-Kelvin
 Total                   65.965             13.392             64.821
 Electronic               0.000              0.000              0.000
 Translational            0.889              2.981             38.046
 Rotational               0.889              2.981             23.412
 Vibrational             64.188              7.431              3.364
 Vibration     1          0.655              1.786              1.832
                       Q            Log10(Q)             Ln(Q)
 Total Bot       0.239541D-34        -34.620621        -79.716925
 Total V=0       0.841205D+12         11.924902         27.458101
 Vib (Bot)       0.484545D-46        -46.314665       -106.643458
 Vib (Bot)    1  0.832099D+00         -0.079825         -0.183804
 Vib (V=0)       0.170160D+01          0.230857          0.531568
 Vib (V=0)    1  0.147077D+01          0.167544          0.385784
 Electronic      0.100000D+01          0.000000          0.000000
 Translational   0.169406D+08          7.228928         16.645223
 Rotational      0.291821D+05          4.465116         10.281311
 ***** Axes restored to original set *****
 -------------------------------------------------------------------
 Center     Atomic                   Forces (Hartrees/Bohr)
 Number     Number              X              Y              Z
 -------------------------------------------------------------------
      1        6           0.000230975   -0.000178026    0.000019735
      2        6          -0.000132157    0.000065483    0.000223054
      3        7          -0.000032678    0.000138590   -0.000317604
      4        6          -0.000170808    0.000015456    0.000206900
      5        1          -0.000022894    0.000061157   -0.000127420
      6        1          -0.000010715    0.000005449    0.000006247
      7        1           0.000032275   -0.000015958    0.000019153
      8        1          -0.000002694   -0.000034868   -0.000025117
      9        1           0.000054186   -0.000039168   -0.000009207
     10        1           0.000019261   -0.000037002    0.000010938
     11        1           0.000035252    0.000018888   -0.000006679
 -------------------------------------------------------------------
 Cartesian Forces:  Max     0.000317604 RMS     0.000107671
 FormGI is forming the generalized inverse of G from B-inverse, IUseBI=4.

 GradGradGradGradGradGradGradGradGradGradGradGradGradGradGradGradGradGrad
 Berny optimization.
 Internal  Forces:  Max     0.000154650 RMS     0.000044966
 Search for a local minimum.
 Step number   1 out of a maximum of    2
 All quantities printed in internal units (Hartrees-Bohrs-Radians)
 Second derivative matrix not updated -- analytic derivatives used.
 ITU=  0
     Eigenvalues ---    0.00319   0.01294   0.01856   0.03438   0.04095
     Eigenvalues ---    0.04393   0.04483   0.04890   0.04974   0.06182
     Eigenvalues ---    0.06509   0.07363   0.08070   0.08645   0.09010
     Eigenvalues ---    0.22273   0.22336   0.28055   0.29628   0.30397
     Eigenvalues ---    0.33006   0.33182   0.34813   0.34836   0.35200
     Eigenvalues ---    0.35466   0.44980
 Angle between quadratic step and forces=  65.26 degrees.
 Linear search not attempted -- first point.
 Iteration  1 RMS(Cart)=  0.00114705 RMS(Int)=  0.00000134
 Iteration  2 RMS(Cart)=  0.00000123 RMS(Int)=  0.00000055
 Iteration  3 RMS(Cart)=  0.00000000 RMS(Int)=  0.00000055
 Variable       Old X    -DE/DX   Delta X   Delta X   Delta X     New X
                                 (Linear)    (Quad)   (Total)
    R1        2.91513  -0.00008   0.00000  -0.00060  -0.00060   2.91453
    R2        2.91514  -0.00008   0.00000  -0.00061  -0.00061   2.91453
    R3        2.06365   0.00000   0.00000   0.00007   0.00007   2.06372
    R4        2.06208   0.00000   0.00000  -0.00008  -0.00008   2.06201
    R5        2.79198   0.00015   0.00000   0.00098   0.00098   2.79296
    R6        2.06761  -0.00001   0.00000  -0.00008  -0.00008   2.06753
    R7        2.07929   0.00001   0.00000   0.00003   0.00003   2.07932
    R8        2.79198   0.00015   0.00000   0.00098   0.00098   2.79296
    R9        1.92175   0.00004   0.00000   0.00013   0.00013   1.92188
   R10        2.06761  -0.00001   0.00000  -0.00007  -0.00007   2.06753
   R11        2.07929   0.00001   0.00000   0.00003   0.00003   2.07932
    A1        1.48942   0.00005   0.00000   0.00005   0.00005   1.48947
    A2        1.95439  -0.00005   0.00000  -0.00158  -0.00158   1.95281
    A3        2.05584   0.00000   0.00000   0.00099   0.00099   2.05683
    A4        1.95440  -0.00005   0.00000  -0.00158  -0.00158   1.95281
    A5        2.05585   0.00000   0.00000   0.00099   0.00099   2.05683
    A6        1.92072   0.00005   0.00000   0.00074   0.00074   1.92146
    A7        1.54395   0.00005   0.00000   0.00022   0.00022   1.54416
    A8        2.06360   0.00003   0.00000   0.00036   0.00036   2.06396
    A9        1.94299  -0.00005   0.00000  -0.00024  -0.00024   1.94275
   A10        2.00069   0.00000   0.00000   0.00046   0.00046   2.00115
   A11        1.98524  -0.00003   0.00000  -0.00089  -0.00089   1.98435
   A12        1.90730   0.00001   0.00000   0.00005   0.00005   1.90734
   A13        1.57235  -0.00011   0.00000  -0.00106  -0.00106   1.57129
   A14        2.02407   0.00004   0.00000  -0.00113  -0.00113   2.02293
   A15        2.02409   0.00004   0.00000  -0.00115  -0.00116   2.02293
   A16        1.54394   0.00005   0.00000   0.00022   0.00022   1.54416
   A17        2.06358   0.00003   0.00000   0.00039   0.00039   2.06396
   A18        1.94299  -0.00005   0.00000  -0.00024  -0.00024   1.94275
   A19        2.00068   0.00000   0.00000   0.00047   0.00047   2.00115
   A20        1.98524  -0.00003   0.00000  -0.00089  -0.00089   1.98435
   A21        1.90734   0.00001   0.00000   0.00001   0.00001   1.90734
    D1        0.35394  -0.00002   0.00000   0.00085   0.00085   0.35479
    D2        2.40139   0.00001   0.00000   0.00161   0.00161   2.40300
    D3       -1.65245   0.00000   0.00000   0.00177   0.00177  -1.65069
    D4       -1.59804   0.00002   0.00000   0.00266   0.00266  -1.59538
    D5        0.44941   0.00005   0.00000   0.00342   0.00342   0.45283
    D6        2.67875   0.00004   0.00000   0.00358   0.00358   2.68233
    D7        2.43203   0.00000   0.00000   0.00221   0.00221   2.43424
    D8       -1.80371   0.00003   0.00000   0.00297   0.00297  -1.80074
    D9        0.42564   0.00002   0.00000   0.00313   0.00313   0.42876
   D10       -0.35394   0.00002   0.00000  -0.00086  -0.00086  -0.35479
   D11       -2.40137  -0.00001   0.00000  -0.00163  -0.00163  -2.40300
   D12        1.65245   0.00000   0.00000  -0.00176  -0.00176   1.65069
   D13        1.59803  -0.00002   0.00000  -0.00266  -0.00266   1.59538
   D14       -0.44940  -0.00005   0.00000  -0.00343  -0.00343  -0.45283
   D15       -2.67877  -0.00004   0.00000  -0.00356  -0.00356  -2.68233
   D16       -2.43202   0.00000   0.00000  -0.00222  -0.00222  -2.43424
   D17        1.80373  -0.00003   0.00000  -0.00300  -0.00300   1.80074
   D18       -0.42564  -0.00002   0.00000  -0.00313  -0.00313  -0.42876
   D19       -0.36900   0.00005   0.00000  -0.00068  -0.00068  -0.36968
   D20       -2.44945   0.00006   0.00000   0.00155   0.00155  -2.44790
   D21       -2.47304   0.00000   0.00000  -0.00131  -0.00131  -2.47435
   D22        1.72970   0.00001   0.00000   0.00092   0.00092   1.73061
   D23        1.59768   0.00001   0.00000  -0.00099  -0.00099   1.59670
   D24       -0.48277   0.00002   0.00000   0.00124   0.00124  -0.48153
   D25        0.36900  -0.00005   0.00000   0.00068   0.00068   0.36968
   D26        2.47301   0.00000   0.00000   0.00134   0.00134   2.47435
   D27       -1.59767  -0.00001   0.00000   0.00098   0.00098  -1.59670
   D28        2.44943  -0.00006   0.00000  -0.00153  -0.00152   2.44790
   D29       -1.72975  -0.00001   0.00000  -0.00086  -0.00086  -1.73061
   D30        0.48276  -0.00002   0.00000  -0.00123  -0.00123   0.48153
         Item               Value     Threshold  Converged?
 Maximum Force            0.000155     0.000450     YES
 RMS     Force            0.000045     0.000300     YES
 Maximum Displacement     0.003741     0.001800     NO 
 RMS     Displacement     0.001147     0.001200     YES
 Predicted change in Energy=-9.234770D-07
 GradGradGradGradGradGradGradGradGradGradGradGradGradGradGradGradGradGrad

 1\1\GINC-KATANA2\Freq\RM062X\6-31+G(d)\C3H7N1\Z5358697\15-Mar-2025\0\\
 #N Geom=AllCheck Guess=TCheck SCRF=Check GenChk RM062X/6-31+G(d) Freq\
 \azetidine\\0,1\C,0.8703646487,-0.4873069534,-0.4522979275\C,1.7843471
 283,0.4681190996,-1.2469506073\N,1.041403159,0.0981692211,-2.469257926
 8\C,0.5840287923,-1.146306549,-1.8173695667\H,-0.007852197,0.024710096
 3,-0.05339776\H,1.329194152,-1.1025184634,0.3234113661\H,1.7569370742,
 1.534064963,-1.0017242903\H,2.8283280983,0.1206291626,-1.2407701207\H,
 1.5995039933,-0.0192680657,-3.3112240129\H,-0.4469452909,-1.4301103327
 ,-2.0490365712\H,1.2460904418,-2.0074821783,-1.9926825827\\Version=ES6
 4L-G09RevD.01\State=1-A\HF=-173.1543647\RMSD=3.769e-10\RMSF=1.077e-04\
 ZeroPoint=0.1011932\Thermal=0.105122\Dipole=0.4160621,-0.3606949,0.145
 3544\DipoleDeriv=0.0565072,-0.1002189,0.0055505,-0.1105073,0.0243071,-
 0.0503653,0.0346642,-0.0720146,0.0552182,0.3420986,-0.0015776,0.114756
 1,-0.0152617,0.3523892,0.1488132,0.2036343,0.1554531,0.31113,-0.480321
 3,-0.0584603,-0.1671862,-0.0264437,-0.6495485,0.087211,-0.2577956,0.15
 45774,-0.5334226,0.4026926,0.0907371,-0.0304002,0.0670269,0.4776105,-0
 .0460526,-0.0134456,-0.1313764,0.1253065,-0.0614676,0.0545488,0.079368
 3,0.0674374,0.014448,-0.0423626,0.0428945,-0.0152432,0.0024971,0.02618
 18,0.0418786,-0.0657049,0.0275254,-0.0032195,0.0963324,-0.0250832,0.06
 61333,-0.0831087,0.0139174,-0.0065077,-0.0169499,-0.0658709,-0.1816915
 ,-0.0686996,-0.011107,-0.0528592,0.0213843,-0.2347539,0.0167957,-0.051
 3261,0.0977016,-0.0073571,-0.0011822,-0.0234046,-0.0169211,-0.0133154,
 0.1490676,-0.0670765,0.1533667,-0.0389646,0.1946075,-0.0959658,0.07379
 02,-0.0368073,0.0806282,-0.1478939,-0.1131337,-0.0535213,-0.060098,-0.
 0246211,-0.0117206,-0.0414297,-0.0408914,0.0261387,-0.0660285,0.143014
 6,0.0320471,0.057455,-0.1969246,-0.0160078,0.0172826,-0.0100505,0.0075
 437\Polar=40.2464395,2.3695757,41.9043543,0.6824825,0.2593113,41.58757
 16\PG=C01 [X(C3H7N1)]\NImag=0\\0.53054673,-0.12175511,0.47241497,-0.02
 126077,-0.07134483,0.60333938,-0.11680285,-0.03096676,0.03925006,0.574
 17159,-0.03534841,-0.11783583,0.03805584,-0.00160587,0.63342357,0.0518
 8150,0.05544111,-0.07957638,0.00543553,0.06081804,0.39882324,0.0036931
 5,-0.01710104,0.01294237,-0.11427833,-0.00282737,-0.04798522,0.3636234
 5,-0.01156157,-0.01031738,0.01629090,-0.03669821,-0.06409689,-0.063255
 05,0.09171659,0.33890797,-0.00273554,0.02794689,-0.08649790,-0.0609553
 4,-0.01752508,-0.16696442,-0.14794115,0.02709506,0.65128080,-0.0776983
 7,0.00530205,-0.02059043,-0.02391798,-0.05507292,-0.01863786,-0.078864
 85,-0.01313471,0.01974631,0.63711214,0.00915575,-0.07993791,-0.0462725
 7,-0.03094142,-0.05260363,-0.01136193,-0.06174850,-0.17571658,0.040379
 00,0.01289375,0.55859950,-0.03172645,-0.06476914,-0.15657270,-0.016114
 06,-0.01943568,-0.00987353,0.04850418,0.05508494,-0.09075601,0.0328961
 0,0.06442352,0.41070100,-0.22798185,0.10904724,0.07994996,-0.01778111,
 0.00997677,0.00565470,0.00011406,-0.00015755,-0.00007960,0.00955843,-0
 .00597810,-0.00445851,0.24371154,0.10948881,-0.10901848,-0.04445832,-0
 .02069933,0.01212324,0.00822849,0.00015175,-0.00027081,0.00006316,0.01
 490546,-0.01090429,-0.00592753,-0.11440449,0.11600123,0.07870114,-0.04
 352970,-0.08573341,0.00743953,-0.00606112,-0.00349649,-0.00095486,0.00
 071391,-0.00014703,0.02147130,-0.01224385,-0.00780784,-0.08670857,0.05
 007440,0.08937177,-0.10253001,0.06826028,-0.08537708,0.01169115,-0.009
 80918,0.01201167,-0.00007669,-0.00070463,0.00249351,-0.00560094,0.0044
 4067,0.00003354,-0.00947305,0.01385399,-0.01932226,0.10373275,0.067840
 96,-0.14088027,0.11080133,0.01297283,-0.00896124,0.00715913,-0.0008197
 9,0.00059356,0.00049941,-0.00940524,0.01138810,-0.00853322,0.00526476,
 -0.00769853,0.01064873,-0.07527996,0.14354815,-0.08419105,0.10991992,-
 0.18523362,-0.00528636,0.00160022,-0.00690285,0.00281942,0.00025720,-0
 .00649974,-0.00795936,0.01582900,-0.00995995,0.00498769,-0.00742568,0.
 01049939,0.08913155,-0.12096698,0.19964843,0.00109794,-0.01488714,-0.0
 0432289,-0.05255982,0.01802314,0.00503275,0.00013408,-0.01554131,-0.00
 521032,-0.00248726,-0.00350165,-0.00164473,0.00136839,0.00046373,0.000
 13819,-0.00088945,-0.00116605,0.00022261,0.05517773,0.00275811,-0.0104
 6337,-0.00343055,0.01574564,-0.30774239,-0.05355140,-0.00416856,0.0001
 6324,-0.00464879,-0.00259833,-0.00072637,-0.00064891,0.00015907,0.0013
 0189,0.00000590,-0.00124267,-0.00112258,0.00002172,-0.01165437,0.32929
 802,-0.00517334,0.01672838,0.00616278,0.00542870,-0.04974446,-0.063436
 99,-0.00148549,-0.02483108,-0.00670941,0.00056067,-0.00071827,-0.00287
 210,-0.00103341,-0.00115624,0.00106642,0.00119421,0.00153137,-0.000654
 81,0.00048169,0.06369837,0.06492105,-0.01402693,0.00571971,0.00161362,
 -0.27297193,0.07934138,0.00582264,-0.01527053,0.00135720,-0.00973121,0
 .00011030,0.00124403,-0.00038262,-0.00108917,-0.00265399,0.00029620,0.
 00121284,0.00031455,0.00050339,-0.00078790,0.00109656,0.00085021,0.301
 17055,-0.01707897,0.00634252,0.00024433,0.08008730,-0.08526574,-0.0055
 8641,-0.00902905,0.00332462,0.00223813,-0.00010110,0.00186810,0.000243
 24,-0.00273520,-0.00187592,0.00043185,0.00057168,0.00166511,0.00010753
 ,0.03087457,-0.00917512,-0.00137768,-0.08387676,0.08240087,0.02115060,
 -0.00815551,-0.00141061,0.00622892,-0.00434512,-0.04831527,-0.03685760
 ,0.00486977,-0.00650427,-0.00019794,0.00344634,-0.00311756,0.00298868,
 0.00339647,-0.00122572,-0.00096802,-0.00076834,0.00085838,0.00631575,-
 0.00155955,0.00201077,0.00077653,0.00378283,0.05368394,0.00079967,-0.0
 0095190,-0.00243706,0.01009537,-0.00123185,-0.02118048,-0.16651426,0.0
 0133662,0.20851037,-0.00839494,0.01246938,0.00067671,0.00007813,0.0001
 9904,-0.00074166,0.00084345,0.00067509,-0.00051370,-0.00034580,-0.0004
 3986,-0.00052096,0.00207649,-0.00000129,0.00013171,0.16047368,-0.00102
 995,-0.00222658,0.00383114,0.01320047,-0.00487513,-0.00059448,0.016917
 79,-0.05211114,-0.07384348,-0.01730221,0.00597567,0.02612629,-0.000119
 89,-0.00012537,0.00058844,0.00005163,0.00098908,0.00135832,-0.00071772
 ,-0.00099655,-0.00283158,-0.00089751,0.00139164,0.00048107,-0.00964878
 ,0.05114050,-0.00221622,0.00366705,-0.00735397,0.01874052,-0.00273973,
 -0.01484445,0.16441113,-0.04105695,-0.29537547,0.00417017,-0.00400583,
 -0.00720413,0.00016102,-0.00008273,-0.00011133,0.00125089,0.00004639,-
 0.00125616,-0.00047055,0.00059774,-0.00211612,0.00026062,0.00033659,0.
 00297411,-0.18503706,0.04412514,0.32402989,0.00088250,0.00075197,0.000
 27007,0.00043837,-0.00145652,0.00051413,-0.00202551,-0.00604865,0.0014
 8399,-0.29411728,-0.05590907,-0.05475677,0.00087460,-0.00033064,-0.000
 18493,-0.00004176,-0.00050888,0.00004029,-0.00025475,0.00004025,-0.000
 14921,-0.00002626,0.00042664,-0.00003501,-0.00119495,-0.00066716,-0.00
 080228,0.31380931,-0.00759595,-0.00296517,-0.00203607,-0.00317584,-0.0
 0404488,0.00011030,-0.02361881,-0.00932256,-0.00350701,-0.05294456,-0.
 06261253,-0.01222517,0.00005822,0.00099111,-0.00016113,-0.00038014,-0.
 00061204,-0.00035542,-0.00099535,-0.00048443,-0.00060966,-0.00079849,-
 0.00052613,-0.00068201,-0.00195651,-0.00143217,-0.00002639,0.06725957,
 0.07372656,-0.02519466,-0.00263013,-0.00112088,0.00061888,-0.00153795,
 -0.00247923,0.01529837,0.00363458,0.00493501,-0.05709502,-0.01458734,-
 0.06701214,0.00074829,0.00117821,0.00187096,-0.00107885,-0.00175541,-0
 .00201306,-0.00034403,-0.00037956,0.00090457,-0.00001483,-0.00014660,0
 .00077078,0.00211080,0.00127492,-0.00083121,0.05871559,0.01422370,0.06
 186367,0.00202002,-0.00341931,-0.00003785,0.00191554,0.00001085,0.0014
 5064,0.00946543,-0.01056377,-0.00558103,-0.15569924,0.11787517,0.02697
 261,0.00062005,-0.00097433,-0.00013409,0.00113171,0.00011172,0.0002455
 3,-0.00045315,0.00030416,-0.00015308,-0.00039746,0.00086219,0.00046637
 ,0.00208315,0.00021334,-0.00046823,-0.01834428,0.02414786,0.00623547,0
 .15765823,0.00512634,-0.00511250,-0.00168120,0.00208119,-0.00012108,0.
 00259221,0.01052699,-0.03115401,0.00130272,0.11745783,-0.19533006,-0.0
 3433834,-0.00111084,-0.00052406,-0.00046743,0.00023833,0.00109065,-0.0
 0034581,-0.00089784,-0.00005233,-0.00068916,-0.00084667,-0.00014995,-0
 .00046593,-0.00044994,0.00227005,-0.00086130,-0.00355753,0.00728224,0.
 00072558,-0.12856787,0.22180106,0.02076481,-0.02327403,-0.00600268,-0.
 00078637,0.00091504,-0.00293363,-0.00875116,0.02119673,0.00323846,0.02
 563604,-0.03488806,-0.05552505,-0.00221025,-0.00389023,-0.00428673,0.0
 0063083,0.00133759,0.00151398,-0.00019846,-0.00010499,0.00072384,0.000
 00545,-0.00027382,0.00027544,-0.00099868,-0.00051578,0.00208885,-0.005
 09588,0.00526886,0.00311152,-0.02899633,0.03422867,0.05779600\\-0.0002
 3097,0.00017803,-0.00001974,0.00013216,-0.00006548,-0.00022305,0.00003
 268,-0.00013859,0.00031760,0.00017081,-0.00001546,-0.00020690,0.000022
 89,-0.00006116,0.00012742,0.00001072,-0.00000545,-0.00000625,-0.000032
 27,0.00001596,-0.00001915,0.00000269,0.00003487,0.00002512,-0.00005419
 ,0.00003917,0.00000921,-0.00001926,0.00003700,-0.00001094,-0.00003525,
 -0.00001889,0.00000668\\\@


 LAWS OF PROGRAMMING DEFINITION:  A WORKING PROGRAM
                                  IS ONE THAT HAS
                                  ONLY UNOBSERVED
                                  BUGS.
 Job cpu time:       0 days  0 hours  1 minutes  7.9 seconds.
 File lengths (MBytes):  RWF=    132 Int=      0 D2E=      0 Chk=      2 Scr=      2
 Normal termination of Gaussian 09 at Sat Mar 15 12:53:23 2025.
