 Entering Gaussian System, Link 0=g09
 Initial command:
 /apps/z_install_tree/linux-rocky8-ivybridge/gcc-12.2.0/gaussian-09-D.01-wczn3gur5lpur3omlkzwa2l5ecyxp5ef/g09/l1.exe "/srv/scratch/z5358697/gauss/Gau-1281768.inp" -scrdir="/srv/scratch/z5358697/gauss/"
 Entering Link 1 = /apps/z_install_tree/linux-rocky8-ivybridge/gcc-12.2.0/gaussian-09-D.01-wczn3gur5lpur3omlkzwa2l5ecyxp5ef/g09/l1.exe PID=   1281771.
  
 Copyright (c) 1988,1990,1992,1993,1995,1998,2003,2009,2013,
            Gaussian, Inc.  All Rights Reserved.
  
 This is part of the Gaussian(R) 09 program.  It is based on
 the Gaussian(R) 03 system (copyright 2003, Gaussian, Inc.),
 the Gaussian(R) 98 system (copyright 1998, Gaussian, Inc.),
 the Gaussian(R) 94 system (copyright 1995, Gaussian, Inc.),
 the Gaussian 92(TM) system (copyright 1992, Gaussian, Inc.),
 the Gaussian 90(TM) system (copyright 1990, Gaussian, Inc.),
 the Gaussian 88(TM) system (copyright 1988, Gaussian, Inc.),
 the Gaussian 86(TM) system (copyright 1986, Carnegie Mellon
 University), and the Gaussian 82(TM) system (copyright 1983,
 Carnegie Mellon University). Gaussian is a federally registered
 trademark of Gaussian, Inc.
  
 This software contains proprietary and confidential information,
 including trade secrets, belonging to Gaussian, Inc.
  
 This software is provided under written license and may be
 used, copied, transmitted, or stored only in accord with that
 written license.
  
 The following legend is applicable only to US Government
 contracts under FAR:
  
                    RESTRICTED RIGHTS LEGEND
  
 Use, reproduction and disclosure by the US Government is
 subject to restrictions as set forth in subparagraphs (a)
 and (c) of the Commercial Computer Software - Restricted
 Rights clause in FAR 52.227-19.
  
 Gaussian, Inc.
 340 Quinnipiac St., Bldg. 40, Wallingford CT 06492
  
  
 ---------------------------------------------------------------
 Warning -- This program may not be used in any manner that
 competes with the business of Gaussian, Inc. or will provide
 assistance to any competitor of Gaussian, Inc.  The licensee
 of this program is prohibited from giving any competitor of
 Gaussian, Inc. access to this program.  By using this program,
 the user acknowledges that Gaussian, Inc. is engaged in the
 business of creating and licensing software in the field of
 computational chemistry and represents and warrants to the
 licensee that it is not a competitor of Gaussian, Inc. and that
 it will not use this program in any manner prohibited above.
 ---------------------------------------------------------------
  

 Cite this work as:
 Gaussian 09, Revision D.01,
 M. J. Frisch, G. W. Trucks, H. B. Schlegel, G. E. Scuseria, 
 M. A. Robb, J. R. Cheeseman, G. Scalmani, V. Barone, B. Mennucci, 
 G. A. Petersson, H. Nakatsuji, M. Caricato, X. Li, H. P. Hratchian, 
 A. F. Izmaylov, J. Bloino, G. Zheng, J. L. Sonnenberg, M. Hada, 
 M. Ehara, K. Toyota, R. Fukuda, J. Hasegawa, M. Ishida, T. Nakajima, 
 Y. Honda, O. Kitao, H. Nakai, T. Vreven, J. A. Montgomery, Jr., 
 J. E. Peralta, F. Ogliaro, M. Bearpark, J. J. Heyd, E. Brothers, 
 K. N. Kudin, V. N. Staroverov, T. Keith, R. Kobayashi, J. Normand, 
 K. Raghavachari, A. Rendell, J. C. Burant, S. S. Iyengar, J. Tomasi, 
 M. Cossi, N. Rega, J. M. Millam, M. Klene, J. E. Knox, J. B. Cross, 
 V. Bakken, C. Adamo, J. Jaramillo, R. Gomperts, R. E. Stratmann, 
 O. Yazyev, A. J. Austin, R. Cammi, C. Pomelli, J. W. Ochterski, 
 R. L. Martin, K. Morokuma, V. G. Zakrzewski, G. A. Voth, 
 P. Salvador, J. J. Dannenberg, S. Dapprich, A. D. Daniels, 
 O. Farkas, J. B. Foresman, J. V. Ortiz, J. Cioslowski, 
 and D. J. Fox, Gaussian, Inc., Wallingford CT, 2013.
 
 ******************************************
 Gaussian 09:  ES64L-G09RevD.01 24-Apr-2013
                19-Mar-2025 
 ******************************************
 ---------------------------------
 #m062X/6-31+G(d) OPT Freq=noraman
 ---------------------------------
 1/14=-1,18=20,19=15,26=3,38=1/1,3;
 2/9=110,12=2,17=6,18=5,40=1/2;
 3/5=1,6=6,7=11,11=2,16=1,25=1,30=1,71=1,74=-55/1,2,3;
 4//1;
 5/5=2,38=5/2;
 6/7=2,8=2,9=2,10=2,28=1/1;
 7//1,2,3,16;
 1/14=-1,18=20,19=15,26=3/3(2);
 2/9=110/2;
 99//99;
 2/9=110/2;
 3/5=1,6=6,7=11,11=2,16=1,25=1,30=1,71=1,74=-55/1,2,3;
 4/5=5,16=3,69=1/1;
 5/5=2,38=5/2;
 7//1,2,3,16;
 1/14=-1,18=20,19=15,26=3/3(-5);
 2/9=110/2;
 6/7=2,8=2,9=2,10=2,19=2,28=1/1;
 99/9=1/99;
 ----------
 piperidine
 ----------
 Symbolic Z-matrix:
 Charge =  0 Multiplicity = 1
 C                     0.5789    0.0384   -1.3659 
 C                     0.4799    1.2871   -0.4951 
 C                    -0.6602    1.1695    0.5144 
 N                    -0.5273   -0.0351    1.3347 
 C                    -0.5084   -1.2445    0.5109 
 C                     0.6371   -1.2155   -0.4991 
 H                     1.466     0.0952   -2.0061 
 H                    -0.2941   -0.0153   -2.0279 
 H                     1.4283    1.4378    0.036 
 H                     0.3251    2.1679   -1.1284 
 H                    -0.6601    2.0474    1.1697 
 H                    -1.6278    1.163    -0.0019 
 H                    -1.3187   -0.0859    1.9768 
 H                    -0.3978   -2.1172    1.1638 
 H                    -1.4694   -1.358    -0.0052 
 H                     1.5971   -1.2483    0.0315 
 H                     0.5931   -2.1068   -1.1351 
 

 GradGradGradGradGradGradGradGradGradGradGradGradGradGradGradGradGradGrad
 Berny optimization.
 Initialization pass.
                           ----------------------------
                           !    Initial Parameters    !
                           ! (Angstroms and Degrees)  !
 --------------------------                            --------------------------
 ! Name  Definition              Value          Derivative Info.                !
 --------------------------------------------------------------------------------
 ! R1    R(1,2)                  1.5256         estimate D2E/DX2                !
 ! R2    R(1,6)                  1.5254         estimate D2E/DX2                !
 ! R3    R(1,7)                  1.0955         estimate D2E/DX2                !
 ! R4    R(1,8)                  1.0969         estimate D2E/DX2                !
 ! R5    R(2,3)                  1.5273         estimate D2E/DX2                !
 ! R6    R(2,9)                  1.0974         estimate D2E/DX2                !
 ! R7    R(2,10)                 1.0958         estimate D2E/DX2                !
 ! R8    R(3,4)                  1.4634         estimate D2E/DX2                !
 ! R9    R(3,11)                 1.0955         estimate D2E/DX2                !
 ! R10   R(3,12)                 1.0967         estimate D2E/DX2                !
 ! R11   R(4,5)                  1.4634         estimate D2E/DX2                !
 ! R12   R(4,13)                 1.0204         estimate D2E/DX2                !
 ! R13   R(5,6)                  1.5275         estimate D2E/DX2                !
 ! R14   R(5,14)                 1.0955         estimate D2E/DX2                !
 ! R15   R(5,15)                 1.0967         estimate D2E/DX2                !
 ! R16   R(6,16)                 1.0974         estimate D2E/DX2                !
 ! R17   R(6,17)                 1.0958         estimate D2E/DX2                !
 ! A1    A(2,1,6)              110.5448         estimate D2E/DX2                !
 ! A2    A(2,1,7)              110.1023         estimate D2E/DX2                !
 ! A3    A(2,1,8)              109.4453         estimate D2E/DX2                !
 ! A4    A(6,1,7)              110.1088         estimate D2E/DX2                !
 ! A5    A(6,1,8)              109.454          estimate D2E/DX2                !
 ! A6    A(7,1,8)              107.1172         estimate D2E/DX2                !
 ! A7    A(1,2,3)              111.2658         estimate D2E/DX2                !
 ! A8    A(1,2,9)              109.4251         estimate D2E/DX2                !
 ! A9    A(1,2,10)             109.7059         estimate D2E/DX2                !
 ! A10   A(3,2,9)              109.6221         estimate D2E/DX2                !
 ! A11   A(3,2,10)             109.7806         estimate D2E/DX2                !
 ! A12   A(9,2,10)             106.9419         estimate D2E/DX2                !
 ! A13   A(2,3,4)              111.4739         estimate D2E/DX2                !
 ! A14   A(2,3,11)             109.4871         estimate D2E/DX2                !
 ! A15   A(2,3,12)             110.3572         estimate D2E/DX2                !
 ! A16   A(4,3,11)             108.925          estimate D2E/DX2                !
 ! A17   A(4,3,12)             109.823          estimate D2E/DX2                !
 ! A18   A(11,3,12)            106.6439         estimate D2E/DX2                !
 ! A19   A(3,4,5)              111.4621         estimate D2E/DX2                !
 ! A20   A(3,4,13)             108.861          estimate D2E/DX2                !
 ! A21   A(5,4,13)             108.8507         estimate D2E/DX2                !
 ! A22   A(4,5,6)              111.4825         estimate D2E/DX2                !
 ! A23   A(4,5,14)             108.9141         estimate D2E/DX2                !
 ! A24   A(4,5,15)             109.823          estimate D2E/DX2                !
 ! A25   A(6,5,14)             109.4811         estimate D2E/DX2                !
 ! A26   A(6,5,15)             110.3613         estimate D2E/DX2                !
 ! A27   A(14,5,15)            106.6478         estimate D2E/DX2                !
 ! A28   A(1,6,5)              111.2675         estimate D2E/DX2                !
 ! A29   A(1,6,16)             109.4325         estimate D2E/DX2                !
 ! A30   A(1,6,17)             109.7093         estimate D2E/DX2                !
 ! A31   A(5,6,16)             109.6199         estimate D2E/DX2                !
 ! A32   A(5,6,17)             109.768          estimate D2E/DX2                !
 ! A33   A(16,6,17)            106.9443         estimate D2E/DX2                !
 ! D1    D(6,1,2,3)            -51.9651         estimate D2E/DX2                !
 ! D2    D(6,1,2,9)             69.3237         estimate D2E/DX2                !
 ! D3    D(6,1,2,10)          -173.6424         estimate D2E/DX2                !
 ! D4    D(7,1,2,3)           -173.8449         estimate D2E/DX2                !
 ! D5    D(7,1,2,9)            -52.5561         estimate D2E/DX2                !
 ! D6    D(7,1,2,10)            64.4779         estimate D2E/DX2                !
 ! D7    D(8,1,2,3)             68.6653         estimate D2E/DX2                !
 ! D8    D(8,1,2,9)           -170.0459         estimate D2E/DX2                !
 ! D9    D(8,1,2,10)           -53.012          estimate D2E/DX2                !
 ! D10   D(2,1,6,5)             51.9489         estimate D2E/DX2                !
 ! D11   D(2,1,6,16)           -69.3431         estimate D2E/DX2                !
 ! D12   D(2,1,6,17)           173.6138         estimate D2E/DX2                !
 ! D13   D(7,1,6,5)            173.8249         estimate D2E/DX2                !
 ! D14   D(7,1,6,16)            52.5328         estimate D2E/DX2                !
 ! D15   D(7,1,6,17)           -64.5103         estimate D2E/DX2                !
 ! D16   D(8,1,6,5)            -68.6763         estimate D2E/DX2                !
 ! D17   D(8,1,6,16)           170.0317         estimate D2E/DX2                !
 ! D18   D(8,1,6,17)            52.9886         estimate D2E/DX2                !
 ! D19   D(1,2,3,4)             55.3985         estimate D2E/DX2                !
 ! D20   D(1,2,3,11)           175.9895         estimate D2E/DX2                !
 ! D21   D(1,2,3,12)           -66.9219         estimate D2E/DX2                !
 ! D22   D(9,2,3,4)            -65.7751         estimate D2E/DX2                !
 ! D23   D(9,2,3,11)            54.8159         estimate D2E/DX2                !
 ! D24   D(9,2,3,12)           171.9046         estimate D2E/DX2                !
 ! D25   D(10,2,3,4)           177.0323         estimate D2E/DX2                !
 ! D26   D(10,2,3,11)          -62.3767         estimate D2E/DX2                !
 ! D27   D(10,2,3,12)           54.7119         estimate D2E/DX2                !
 ! D28   D(2,3,4,5)            -58.5385         estimate D2E/DX2                !
 ! D29   D(2,3,4,13)          -178.6167         estimate D2E/DX2                !
 ! D30   D(11,3,4,5)          -179.4586         estimate D2E/DX2                !
 ! D31   D(11,3,4,13)           60.4632         estimate D2E/DX2                !
 ! D32   D(12,3,4,5)            64.0888         estimate D2E/DX2                !
 ! D33   D(12,3,4,13)          -55.9894         estimate D2E/DX2                !
 ! D34   D(3,4,5,6)             58.5255         estimate D2E/DX2                !
 ! D35   D(3,4,5,14)           179.4362         estimate D2E/DX2                !
 ! D36   D(3,4,5,15)           -64.1129         estimate D2E/DX2                !
 ! D37   D(13,4,5,6)           178.6098         estimate D2E/DX2                !
 ! D38   D(13,4,5,14)          -60.4795         estimate D2E/DX2                !
 ! D39   D(13,4,5,15)           55.9714         estimate D2E/DX2                !
 ! D40   D(4,5,6,1)            -55.3719         estimate D2E/DX2                !
 ! D41   D(4,5,6,16)            65.8105         estimate D2E/DX2                !
 ! D42   D(4,5,6,17)          -177.0026         estimate D2E/DX2                !
 ! D43   D(14,5,6,1)          -175.9507         estimate D2E/DX2                !
 ! D44   D(14,5,6,16)          -54.7682         estimate D2E/DX2                !
 ! D45   D(14,5,6,17)           62.4186         estimate D2E/DX2                !
 ! D46   D(15,5,6,1)            66.9572         estimate D2E/DX2                !
 ! D47   D(15,5,6,16)         -171.8604         estimate D2E/DX2                !
 ! D48   D(15,5,6,17)          -54.6735         estimate D2E/DX2                !
 --------------------------------------------------------------------------------
 Trust Radius=3.00D-01 FncErr=1.00D-07 GrdErr=1.00D-06
 Number of steps in this run=    102 maximum allowed number of steps=    102.
 GradGradGradGradGradGradGradGradGradGradGradGradGradGradGradGradGradGrad

                          Input orientation:                          
 ---------------------------------------------------------------------
 Center     Atomic      Atomic             Coordinates (Angstroms)
 Number     Number       Type             X           Y           Z
 ---------------------------------------------------------------------
      1          6           0        0.578900    0.038400   -1.365900
      2          6           0        0.479900    1.287100   -0.495100
      3          6           0       -0.660200    1.169500    0.514400
      4          7           0       -0.527300   -0.035100    1.334700
      5          6           0       -0.508400   -1.244500    0.510900
      6          6           0        0.637100   -1.215500   -0.499100
      7          1           0        1.466000    0.095200   -2.006100
      8          1           0       -0.294100   -0.015300   -2.027900
      9          1           0        1.428300    1.437800    0.036000
     10          1           0        0.325100    2.167900   -1.128400
     11          1           0       -0.660100    2.047400    1.169700
     12          1           0       -1.627800    1.163000   -0.001900
     13          1           0       -1.318700   -0.085900    1.976800
     14          1           0       -0.397800   -2.117200    1.163800
     15          1           0       -1.469400   -1.358000   -0.005200
     16          1           0        1.597100   -1.248300    0.031500
     17          1           0        0.593100   -2.106800   -1.135100
 ---------------------------------------------------------------------
                    Distance matrix (angstroms):
                    1          2          3          4          5
     1  C    0.000000
     2  C    1.525564   0.000000
     3  C    2.519977   1.527334   0.000000
     4  N    2.919301   2.472010   1.463426   0.000000
     5  C    2.520006   2.897891   2.418771   1.463438   0.000000
     6  C    1.525449   2.507536   2.897998   2.472245   1.527453
     7  H    1.095458   2.162438   3.468107   3.892450   3.468190
     8  H    1.096931   2.155179   2.828616   3.370735   2.828845
     9  H    2.155255   1.097379   2.159325   2.771358   3.342315
    10  H    2.157682   1.095829   2.160188   3.412720   3.876403
    11  H    3.464169   2.156204   1.095503   2.093243   3.360601
    12  H    2.827498   2.168190   1.096749   2.105479   2.704085
    13  H    3.845774   3.351176   2.036729   1.020386   2.036616
    14  H    3.464092   3.887360   3.360502   2.093112   1.095498
    15  H    2.827892   3.322097   2.704264   2.105457   1.096705
    16  H    2.155239   2.820230   3.342806   2.771869   2.159391
    17  H    2.157627   3.455571   3.876307   3.412792   2.160134
                    6          7          8          9         10
     6  C    0.000000
     7  H    2.162420   0.000000
     8  H    2.155190   1.763700   0.000000
     9  H    2.819988   2.444211   3.055789   0.000000
    10  H    3.455540   2.523509   2.441080   1.762363   0.000000
    11  H    3.887691   4.291514   3.822739   2.453223   2.503278
    12  H    3.321783   3.837788   2.696632   3.068664   2.468328
    13  H    3.351303   4.863213   4.134297   3.692476   4.174202
    14  H    2.156228   4.291472   3.823047   4.152662   4.913130
    15  H    2.168314   3.838224   2.697311   4.026768   4.112637
    16  H    1.097366   2.444175   3.055823   2.691402   3.825412
    17  H    1.095832   2.523767   2.441022   3.825340   4.283098
                   11         12         13         14         15
    11  H    0.000000
    12  H    1.758196   0.000000
    13  H    2.374054   2.360201   0.000000
    14  H    4.172856   3.692082   2.373859   0.000000
    15  H    3.692168   2.525974   2.359931   1.758201   0.000000
    16  H    4.153563   4.026843   3.692865   2.452900   3.068681
    17  H    4.913246   4.111950   4.174079   2.503384   2.468052
                   16         17
    16  H    0.000000
    17  H    1.762383   0.000000
 Stoichiometry    C5H11N
 Framework group  C1[X(C5H11N)]
 Deg. of freedom    45
 Full point group                 C1      NOp   1
 Largest Abelian subgroup         C1      NOp   1
 Largest concise Abelian subgroup C1      NOp   1
                         Standard orientation:                         
 ---------------------------------------------------------------------
 Center     Atomic      Atomic             Coordinates (Angstroms)
 Number     Number       Type             X           Y           Z
 ---------------------------------------------------------------------
      1          6           0       -1.460660    0.001391    0.238677
      2          6           0       -0.720673    1.254439   -0.219184
      3          6           0        0.750711    1.208679    0.187859
      4          7           0        1.406735   -0.001282   -0.309376
      5          6           0        0.748445   -1.210091    0.187703
      6          6           0       -0.723239   -1.253095   -0.219000
      7          1           0       -2.482677    0.002462   -0.155667
      8          1           0       -1.536830    0.001629    1.332960
      9          1           0       -0.798602    1.346233   -1.309937
     10          1           0       -1.196967    2.142719    0.210865
     11          1           0        1.269006    2.085330   -0.215847
     12          1           0        0.846521    1.262010    1.279113
     13          1           0        2.377924   -0.002315    0.003638
     14          1           0        1.264986   -2.087524   -0.216540
     15          1           0        0.844522   -1.263963    1.278863
     16          1           0       -0.801570   -1.345168   -1.309687
     17          1           0       -1.200960   -2.140377    0.211537
 ---------------------------------------------------------------------
 Rotational constants (GHZ):      4.5756408      4.3868973      2.5246414
 Standard basis: 6-31+G(d) (6D, 7F)
 There are   136 symmetry adapted cartesian basis functions of A   symmetry.
 There are   136 symmetry adapted basis functions of A   symmetry.
   136 basis functions,   236 primitive gaussians,   136 cartesian basis functions
    24 alpha electrons       24 beta electrons
       nuclear repulsion energy       258.9387719772 Hartrees.
 NAtoms=   17 NActive=   17 NUniq=   17 SFac= 1.00D+00 NAtFMM=   60 NAOKFM=F Big=F
 Integral buffers will be    131072 words long.
 Raffenetti 2 integral format.
 Two-electron integral symmetry is turned on.
 One-electron integrals computed using PRISM.
 NBasis=   136 RedAO= T EigKep=  5.23D-05  NBF=   136
 NBsUse=   136 1.00D-06 EigRej= -1.00D+00 NBFU=   136
 ExpMin= 4.38D-02 ExpMax= 4.17D+03 ExpMxC= 6.27D+02 IAcc=2 IRadAn=         4 AccDes= 0.00D+00
 Harris functional with IExCor= 1009 and IRadAn=       4 diagonalized for initial guess.
 HarFok:  IExCor= 1009 AccDes= 0.00D+00 IRadAn=         4 IDoV= 1 UseB2=F ITyADJ=14
 ICtDFT=  3500011 ScaDFX=  1.000000  1.000000  1.000000  1.000000
 FoFCou: FMM=F IPFlag=           0 FMFlag=      100000 FMFlg1=           0
         NFxFlg=           0 DoJE=T BraDBF=F KetDBF=T FulRan=T
         wScrn=  0.000000 ICntrl=     500 IOpCl=  0 I1Cent=   200000004 NGrid=           0
         NMat0=    1 NMatS0=      1 NMatT0=    0 NMatD0=    1 NMtDS0=    0 NMtDT0=    0
 Petite list used in FoFCou.
 Requested convergence on RMS density matrix=1.00D-08 within 128 cycles.
 Requested convergence on MAX density matrix=1.00D-06.
 Requested convergence on             energy=1.00D-06.
 No special actions if energy rises.
 SCF Done:  E(RM062X) =  -251.781944082     A.U. after   12 cycles
            NFock= 12  Conv=0.37D-08     -V/T= 2.0089

 **********************************************************************

            Population analysis using the SCF density.

 **********************************************************************

 Orbital symmetries:
       Occupied  (A) (A) (A) (A) (A) (A) (A) (A) (A) (A) (A) (A)
                 (A) (A) (A) (A) (A) (A) (A) (A) (A) (A) (A) (A)
       Virtual   (A) (A) (A) (A) (A) (A) (A) (A) (A) (A) (A) (A)
                 (A) (A) (A) (A) (A) (A) (A) (A) (A) (A) (A) (A)
                 (A) (A) (A) (A) (A) (A) (A) (A) (A) (A) (A) (A)
                 (A) (A) (A) (A) (A) (A) (A) (A) (A) (A) (A) (A)
                 (A) (A) (A) (A) (A) (A) (A) (A) (A) (A) (A) (A)
                 (A) (A) (A) (A) (A) (A) (A) (A) (A) (A) (A) (A)
                 (A) (A) (A) (A) (A) (A) (A) (A) (A) (A) (A) (A)
                 (A) (A) (A) (A) (A) (A) (A) (A) (A) (A) (A) (A)
                 (A) (A) (A) (A) (A) (A) (A) (A) (A) (A) (A) (A)
                 (A) (A) (A) (A)
 The electronic state is 1-A.
 Alpha  occ. eigenvalues --  -14.74342 -10.56377 -10.56375 -10.53854 -10.53813
 Alpha  occ. eigenvalues --  -10.53797  -1.01489  -0.88435  -0.84522  -0.72104
 Alpha  occ. eigenvalues --   -0.70487  -0.62847  -0.58187  -0.52426  -0.51473
 Alpha  occ. eigenvalues --   -0.49539  -0.47153  -0.46348  -0.44272  -0.40804
 Alpha  occ. eigenvalues --   -0.38641  -0.36765  -0.36576  -0.28397
 Alpha virt. eigenvalues --    0.01883   0.03129   0.03821   0.04355   0.05176
 Alpha virt. eigenvalues --    0.05753   0.07758   0.07955   0.08726   0.10310
 Alpha virt. eigenvalues --    0.10439   0.11717   0.12561   0.12707   0.12731
 Alpha virt. eigenvalues --    0.14324   0.15019   0.17307   0.17880   0.19326
 Alpha virt. eigenvalues --    0.20157   0.20814   0.23607   0.24106   0.24865
 Alpha virt. eigenvalues --    0.27485   0.28445   0.28757   0.30764   0.32065
 Alpha virt. eigenvalues --    0.32199   0.32276   0.34836   0.35030   0.35454
 Alpha virt. eigenvalues --    0.36872   0.38300   0.39448   0.41181   0.42926
 Alpha virt. eigenvalues --    0.44770   0.65889   0.67644   0.69047   0.71523
 Alpha virt. eigenvalues --    0.73076   0.73356   0.75368   0.75833   0.79780
 Alpha virt. eigenvalues --    0.82355   0.83077   0.83644   0.89136   0.94099
 Alpha virt. eigenvalues --    0.99929   1.01796   1.04262   1.05462   1.06483
 Alpha virt. eigenvalues --    1.06521   1.10735   1.13906   1.15114   1.16726
 Alpha virt. eigenvalues --    1.17721   1.19219   1.19731   1.21650   1.26653
 Alpha virt. eigenvalues --    1.27346   1.40653   1.44077   1.44989   1.47781
 Alpha virt. eigenvalues --    1.58980   1.63946   1.71065   1.78767   1.80867
 Alpha virt. eigenvalues --    1.83606   1.84507   1.97294   1.98480   2.03045
 Alpha virt. eigenvalues --    2.05899   2.07725   2.09710   2.13095   2.17293
 Alpha virt. eigenvalues --    2.21979   2.26340   2.34668   2.37354   2.43468
 Alpha virt. eigenvalues --    2.45682   2.45740   2.48427   2.50866   2.54460
 Alpha virt. eigenvalues --    2.67730   2.70522   2.75410   2.78960   2.80633
 Alpha virt. eigenvalues --    2.85628   4.11600   4.25687   4.31293   4.49070
 Alpha virt. eigenvalues --    4.63597   4.64630
          Condensed to atoms (all electrons):
               1          2          3          4          5          6
     1  C    5.823906   0.129270  -0.159074   0.000635  -0.158818   0.128861
     2  C    0.129270   5.872894  -0.020773  -0.058344   0.026486  -0.136411
     3  C   -0.159074  -0.020773   5.776360   0.191991  -0.212976   0.026688
     4  N    0.000635  -0.058344   0.191991   7.254135   0.192108  -0.058346
     5  C   -0.158818   0.026486  -0.212976   0.192108   5.776153  -0.020636
     6  C    0.128861  -0.136411   0.026688  -0.058346  -0.020636   5.872868
     7  H    0.406792  -0.050169   0.009515  -0.001145   0.009504  -0.050144
     8  H    0.472445  -0.077243  -0.005516   0.000770  -0.005496  -0.077255
     9  H   -0.031318   0.416552  -0.059897   0.005733   0.004260  -0.020443
    10  H   -0.070659   0.389247  -0.027611   0.006321  -0.002823   0.024227
    11  H    0.015429  -0.040142   0.389833  -0.040075   0.010396  -0.004501
    12  H   -0.019762  -0.096948   0.493580  -0.121023   0.015171  -0.006438
    13  H   -0.000598   0.028525  -0.061276   0.303965  -0.061301   0.028521
    14  H    0.015428  -0.004492   0.010389  -0.040111   0.389903  -0.040187
    15  H   -0.019741  -0.006480   0.015203  -0.120997   0.493477  -0.096862
    16  H   -0.031317  -0.020454   0.004265   0.005739  -0.059918   0.416590
    17  H   -0.070663   0.024229  -0.002835   0.006322  -0.027651   0.389290
               7          8          9         10         11         12
     1  C    0.406792   0.472445  -0.031318  -0.070659   0.015429  -0.019762
     2  C   -0.050169  -0.077243   0.416552   0.389247  -0.040142  -0.096948
     3  C    0.009515  -0.005516  -0.059897  -0.027611   0.389833   0.493580
     4  N   -0.001145   0.000770   0.005733   0.006321  -0.040075  -0.121023
     5  C    0.009504  -0.005496   0.004260  -0.002823   0.010396   0.015171
     6  C   -0.050144  -0.077255  -0.020443   0.024227  -0.004501  -0.006438
     7  H    0.510448  -0.029986  -0.004601  -0.002033  -0.000104  -0.000054
     8  H   -0.029986   0.507022   0.004089  -0.004574  -0.000068   0.002287
     9  H   -0.004601   0.004089   0.491114  -0.028691  -0.005044   0.004228
    10  H   -0.002033  -0.004574  -0.028691   0.515136  -0.002097  -0.002329
    11  H   -0.000104  -0.000068  -0.005044  -0.002097   0.520424  -0.041971
    12  H   -0.000054   0.002287   0.004228  -0.002329  -0.041971   0.576543
    13  H    0.000015  -0.000056  -0.000136  -0.000160  -0.003485  -0.003267
    14  H   -0.000104  -0.000069  -0.000036   0.000012  -0.000101  -0.000346
    15  H   -0.000054   0.002284   0.000102   0.000028  -0.000346   0.009462
    16  H   -0.004604   0.004089   0.002120  -0.000044  -0.000036   0.000102
    17  H   -0.002031  -0.004577  -0.000044  -0.000111   0.000012   0.000028
              13         14         15         16         17
     1  C   -0.000598   0.015428  -0.019741  -0.031317  -0.070663
     2  C    0.028525  -0.004492  -0.006480  -0.020454   0.024229
     3  C   -0.061276   0.010389   0.015203   0.004265  -0.002835
     4  N    0.303965  -0.040111  -0.120997   0.005739   0.006322
     5  C   -0.061301   0.389903   0.493477  -0.059918  -0.027651
     6  C    0.028521  -0.040187  -0.096862   0.416590   0.389290
     7  H    0.000015  -0.000104  -0.000054  -0.004604  -0.002031
     8  H   -0.000056  -0.000069   0.002284   0.004089  -0.004577
     9  H   -0.000136  -0.000036   0.000102   0.002120  -0.000044
    10  H   -0.000160   0.000012   0.000028  -0.000044  -0.000111
    11  H   -0.003485  -0.000101  -0.000346  -0.000036   0.000012
    12  H   -0.003267  -0.000346   0.009462   0.000102   0.000028
    13  H    0.392741  -0.003484  -0.003271  -0.000136  -0.000160
    14  H   -0.003484   0.520436  -0.041971  -0.005049  -0.002093
    15  H   -0.003271  -0.041971   0.576515   0.004227  -0.002334
    16  H   -0.000136  -0.005049   0.004227   0.491110  -0.028690
    17  H   -0.000160  -0.002093  -0.002334  -0.028690   0.515141
 Mulliken charges:
               1
     1  C   -0.430816
     2  C   -0.375746
     3  C   -0.367864
     4  N   -0.527679
     5  C   -0.367840
     6  C   -0.375823
     7  H    0.208755
     8  H    0.211855
     9  H    0.222011
    10  H    0.206162
    11  H    0.201876
    12  H    0.190739
    13  H    0.383561
    14  H    0.201875
    15  H    0.190760
    16  H    0.222007
    17  H    0.206167
 Sum of Mulliken charges =   0.00000
 Mulliken charges with hydrogens summed into heavy atoms:
               1
     1  C   -0.010206
     2  C    0.052426
     3  C    0.024751
     4  N   -0.144118
     5  C    0.024795
     6  C    0.052351
 Electronic spatial extent (au):  <R**2>=            567.6583
 Charge=              0.0000 electrons
 Dipole moment (field-independent basis, Debye):
    X=              0.0327    Y=             -0.0002    Z=              1.0680  Tot=              1.0685
 Quadrupole moment (field-independent basis, Debye-Ang):
   XX=            -37.6179   YY=            -38.3929   ZZ=            -41.8177
   XY=             -0.0012   XZ=              2.3036   YZ=             -0.0018
 Traceless Quadrupole moment (field-independent basis, Debye-Ang):
   XX=              1.6583   YY=              0.8833   ZZ=             -2.5416
   XY=             -0.0012   XZ=              2.3036   YZ=             -0.0018
 Octapole moment (field-independent basis, Debye-Ang**2):
  XXX=             11.1932  YYY=             -0.0047  ZZZ=              0.8936  XYY=              2.3135
  XXY=             -0.0062  XXZ=              2.8003  XZZ=             -2.6360  YZZ=              0.0006
  YYZ=             -1.0248  XYZ=             -0.0031
 Hexadecapole moment (field-independent basis, Debye-Ang**3):
 XXXX=           -318.5550 YYYY=           -343.5084 ZZZZ=           -100.6668 XXXY=             -0.0272
 XXXZ=              7.6467 YYYX=             -0.0062 YYYZ=              0.0103 ZZZX=              4.5966
 ZZZY=             -0.0038 XXYY=           -113.0420 XXZZ=            -79.4768 YYZZ=            -75.4872
 XXYZ=             -0.0126 YYXZ=             -3.2871 ZZXY=              0.0019
 N-N= 2.589387719772D+02 E-N=-1.100691671378D+03  KE= 2.495497794271D+02
 Calling FoFJK, ICntrl=      2127 FMM=F ISym2X=0 I1Cent= 0 IOpClX= 0 NMat=1 NMatS=1 NMatT=0.
 ***** Axes restored to original set *****
 -------------------------------------------------------------------
 Center     Atomic                   Forces (Hartrees/Bohr)
 Number     Number              X              Y              Z
 -------------------------------------------------------------------
      1        6           0.001166883    0.000124377   -0.000189658
      2        6          -0.000069764    0.000598357   -0.000572654
      3        6           0.000533043    0.001367754    0.004728901
      4        7           0.006470248    0.000405611    0.000278033
      5        6           0.000764039   -0.001303808    0.004733030
      6        6          -0.000055254   -0.000647525   -0.000523968
      7        1          -0.000309233   -0.000021446   -0.001234769
      8        1          -0.001591090   -0.000105104   -0.000754687
      9        1          -0.000896932   -0.000784368    0.002053230
     10        1          -0.000936127    0.001171718    0.001122846
     11        1           0.000284903   -0.000985329    0.001463813
     12        1          -0.004007985    0.001551328   -0.007786125
     13        1           0.004045675    0.000266402   -0.000137960
     14        1           0.000152600    0.000995521    0.001454882
     15        1          -0.003802696   -0.002019949   -0.007804732
     16        1          -0.000979855    0.000667088    0.002053703
     17        1          -0.000768456   -0.001280628    0.001116115
 -------------------------------------------------------------------
 Cartesian Forces:  Max     0.007804732 RMS     0.002418957

 GradGradGradGradGradGradGradGradGradGradGradGradGradGradGradGradGradGrad
 Berny optimization.
 FormGI is forming the generalized inverse of G from B-inverse, IUseBI=4.
 Internal  Forces:  Max     0.007213638 RMS     0.001744005
 Search for a local minimum.
 Step number   1 out of a maximum of  102
 All quantities printed in internal units (Hartrees-Bohrs-Radians)
 Mixed Optimization -- RFO/linear search
 Second derivative matrix not updated -- first step.
 ITU=  0
     Eigenvalues ---    0.00639   0.00648   0.01069   0.01971   0.02314
     Eigenvalues ---    0.03431   0.04034   0.04350   0.04574   0.04959
     Eigenvalues ---    0.05026   0.05574   0.05876   0.06065   0.06532
     Eigenvalues ---    0.08010   0.08126   0.08126   0.08175   0.08443
     Eigenvalues ---    0.09323   0.09336   0.11698   0.12080   0.12476
     Eigenvalues ---    0.16150   0.16332   0.22089   0.28235   0.29017
     Eigenvalues ---    0.29124   0.29666   0.33974   0.33975   0.34024
     Eigenvalues ---    0.34044   0.34049   0.34147   0.34148   0.34184
     Eigenvalues ---    0.34185   0.34189   0.35495   0.35497   0.44277
 RFO step:  Lambda=-2.72514156D-03 EMin= 6.38534539D-03
 Linear search not attempted -- first point.
 Iteration  1 RMS(Cart)=  0.02517362 RMS(Int)=  0.00051059
 Iteration  2 RMS(Cart)=  0.00056785 RMS(Int)=  0.00020452
 Iteration  3 RMS(Cart)=  0.00000014 RMS(Int)=  0.00020452
 Variable       Old X    -DE/DX   Delta X   Delta X   Delta X     New X
                                 (Linear)    (Quad)   (Total)
    R1        2.88290   0.00258   0.00000   0.01085   0.01088   2.89378
    R2        2.88268   0.00263   0.00000   0.01101   0.01103   2.89372
    R3        2.07012   0.00047   0.00000   0.00136   0.00136   2.07148
    R4        2.07290   0.00173   0.00000   0.00504   0.00504   2.07794
    R5        2.88624  -0.00270   0.00000  -0.00910  -0.00910   2.87714
    R6        2.07375   0.00011   0.00000   0.00032   0.00032   2.07407
    R7        2.07082   0.00043   0.00000   0.00124   0.00124   2.07205
    R8        2.76547   0.00094   0.00000   0.00067   0.00064   2.76611
    R9        2.07020   0.00009   0.00000   0.00025   0.00025   2.07045
   R10        2.07255   0.00719   0.00000   0.02096   0.02096   2.09351
   R11        2.76550   0.00095   0.00000   0.00068   0.00066   2.76615
   R12        1.92825  -0.00324   0.00000  -0.00727  -0.00727   1.92098
   R13        2.88647  -0.00274   0.00000  -0.00923  -0.00923   2.87723
   R14        2.07019   0.00009   0.00000   0.00026   0.00026   2.07045
   R15        2.07247   0.00721   0.00000   0.02102   0.02102   2.09349
   R16        2.07372   0.00012   0.00000   0.00034   0.00034   2.07406
   R17        2.07082   0.00042   0.00000   0.00123   0.00123   2.07206
    A1        1.92937  -0.00175   0.00000  -0.00278  -0.00335   1.92603
    A2        1.92165   0.00039   0.00000   0.00520   0.00531   1.92695
    A3        1.91018   0.00077   0.00000  -0.00205  -0.00184   1.90834
    A4        1.92176   0.00039   0.00000   0.00515   0.00526   1.92702
    A5        1.91033   0.00075   0.00000  -0.00216  -0.00194   1.90839
    A6        1.86955  -0.00050   0.00000  -0.00345  -0.00353   1.86602
    A7        1.94195   0.00099   0.00000  -0.00633  -0.00634   1.93561
    A8        1.90983  -0.00020   0.00000   0.00446   0.00412   1.91395
    A9        1.91473   0.00140   0.00000   0.01841   0.01854   1.93326
   A10        1.91327  -0.00116   0.00000  -0.01736  -0.01731   1.89595
   A11        1.91603  -0.00167   0.00000  -0.00768  -0.00772   1.90832
   A12        1.86649   0.00062   0.00000   0.00910   0.00890   1.87539
   A13        1.94559  -0.00173   0.00000  -0.02696  -0.02708   1.91851
   A14        1.91091   0.00108   0.00000   0.00656   0.00628   1.91719
   A15        1.92610  -0.00299   0.00000  -0.02410  -0.02371   1.90238
   A16        1.90110  -0.00096   0.00000  -0.01221  -0.01226   1.88884
   A17        1.91677   0.00403   0.00000   0.04341   0.04305   1.95982
   A18        1.86129   0.00069   0.00000   0.01524   0.01517   1.87646
   A19        1.94538   0.00193   0.00000   0.00264   0.00169   1.94707
   A20        1.89998  -0.00091   0.00000   0.00418   0.00437   1.90436
   A21        1.89980  -0.00089   0.00000   0.00434   0.00453   1.90434
   A22        1.94574  -0.00173   0.00000  -0.02703  -0.02715   1.91859
   A23        1.90091  -0.00095   0.00000  -0.01204  -0.01208   1.88883
   A24        1.91677   0.00403   0.00000   0.04338   0.04302   1.95979
   A25        1.91081   0.00108   0.00000   0.00659   0.00631   1.91711
   A26        1.92617  -0.00299   0.00000  -0.02417  -0.02378   1.90239
   A27        1.86135   0.00069   0.00000   0.01521   0.01513   1.87649
   A28        1.94198   0.00100   0.00000  -0.00630  -0.00632   1.93567
   A29        1.90996  -0.00021   0.00000   0.00438   0.00403   1.91399
   A30        1.91479   0.00139   0.00000   0.01838   0.01851   1.93330
   A31        1.91323  -0.00115   0.00000  -0.01733  -0.01729   1.89594
   A32        1.91581  -0.00167   0.00000  -0.00759  -0.00762   1.90820
   A33        1.86653   0.00062   0.00000   0.00906   0.00886   1.87539
    D1       -0.90696  -0.00054   0.00000  -0.01208  -0.01218  -0.91915
    D2        1.20993  -0.00148   0.00000  -0.03496  -0.03516   1.17477
    D3       -3.03063  -0.00003   0.00000  -0.01070  -0.01078  -3.04141
    D4       -3.03417  -0.00013   0.00000  -0.02019  -0.02014  -3.05430
    D5       -0.91728  -0.00107   0.00000  -0.04308  -0.04311  -0.96039
    D6        1.12535   0.00037   0.00000  -0.01882  -0.01873   1.10662
    D7        1.19844  -0.00021   0.00000  -0.01783  -0.01787   1.18057
    D8       -2.96786  -0.00116   0.00000  -0.04072  -0.04084  -3.00870
    D9       -0.92523   0.00029   0.00000  -0.01646  -0.01646  -0.94170
   D10        0.90668   0.00054   0.00000   0.01218   0.01229   0.91897
   D11       -1.21026   0.00148   0.00000   0.03508   0.03527  -1.17499
   D12        3.03013   0.00004   0.00000   0.01093   0.01101   3.04114
   D13        3.03382   0.00014   0.00000   0.02032   0.02027   3.05408
   D14        0.91687   0.00108   0.00000   0.04322   0.04325   0.96012
   D15       -1.12592  -0.00036   0.00000   0.01907   0.01899  -1.10693
   D16       -1.19863   0.00021   0.00000   0.01787   0.01791  -1.18072
   D17        2.96761   0.00115   0.00000   0.04077   0.04089   3.00851
   D18        0.92483  -0.00029   0.00000   0.01662   0.01663   0.94145
   D19        0.96689   0.00037   0.00000   0.02298   0.02277   0.98965
   D20        3.07160  -0.00123   0.00000  -0.00531  -0.00542   3.06617
   D21       -1.16801  -0.00150   0.00000   0.00302   0.00275  -1.16525
   D22       -1.14799   0.00075   0.00000   0.03314   0.03303  -1.11497
   D23        0.95672  -0.00085   0.00000   0.00485   0.00484   0.96155
   D24        3.00030  -0.00111   0.00000   0.01318   0.01301   3.01331
   D25        3.08980   0.00165   0.00000   0.03679   0.03669   3.12648
   D26       -1.08868   0.00005   0.00000   0.00851   0.00850  -1.08018
   D27        0.95490  -0.00021   0.00000   0.01683   0.01667   0.97158
   D28       -1.02169  -0.00092   0.00000  -0.05451  -0.05429  -1.07598
   D29       -3.11745  -0.00042   0.00000  -0.06427  -0.06389   3.10185
   D30       -3.13214  -0.00053   0.00000  -0.03746  -0.03767   3.11337
   D31        1.05528  -0.00004   0.00000  -0.04722  -0.04726   1.00802
   D32        1.11856  -0.00308   0.00000  -0.07320  -0.07362   1.04494
   D33       -0.97720  -0.00258   0.00000  -0.08296  -0.08321  -1.06041
   D34        1.02146   0.00092   0.00000   0.05456   0.05435   1.07581
   D35        3.13175   0.00054   0.00000   0.03762   0.03783  -3.11360
   D36       -1.11898   0.00308   0.00000   0.07340   0.07382  -1.04516
   D37        3.11733   0.00041   0.00000   0.06423   0.06384  -3.10201
   D38       -1.05557   0.00003   0.00000   0.04729   0.04733  -1.00824
   D39        0.97688   0.00258   0.00000   0.08306   0.08332   1.06020
   D40       -0.96642  -0.00036   0.00000  -0.02310  -0.02289  -0.98931
   D41        1.14861  -0.00074   0.00000  -0.03334  -0.03323   1.11538
   D42       -3.08928  -0.00164   0.00000  -0.03697  -0.03686  -3.12614
   D43       -3.07092   0.00122   0.00000   0.00498   0.00510  -3.06582
   D44       -0.95589   0.00084   0.00000  -0.00526  -0.00524  -0.96113
   D45        1.08941  -0.00006   0.00000  -0.00888  -0.00887   1.08054
   D46        1.16862   0.00149   0.00000  -0.00328  -0.00301   1.16561
   D47       -2.99953   0.00111   0.00000  -0.01352  -0.01335  -3.01288
   D48       -0.95423   0.00021   0.00000  -0.01714  -0.01698  -0.97122
         Item               Value     Threshold  Converged?
 Maximum Force            0.007214     0.000450     NO 
 RMS     Force            0.001744     0.000300     NO 
 Maximum Displacement     0.139955     0.001800     NO 
 RMS     Displacement     0.025279     0.001200     NO 
 Predicted change in Energy=-1.472915D-03
 GradGradGradGradGradGradGradGradGradGradGradGradGradGradGradGradGradGrad

                          Input orientation:                          
 ---------------------------------------------------------------------
 Center     Atomic      Atomic             Coordinates (Angstroms)
 Number     Number       Type             X           Y           Z
 ---------------------------------------------------------------------
      1          6           0        0.572272    0.038001   -1.368103
      2          6           0        0.476785    1.290212   -0.491862
      3          6           0       -0.668150    1.169974    0.504493
      4          7           0       -0.495233   -0.033090    1.320179
      5          6           0       -0.516263   -1.245985    0.500965
      6          6           0        0.634391   -1.218986   -0.495768
      7          1           0        1.451245    0.094266   -2.020675
      8          1           0       -0.309406   -0.016336   -2.022934
      9          1           0        1.413301    1.423792    0.064653
     10          1           0        0.329683    2.185398   -1.107717
     11          1           0       -0.673102    2.038737    1.172057
     12          1           0       -1.628388    1.168604   -0.047999
     13          1           0       -1.244639   -0.081212    2.005327
     14          1           0       -0.412012   -2.110441    1.165996
     15          1           0       -1.469299   -1.363373   -0.051506
     16          1           0        1.580452   -1.236199    0.060358
     17          1           0        0.600063   -2.123662   -1.114365
 ---------------------------------------------------------------------
                    Distance matrix (angstroms):
                    1          2          3          4          5
     1  C    0.000000
     2  C    1.531323   0.000000
     3  C    2.515278   1.522516   0.000000
     4  N    2.893351   2.445289   1.463765   0.000000
     5  C    2.515342   2.898990   2.420731   1.463785   0.000000
     6  C    1.531288   2.514146   2.899010   2.445417   1.522566
     7  H    1.096179   2.171896   3.467774   3.868630   3.467856
     8  H    1.099596   2.160867   2.814944   3.348316   2.815119
     9  H    2.163455   1.097550   2.142504   2.709494   3.322845
    10  H    2.176686   1.096483   2.150808   3.390701   3.883023
    11  H    3.465013   2.156653   1.095635   2.084717   3.356242
    12  H    2.804255   2.154891   1.107839   2.144766   2.714484
    13  H    3.833459   3.328671   2.037230   1.016539   2.037237
    14  H    3.465007   3.886244   3.356234   2.084726   1.095636
    15  H    2.804512   3.320040   2.714557   2.144755   1.107827
    16  H    2.163450   2.811722   3.323121   2.709814   2.142532
    17  H    2.176682   3.472354   3.882924   3.390748   2.150765
                    6          7          8          9         10
     6  C    0.000000
     7  H    2.171917   0.000000
     8  H    2.160870   1.764123   0.000000
     9  H    2.811592   2.473392   3.065894   0.000000
    10  H    3.472342   2.542485   2.468540   1.768819   0.000000
    11  H    3.886378   4.299692   3.816224   2.440815   2.494886
    12  H    3.319827   3.811797   2.654085   3.054454   2.447634
    13  H    3.328777   4.848430   4.135910   3.618826   4.160174
    14  H    2.156643   4.299689   3.816422   4.127412   4.916717
    15  H    2.154931   3.812075   2.654504   4.011380   4.116514
    16  H    1.097544   2.473364   3.065899   2.665242   3.825722
    17  H    1.096485   2.542659   2.468493   3.825686   4.317540
                   11         12         13         14         15
    11  H    0.000000
    12  H    1.777144   0.000000
    13  H    2.348441   2.434225   0.000000
    14  H    4.157388   3.702092   2.348513   0.000000
    15  H    3.702079   2.536973   2.434126   1.777154   0.000000
    16  H    4.127904   4.011418   3.619121   2.440624   3.054451
    17  H    4.916731   4.116084   4.160169   2.494898   2.447441
                   16         17
    16  H    0.000000
    17  H    1.768821   0.000000
 Stoichiometry    C5H11N
 Framework group  C1[X(C5H11N)]
 Deg. of freedom    45
 Full point group                 C1      NOp   1
 Largest Abelian subgroup         C1      NOp   1
 Largest concise Abelian subgroup C1      NOp   1
                         Standard orientation:                         
 ---------------------------------------------------------------------
 Center     Atomic      Atomic             Coordinates (Angstroms)
 Number     Number       Type             X           Y           Z
 ---------------------------------------------------------------------
      1          6           0       -1.457304    0.002351    0.232969
      2          6           0       -0.710349    1.258203   -0.225116
      3          6           0        0.749378    1.209158    0.204823
      4          7           0        1.383018   -0.002173   -0.318420
      5          6           0        0.745544   -1.211569    0.204702
      6          6           0       -0.714457   -1.255939   -0.224991
      7          1           0       -2.482192    0.004046   -0.155891
      8          1           0       -1.531374    0.002550    1.330068
      9          1           0       -0.751241    1.333689   -1.319303
     10          1           0       -1.179396    2.160680    0.184523
     11          1           0        1.284761    2.076666   -0.196690
     12          1           0        0.802009    1.267098    1.309892
     13          1           0        2.365211   -0.003749   -0.056416
     14          1           0        1.278046   -2.080717   -0.197096
     15          1           0        0.798201   -1.269872    1.309740
     16          1           0       -0.755765   -1.331548   -1.319149
     17          1           0       -1.186252   -2.156854    0.184939
 ---------------------------------------------------------------------
 Rotational constants (GHZ):      4.5450235      4.4403315      2.5441453
 Standard basis: 6-31+G(d) (6D, 7F)
 There are   136 symmetry adapted cartesian basis functions of A   symmetry.
 There are   136 symmetry adapted basis functions of A   symmetry.
   136 basis functions,   236 primitive gaussians,   136 cartesian basis functions
    24 alpha electrons       24 beta electrons
       nuclear repulsion energy       259.1942816939 Hartrees.
 NAtoms=   17 NActive=   17 NUniq=   17 SFac= 1.00D+00 NAtFMM=   60 NAOKFM=F Big=F
 Integral buffers will be    131072 words long.
 Raffenetti 2 integral format.
 Two-electron integral symmetry is turned on.
 One-electron integrals computed using PRISM.
 NBasis=   136 RedAO= T EigKep=  5.13D-05  NBF=   136
 NBsUse=   136 1.00D-06 EigRej= -1.00D+00 NBFU=   136
 Initial guess from the checkpoint file:  "/srv/scratch/z5358697/gauss/Gau-1281771.chk"
 B after Tr=     0.000000    0.000000    0.000000
         Rot=    0.999996    0.000002    0.002821    0.000323 Ang=   0.33 deg.
 ExpMin= 4.38D-02 ExpMax= 4.17D+03 ExpMxC= 6.27D+02 IAcc=2 IRadAn=         4 AccDes= 0.00D+00
 Harris functional with IExCor= 1009 and IRadAn=       4 diagonalized for initial guess.
 HarFok:  IExCor= 1009 AccDes= 0.00D+00 IRadAn=         4 IDoV= 1 UseB2=F ITyADJ=14
 ICtDFT=  3500011 ScaDFX=  1.000000  1.000000  1.000000  1.000000
 FoFCou: FMM=F IPFlag=           0 FMFlag=      100000 FMFlg1=           0
         NFxFlg=           0 DoJE=T BraDBF=F KetDBF=T FulRan=T
         wScrn=  0.000000 ICntrl=     500 IOpCl=  0 I1Cent=   200000004 NGrid=           0
         NMat0=    1 NMatS0=      1 NMatT0=    0 NMatD0=    1 NMtDS0=    0 NMtDT0=    0
 Petite list used in FoFCou.
 Requested convergence on RMS density matrix=1.00D-08 within 128 cycles.
 Requested convergence on MAX density matrix=1.00D-06.
 Requested convergence on             energy=1.00D-06.
 No special actions if energy rises.
 SCF Done:  E(RM062X) =  -251.783360692     A.U. after   11 cycles
            NFock= 11  Conv=0.42D-08     -V/T= 2.0091
 Calling FoFJK, ICntrl=      2127 FMM=F ISym2X=0 I1Cent= 0 IOpClX= 0 NMat=1 NMatS=1 NMatT=0.
 ***** Axes restored to original set *****
 -------------------------------------------------------------------
 Center     Atomic                   Forces (Hartrees/Bohr)
 Number     Number              X              Y              Z
 -------------------------------------------------------------------
      1        6           0.000454997    0.000040001    0.000482394
      2        6           0.001615948    0.000762248   -0.001488313
      3        6          -0.000415887    0.000550152    0.002641852
      4        7          -0.002293231   -0.000144512   -0.003807072
      5        6          -0.000335416   -0.000601446    0.002645678
      6        6           0.001689637   -0.000561743   -0.001483721
      7        1          -0.000389066   -0.000027492   -0.000236613
      8        1          -0.000332565   -0.000022782    0.000218211
      9        1          -0.000060113   -0.000492425    0.000127343
     10        1           0.000373078   -0.000247567   -0.000377924
     11        1          -0.000668785   -0.000259347   -0.000032341
     12        1           0.000053333   -0.001046807   -0.000032996
     13        1           0.000862285    0.000053006    0.001660682
     14        1          -0.000699946    0.000174549   -0.000033099
     15        1          -0.000082671    0.001043899   -0.000031548
     16        1          -0.000116843    0.000484552    0.000127887
     17        1           0.000345247    0.000295714   -0.000380420
 -------------------------------------------------------------------
 Cartesian Forces:  Max     0.003807072 RMS     0.001031373

 GradGradGradGradGradGradGradGradGradGradGradGradGradGradGradGradGradGrad
 Berny optimization.
 Using GEDIIS/GDIIS optimizer.
 FormGI is forming the generalized inverse of G from B-inverse, IUseBI=4.
 Internal  Forces:  Max     0.002348487 RMS     0.000460726
 Search for a local minimum.
 Step number   2 out of a maximum of  102
 All quantities printed in internal units (Hartrees-Bohrs-Radians)
 Mixed Optimization -- En-DIIS/RFO-DIIS
 Update second derivatives using D2CorX and points    1    2
 DE= -1.42D-03 DEPred=-1.47D-03 R= 9.62D-01
 TightC=F SS=  1.41D+00  RLast= 2.76D-01 DXNew= 5.0454D-01 8.2901D-01
 Trust test= 9.62D-01 RLast= 2.76D-01 DXMaxT set to 5.05D-01
 ITU=  1  0
 Use linear search instead of GDIIS.
     Eigenvalues ---    0.00628   0.00664   0.01018   0.01829   0.02347
     Eigenvalues ---    0.03450   0.04094   0.04471   0.04806   0.05079
     Eigenvalues ---    0.05091   0.05642   0.05984   0.06237   0.06443
     Eigenvalues ---    0.07983   0.08049   0.08164   0.08199   0.08256
     Eigenvalues ---    0.09050   0.09480   0.11624   0.12024   0.12800
     Eigenvalues ---    0.15919   0.16217   0.22212   0.28230   0.28983
     Eigenvalues ---    0.29043   0.30765   0.33952   0.33974   0.33984
     Eigenvalues ---    0.34047   0.34056   0.34147   0.34149   0.34185
     Eigenvalues ---    0.34188   0.34296   0.35416   0.36290   0.44441
 RFO step:  Lambda=-3.14273698D-04 EMin= 6.27510415D-03
 Quartic linear search produced a step of  0.04180.
 Iteration  1 RMS(Cart)=  0.01203486 RMS(Int)=  0.00012932
 Iteration  2 RMS(Cart)=  0.00012354 RMS(Int)=  0.00002879
 Iteration  3 RMS(Cart)=  0.00000000 RMS(Int)=  0.00002879
 Variable       Old X    -DE/DX   Delta X   Delta X   Delta X     New X
                                 (Linear)    (Quad)   (Total)
    R1        2.89378  -0.00037   0.00045  -0.00046  -0.00002   2.89376
    R2        2.89372  -0.00037   0.00046  -0.00043   0.00001   2.89373
    R3        2.07148  -0.00017   0.00006  -0.00046  -0.00040   2.07108
    R4        2.07794   0.00014   0.00021   0.00065   0.00086   2.07880
    R5        2.87714   0.00235  -0.00038   0.00776   0.00738   2.88452
    R6        2.07407  -0.00005   0.00001  -0.00012  -0.00011   2.07396
    R7        2.07205  -0.00004   0.00005  -0.00006  -0.00001   2.07204
    R8        2.76611  -0.00106   0.00003  -0.00324  -0.00319   2.76292
    R9        2.07045  -0.00022   0.00001  -0.00066  -0.00065   2.06980
   R10        2.09351  -0.00003   0.00088   0.00091   0.00178   2.09529
   R11        2.76615  -0.00106   0.00003  -0.00325  -0.00321   2.76294
   R12        1.92098   0.00048  -0.00030   0.00079   0.00048   1.92146
   R13        2.87723   0.00235  -0.00039   0.00775   0.00737   2.88460
   R14        2.07045  -0.00023   0.00001  -0.00067  -0.00066   2.06979
   R15        2.09349  -0.00002   0.00088   0.00092   0.00180   2.09529
   R16        2.07406  -0.00004   0.00001  -0.00011  -0.00010   2.07396
   R17        2.07206  -0.00004   0.00005  -0.00007  -0.00001   2.07204
    A1        1.92603   0.00021  -0.00014  -0.00049  -0.00072   1.92531
    A2        1.92695  -0.00003   0.00022   0.00279   0.00303   1.92999
    A3        1.90834  -0.00008  -0.00008  -0.00238  -0.00243   1.90591
    A4        1.92702  -0.00004   0.00022   0.00274   0.00298   1.93001
    A5        1.90839  -0.00009  -0.00008  -0.00241  -0.00247   1.90592
    A6        1.86602   0.00002  -0.00015  -0.00036  -0.00052   1.86550
    A7        1.93561  -0.00025  -0.00027  -0.00520  -0.00548   1.93013
    A8        1.91395  -0.00002   0.00017  -0.00151  -0.00137   1.91257
    A9        1.93326  -0.00028   0.00077  -0.00127  -0.00047   1.93279
   A10        1.89595   0.00005  -0.00072  -0.00099  -0.00173   1.89423
   A11        1.90832   0.00044  -0.00032   0.00593   0.00561   1.91393
   A12        1.87539   0.00008   0.00037   0.00333   0.00369   1.87907
   A13        1.91851   0.00016  -0.00113  -0.00512  -0.00626   1.91225
   A14        1.91719   0.00027   0.00026   0.00879   0.00904   1.92623
   A15        1.90238   0.00019  -0.00099  -0.00174  -0.00278   1.89961
   A16        1.88884   0.00001  -0.00051   0.00329   0.00279   1.89163
   A17        1.95982  -0.00071   0.00180  -0.00780  -0.00608   1.95374
   A18        1.87646   0.00008   0.00063   0.00322   0.00385   1.88031
   A19        1.94707   0.00029   0.00007   0.00210   0.00205   1.94912
   A20        1.90436   0.00019   0.00018   0.01172   0.01179   1.91614
   A21        1.90434   0.00019   0.00019   0.01175   0.01183   1.91616
   A22        1.91859   0.00016  -0.00113  -0.00516  -0.00630   1.91228
   A23        1.88883   0.00001  -0.00050   0.00330   0.00282   1.89164
   A24        1.95979  -0.00071   0.00180  -0.00780  -0.00608   1.95371
   A25        1.91711   0.00028   0.00026   0.00883   0.00907   1.92619
   A26        1.90239   0.00019  -0.00099  -0.00174  -0.00277   1.89962
   A27        1.87649   0.00008   0.00063   0.00320   0.00383   1.88032
   A28        1.93567  -0.00025  -0.00026  -0.00521  -0.00549   1.93018
   A29        1.91399  -0.00002   0.00017  -0.00156  -0.00142   1.91257
   A30        1.93330  -0.00028   0.00077  -0.00130  -0.00049   1.93280
   A31        1.89594   0.00005  -0.00072  -0.00097  -0.00170   1.89424
   A32        1.90820   0.00044  -0.00032   0.00600   0.00568   1.91388
   A33        1.87539   0.00008   0.00037   0.00332   0.00368   1.87907
    D1       -0.91915   0.00001  -0.00051  -0.01125  -0.01177  -0.93091
    D2        1.17477  -0.00010  -0.00147  -0.01675  -0.01823   1.15654
    D3       -3.04141  -0.00019  -0.00045  -0.01437  -0.01483  -3.05624
    D4       -3.05430  -0.00006  -0.00084  -0.01627  -0.01711  -3.07141
    D5       -0.96039  -0.00017  -0.00180  -0.02177  -0.02357  -0.98395
    D6        1.10662  -0.00026  -0.00078  -0.01939  -0.02017   1.08644
    D7        1.18057  -0.00002  -0.00075  -0.01604  -0.01679   1.16378
    D8       -3.00870  -0.00013  -0.00171  -0.02154  -0.02325  -3.03195
    D9       -0.94170  -0.00022  -0.00069  -0.01916  -0.01986  -0.96155
   D10        0.91897  -0.00001   0.00051   0.01131   0.01183   0.93080
   D11       -1.17499   0.00010   0.00147   0.01682   0.01830  -1.15669
   D12        3.04114   0.00019   0.00046   0.01449   0.01496   3.05610
   D13        3.05408   0.00006   0.00085   0.01636   0.01720   3.07129
   D14        0.96012   0.00017   0.00181   0.02187   0.02367   0.98380
   D15       -1.10693   0.00026   0.00079   0.01954   0.02033  -1.08660
   D16       -1.18072   0.00002   0.00075   0.01608   0.01683  -1.16389
   D17        3.00851   0.00013   0.00171   0.02159   0.02330   3.03181
   D18        0.94145   0.00022   0.00069   0.01926   0.01996   0.96142
   D19        0.98965  -0.00024   0.00095   0.00620   0.00714   0.99680
   D20        3.06617   0.00005  -0.00023   0.01249   0.01226   3.07843
   D21       -1.16525   0.00041   0.00012   0.02043   0.02052  -1.14473
   D22       -1.11497  -0.00009   0.00138   0.01191   0.01329  -1.10168
   D23        0.96155   0.00019   0.00020   0.01821   0.01840   0.97996
   D24        3.01331   0.00056   0.00054   0.02614   0.02667   3.03998
   D25        3.12648  -0.00046   0.00153   0.00519   0.00671   3.13320
   D26       -1.08018  -0.00017   0.00036   0.01148   0.01183  -1.06836
   D27        0.97158   0.00019   0.00070   0.01942   0.02009   0.99167
   D28       -1.07598   0.00014  -0.00227  -0.00833  -0.01060  -1.08659
   D29        3.10185  -0.00041  -0.00267  -0.03214  -0.03484   3.06701
   D30        3.11337  -0.00030  -0.00157  -0.01801  -0.01959   3.09379
   D31        1.00802  -0.00084  -0.00198  -0.04182  -0.04382   0.96421
   D32        1.04494   0.00002  -0.00308  -0.01944  -0.02250   1.02244
   D33       -1.06041  -0.00053  -0.00348  -0.04325  -0.04673  -1.10714
   D34        1.07581  -0.00014   0.00227   0.00839   0.01066   1.08647
   D35       -3.11360   0.00030   0.00158   0.01809   0.01968  -3.09392
   D36       -1.04516  -0.00002   0.00309   0.01951   0.02258  -1.02258
   D37       -3.10201   0.00040   0.00267   0.03218   0.03487  -3.06715
   D38       -1.00824   0.00084   0.00198   0.04188   0.04389  -0.96435
   D39        1.06020   0.00053   0.00348   0.04330   0.04679   1.10699
   D40       -0.98931   0.00024  -0.00096  -0.00631  -0.00726  -0.99658
   D41        1.11538   0.00009  -0.00139  -0.01208  -0.01346   1.10192
   D42       -3.12614   0.00046  -0.00154  -0.00531  -0.00684  -3.13298
   D43       -3.06582  -0.00005   0.00021  -0.01263  -0.01240  -3.07822
   D44       -0.96113  -0.00020  -0.00022  -0.01839  -0.01860  -0.97973
   D45        1.08054   0.00017  -0.00037  -0.01162  -0.01198   1.06856
   D46        1.16561  -0.00041  -0.00013  -0.02057  -0.02067   1.14494
   D47       -3.01288  -0.00056  -0.00056  -0.02633  -0.02687  -3.03975
   D48       -0.97122  -0.00019  -0.00071  -0.01956  -0.02025  -0.99146
         Item               Value     Threshold  Converged?
 Maximum Force            0.002348     0.000450     NO 
 RMS     Force            0.000461     0.000300     NO 
 Maximum Displacement     0.047527     0.001800     NO 
 RMS     Displacement     0.012046     0.001200     NO 
 Predicted change in Energy=-1.630622D-04
 GradGradGradGradGradGradGradGradGradGradGradGradGradGradGradGradGradGrad

                          Input orientation:                          
 ---------------------------------------------------------------------
 Center     Atomic      Atomic             Coordinates (Angstroms)
 Number     Number       Type             X           Y           Z
 ---------------------------------------------------------------------
      1          6           0        0.569956    0.037851   -1.367959
      2          6           0        0.481189    1.290171   -0.491186
      3          6           0       -0.671254    1.169215    0.502395
      4          7           0       -0.492799   -0.032955    1.315170
      5          6           0       -0.519479   -1.245631    0.498835
      6          6           0        0.638774   -1.218398   -0.495050
      7          1           0        1.439865    0.093531   -2.032267
      8          1           0       -0.320522   -0.017096   -2.011501
      9          1           0        1.415510    1.412224    0.071517
     10          1           0        0.344408    2.186726   -1.107417
     11          1           0       -0.691840    2.037455    1.169775
     12          1           0       -1.627420    1.151792   -0.058711
     13          1           0       -1.219489   -0.079660    2.024825
     14          1           0       -0.430930   -2.111569    1.163638
     15          1           0       -1.470473   -1.346462   -0.062271
     16          1           0        1.581201   -1.224354    0.067341
     17          1           0        0.615004   -2.123141   -1.114032
 ---------------------------------------------------------------------
                    Distance matrix (angstroms):
                    1          2          3          4          5
     1  C    0.000000
     2  C    1.531312   0.000000
     3  C    2.513724   1.526421   0.000000
     4  N    2.886805   2.441769   1.462074   0.000000
     5  C    2.513785   2.900305   2.419613   1.462087   0.000000
     6  C    1.531296   2.513517   2.900304   2.441849   1.526466
     7  H    1.095968   2.173922   3.469644   3.867366   3.469706
     8  H    1.100053   2.159408   2.801789   3.331166   2.801905
     9  H    2.162395   1.097491   2.144596   2.697564   3.315263
    10  H    2.176331   1.096476   2.158331   3.390697   3.886826
    11  H    3.468520   2.166384   1.095290   2.085030   3.355371
    12  H    2.789885   2.156946   1.108781   2.139752   2.699264
    13  H    3.837565   3.331524   2.044026   1.016794   2.044052
    14  H    3.468539   3.891303   3.355375   2.085049   1.095287
    15  H    2.790071   3.308291   2.699302   2.139741   1.108781
    16  H    2.162375   2.800860   3.315418   2.697774   2.144644
    17  H    2.176326   3.472254   3.886760   3.390742   2.158337
                    6          7          8          9         10
     6  C    0.000000
     7  H    2.173923   0.000000
     8  H    2.159398   1.763981   0.000000
     9  H    2.800801   2.483032   3.065244   0.000000
    10  H    3.472249   2.537092   2.473121   1.771157   0.000000
    11  H    3.891369   4.309997   3.805203   2.457235   2.506331
    12  H    3.308146   3.797772   2.624437   3.056829   2.461499
    13  H    3.331611   4.854086   4.135696   3.603379   4.170518
    14  H    2.166395   4.310005   3.805327   4.125431   4.922822
    15  H    2.156993   3.797964   2.624710   3.994639   4.107255
    16  H    1.097491   2.482972   3.065225   2.641782   3.813814
    17  H    1.096478   2.537161   2.473072   3.813809   4.318358
                   11         12         13         14         15
    11  H    0.000000
    12  H    1.780136   0.000000
    13  H    2.343437   2.454384   0.000000
    14  H    4.157224   3.684461   2.343528   0.000000
    15  H    3.684440   2.503182   2.454333   1.780138   0.000000
    16  H    4.125708   3.994647   3.603599   2.457170   3.056865
    17  H    4.922821   4.106989   4.170564   2.506370   2.461432
                   16         17
    16  H    0.000000
    17  H    1.771157   0.000000
 Stoichiometry    C5H11N
 Framework group  C1[X(C5H11N)]
 Deg. of freedom    45
 Full point group                 C1      NOp   1
 Largest Abelian subgroup         C1      NOp   1
 Largest concise Abelian subgroup C1      NOp   1
                         Standard orientation:                         
 ---------------------------------------------------------------------
 Center     Atomic      Atomic             Coordinates (Angstroms)
 Number     Number       Type             X           Y           Z
 ---------------------------------------------------------------------
      1          6           0       -1.454865    0.000775    0.235434
      2          6           0       -0.712704    1.257126   -0.228996
      3          6           0        0.749056    1.209406    0.207972
      4          7           0        1.378246   -0.000694   -0.318752
      5          6           0        0.747833   -1.210207    0.207894
      6          6           0       -0.714070   -1.256391   -0.228920
      7          1           0       -2.484934    0.001334   -0.138871
      8          1           0       -1.514060    0.000841    1.333893
      9          1           0       -0.747494    1.321211   -1.324062
     10          1           0       -1.188430    2.159814    0.172373
     11          1           0        1.291574    2.077946   -0.180577
     12          1           0        0.793351    1.251111    1.315083
     13          1           0        2.368902   -0.001188   -0.089690
     14          1           0        1.289380   -2.079277   -0.180819
     15          1           0        0.792227   -1.252071    1.314995
     16          1           0       -0.749062   -1.320570   -1.323974
     17          1           0       -1.190679   -2.158543    0.172613
 ---------------------------------------------------------------------
 Rotational constants (GHZ):      4.5475805      4.4422571      2.5490351
 Standard basis: 6-31+G(d) (6D, 7F)
 There are   136 symmetry adapted cartesian basis functions of A   symmetry.
 There are   136 symmetry adapted basis functions of A   symmetry.
   136 basis functions,   236 primitive gaussians,   136 cartesian basis functions
    24 alpha electrons       24 beta electrons
       nuclear repulsion energy       259.2493516482 Hartrees.
 NAtoms=   17 NActive=   17 NUniq=   17 SFac= 1.00D+00 NAtFMM=   60 NAOKFM=F Big=F
 Integral buffers will be    131072 words long.
 Raffenetti 2 integral format.
 Two-electron integral symmetry is turned on.
 One-electron integrals computed using PRISM.
 NBasis=   136 RedAO= T EigKep=  5.17D-05  NBF=   136
 NBsUse=   136 1.00D-06 EigRej= -1.00D+00 NBFU=   136
 Initial guess from the checkpoint file:  "/srv/scratch/z5358697/gauss/Gau-1281771.chk"
 B after Tr=     0.000000    0.000000    0.000000
         Rot=    1.000000   -0.000001   -0.000049   -0.000540 Ang=  -0.06 deg.
 ExpMin= 4.38D-02 ExpMax= 4.17D+03 ExpMxC= 6.27D+02 IAcc=2 IRadAn=         4 AccDes= 0.00D+00
 Harris functional with IExCor= 1009 and IRadAn=       4 diagonalized for initial guess.
 HarFok:  IExCor= 1009 AccDes= 0.00D+00 IRadAn=         4 IDoV= 1 UseB2=F ITyADJ=14
 ICtDFT=  3500011 ScaDFX=  1.000000  1.000000  1.000000  1.000000
 FoFCou: FMM=F IPFlag=           0 FMFlag=      100000 FMFlg1=           0
         NFxFlg=           0 DoJE=T BraDBF=F KetDBF=T FulRan=T
         wScrn=  0.000000 ICntrl=     500 IOpCl=  0 I1Cent=   200000004 NGrid=           0
         NMat0=    1 NMatS0=      1 NMatT0=    0 NMatD0=    1 NMtDS0=    0 NMtDT0=    0
 Petite list used in FoFCou.
 Requested convergence on RMS density matrix=1.00D-08 within 128 cycles.
 Requested convergence on MAX density matrix=1.00D-06.
 Requested convergence on             energy=1.00D-06.
 No special actions if energy rises.
 SCF Done:  E(RM062X) =  -251.783559546     A.U. after   10 cycles
            NFock= 10  Conv=0.51D-08     -V/T= 2.0091
 Calling FoFJK, ICntrl=      2127 FMM=F ISym2X=0 I1Cent= 0 IOpClX= 0 NMat=1 NMatS=1 NMatT=0.
 ***** Axes restored to original set *****
 -------------------------------------------------------------------
 Center     Atomic                   Forces (Hartrees/Bohr)
 Number     Number              X              Y              Z
 -------------------------------------------------------------------
      1        6          -0.000169247   -0.000006426    0.000439251
      2        6           0.000323604    0.000599117   -0.000358634
      3        6          -0.000006775   -0.000433124    0.000712230
      4        7          -0.001156968   -0.000074703   -0.001410365
      5        6          -0.000054730    0.000433365    0.000705938
      6        6           0.000387297   -0.000557896   -0.000347521
      7        1          -0.000099296   -0.000007715   -0.000027848
      8        1          -0.000004316    0.000000402    0.000110560
      9        1          -0.000092385   -0.000064964    0.000032660
     10        1           0.000133362   -0.000186232   -0.000096269
     11        1          -0.000231627   -0.000081118   -0.000267610
     12        1           0.000344730   -0.000164574    0.000267972
     13        1           0.000533418    0.000030674    0.000299726
     14        1          -0.000241004    0.000052278   -0.000265932
     15        1           0.000323688    0.000204752    0.000266855
     16        1          -0.000100852    0.000053060    0.000034494
     17        1           0.000111103    0.000203105   -0.000095508
 -------------------------------------------------------------------
 Cartesian Forces:  Max     0.001410365 RMS     0.000379964

 GradGradGradGradGradGradGradGradGradGradGradGradGradGradGradGradGradGrad
 Berny optimization.
 Using GEDIIS/GDIIS optimizer.
 FormGI is forming the generalized inverse of G from B-inverse, IUseBI=4.
 Internal  Forces:  Max     0.000632178 RMS     0.000170886
 Search for a local minimum.
 Step number   3 out of a maximum of  102
 All quantities printed in internal units (Hartrees-Bohrs-Radians)
 Mixed Optimization -- En-DIIS/RFO-DIIS
 Swapping is turned off.
 Update second derivatives using D2CorX and points    1    2    3
 DE= -1.99D-04 DEPred=-1.63D-04 R= 1.22D+00
 TightC=F SS=  1.41D+00  RLast= 1.58D-01 DXNew= 8.4853D-01 4.7367D-01
 Trust test= 1.22D+00 RLast= 1.58D-01 DXMaxT set to 5.05D-01
 ITU=  1  1  0
     Eigenvalues ---    0.00617   0.00669   0.00888   0.01690   0.02360
     Eigenvalues ---    0.03406   0.04113   0.04486   0.04815   0.05034
     Eigenvalues ---    0.05113   0.05690   0.06022   0.06324   0.06430
     Eigenvalues ---    0.07976   0.07994   0.08078   0.08182   0.08189
     Eigenvalues ---    0.09003   0.09435   0.11647   0.11999   0.12824
     Eigenvalues ---    0.15872   0.16179   0.22392   0.28217   0.28967
     Eigenvalues ---    0.29067   0.30901   0.33946   0.33974   0.33998
     Eigenvalues ---    0.34047   0.34055   0.34147   0.34153   0.34185
     Eigenvalues ---    0.34196   0.34439   0.35409   0.35848   0.44485
 En-DIIS/RFO-DIIS IScMMF=        0 using points:     3    2
 RFO step:  Lambda=-8.17462667D-06.
 DidBck=F Rises=F RFO-DIIS coefs:    1.33897   -0.33897
 Iteration  1 RMS(Cart)=  0.00469396 RMS(Int)=  0.00002914
 Iteration  2 RMS(Cart)=  0.00002464 RMS(Int)=  0.00001422
 Iteration  3 RMS(Cart)=  0.00000000 RMS(Int)=  0.00001422
 Variable       Old X    -DE/DX   Delta X   Delta X   Delta X     New X
                                 (Linear)    (Quad)   (Total)
    R1        2.89376  -0.00015  -0.00001   0.00006   0.00004   2.89380
    R2        2.89373  -0.00015   0.00000   0.00007   0.00007   2.89380
    R3        2.07108  -0.00006  -0.00014  -0.00008  -0.00021   2.07087
    R4        2.07880  -0.00006   0.00029  -0.00032  -0.00003   2.07877
    R5        2.88452   0.00030   0.00250  -0.00114   0.00137   2.88588
    R6        2.07396  -0.00007  -0.00004  -0.00023  -0.00026   2.07369
    R7        2.07204  -0.00011   0.00000  -0.00040  -0.00040   2.07163
    R8        2.76292  -0.00063  -0.00108  -0.00160  -0.00268   2.76024
    R9        2.06980  -0.00022  -0.00022  -0.00066  -0.00088   2.06891
   R10        2.09529  -0.00043   0.00060  -0.00149  -0.00089   2.09440
   R11        2.76294  -0.00063  -0.00109  -0.00163  -0.00271   2.76024
   R12        1.92146  -0.00017   0.00016  -0.00091  -0.00074   1.92072
   R13        2.88460   0.00029   0.00250  -0.00121   0.00129   2.88589
   R14        2.06979  -0.00022  -0.00022  -0.00066  -0.00088   2.06891
   R15        2.09529  -0.00043   0.00061  -0.00150  -0.00089   2.09440
   R16        2.07396  -0.00007  -0.00003  -0.00023  -0.00026   2.07369
   R17        2.07204  -0.00012   0.00000  -0.00040  -0.00041   2.07163
    A1        1.92531   0.00029  -0.00024   0.00302   0.00275   1.92806
    A2        1.92999  -0.00009   0.00103  -0.00049   0.00054   1.93053
    A3        1.90591  -0.00009  -0.00082  -0.00088  -0.00170   1.90422
    A4        1.93001  -0.00009   0.00101  -0.00050   0.00051   1.93052
    A5        1.90592  -0.00009  -0.00084  -0.00086  -0.00169   1.90423
    A6        1.86550   0.00005  -0.00018  -0.00043  -0.00061   1.86489
    A7        1.93013  -0.00032  -0.00186  -0.00161  -0.00347   1.92666
    A8        1.91257   0.00010  -0.00047   0.00113   0.00065   1.91322
    A9        1.93279  -0.00003  -0.00016  -0.00043  -0.00058   1.93222
   A10        1.89423   0.00004  -0.00059  -0.00031  -0.00090   1.89332
   A11        1.91393   0.00025   0.00190   0.00106   0.00296   1.91688
   A12        1.87907  -0.00003   0.00125   0.00022   0.00147   1.88055
   A13        1.91225   0.00019  -0.00212   0.00045  -0.00166   1.91058
   A14        1.92623  -0.00010   0.00306  -0.00093   0.00213   1.92835
   A15        1.89961   0.00008  -0.00094   0.00007  -0.00090   1.89871
   A16        1.89163   0.00013   0.00095   0.00197   0.00292   1.89455
   A17        1.95374  -0.00028  -0.00206   0.00000  -0.00209   1.95165
   A18        1.88031  -0.00003   0.00131  -0.00161  -0.00030   1.88002
   A19        1.94912   0.00007   0.00070   0.00048   0.00113   1.95025
   A20        1.91614   0.00005   0.00400   0.00156   0.00548   1.92162
   A21        1.91616   0.00005   0.00401   0.00152   0.00545   1.92162
   A22        1.91228   0.00019  -0.00214   0.00042  -0.00171   1.91058
   A23        1.89164   0.00013   0.00095   0.00195   0.00291   1.89455
   A24        1.95371  -0.00028  -0.00206   0.00004  -0.00205   1.95167
   A25        1.92619  -0.00010   0.00308  -0.00093   0.00214   1.92833
   A26        1.89962   0.00008  -0.00094   0.00006  -0.00091   1.89871
   A27        1.88032  -0.00003   0.00130  -0.00160  -0.00029   1.88003
   A28        1.93018  -0.00032  -0.00186  -0.00164  -0.00350   1.92667
   A29        1.91257   0.00010  -0.00048   0.00116   0.00066   1.91323
   A30        1.93280  -0.00003  -0.00017  -0.00043  -0.00058   1.93222
   A31        1.89424   0.00004  -0.00058  -0.00033  -0.00091   1.89332
   A32        1.91388   0.00024   0.00193   0.00106   0.00298   1.91686
   A33        1.87907  -0.00003   0.00125   0.00023   0.00147   1.88054
    D1       -0.93091   0.00002  -0.00399   0.00187  -0.00212  -0.93303
    D2        1.15654  -0.00006  -0.00618   0.00120  -0.00498   1.15156
    D3       -3.05624  -0.00005  -0.00503   0.00192  -0.00312  -3.05936
    D4       -3.07141   0.00000  -0.00580   0.00077  -0.00502  -3.07643
    D5       -0.98395  -0.00008  -0.00799   0.00010  -0.00789  -0.99184
    D6        1.08644  -0.00007  -0.00684   0.00082  -0.00602   1.08042
    D7        1.16378   0.00004  -0.00569   0.00212  -0.00358   1.16020
    D8       -3.03195  -0.00004  -0.00788   0.00144  -0.00644  -3.03839
    D9       -0.96155  -0.00003  -0.00673   0.00216  -0.00458  -0.96613
   D10        0.93080  -0.00002   0.00401  -0.00178   0.00223   0.93303
   D11       -1.15669   0.00006   0.00620  -0.00110   0.00511  -1.15158
   D12        3.05610   0.00005   0.00507  -0.00184   0.00324   3.05934
   D13        3.07129   0.00000   0.00583  -0.00068   0.00515   3.07644
   D14        0.98380   0.00009   0.00802   0.00001   0.00803   0.99183
   D15       -1.08660   0.00008   0.00689  -0.00073   0.00616  -1.08044
   D16       -1.16389  -0.00004   0.00571  -0.00202   0.00369  -1.16019
   D17        3.03181   0.00004   0.00790  -0.00133   0.00657   3.03838
   D18        0.96142   0.00003   0.00677  -0.00207   0.00470   0.96612
   D19        0.99680  -0.00013   0.00242  -0.00161   0.00081   0.99761
   D20        3.07843   0.00009   0.00415   0.00053   0.00468   3.08311
   D21       -1.14473   0.00004   0.00696  -0.00193   0.00502  -1.13971
   D22       -1.10168  -0.00009   0.00450  -0.00182   0.00269  -1.09899
   D23        0.97996   0.00013   0.00624   0.00032   0.00655   0.98651
   D24        3.03998   0.00008   0.00904  -0.00214   0.00689   3.04687
   D25        3.13320  -0.00022   0.00228  -0.00250  -0.00023   3.13297
   D26       -1.06836   0.00000   0.00401  -0.00037   0.00364  -1.06472
   D27        0.99167  -0.00005   0.00681  -0.00283   0.00398   0.99565
   D28       -1.08659  -0.00003  -0.00359  -0.00149  -0.00509  -1.09168
   D29        3.06701  -0.00018  -0.01181  -0.00482  -0.01665   3.05037
   D30        3.09379  -0.00010  -0.00664  -0.00182  -0.00846   3.08533
   D31        0.96421  -0.00026  -0.01485  -0.00515  -0.02002   0.94419
   D32        1.02244   0.00002  -0.00763  -0.00110  -0.00871   1.01373
   D33       -1.10714  -0.00013  -0.01584  -0.00442  -0.02027  -1.12741
   D34        1.08647   0.00003   0.00361   0.00158   0.00520   1.09166
   D35       -3.09392   0.00011   0.00667   0.00188   0.00855  -3.08537
   D36       -1.02258  -0.00002   0.00765   0.00119   0.00883  -1.01375
   D37       -3.06715   0.00019   0.01182   0.00493   0.01677  -3.05038
   D38       -0.96435   0.00026   0.01488   0.00523   0.02012  -0.94423
   D39        1.10699   0.00013   0.01586   0.00454   0.02040   1.12739
   D40       -0.99658   0.00013  -0.00246   0.00144  -0.00103  -0.99760
   D41        1.10192   0.00009  -0.00456   0.00166  -0.00290   1.09902
   D42       -3.13298   0.00022  -0.00232   0.00234   0.00002  -3.13296
   D43       -3.07822  -0.00009  -0.00420  -0.00065  -0.00486  -3.08308
   D44       -0.97973  -0.00013  -0.00631  -0.00043  -0.00673  -0.98646
   D45        1.06856   0.00000  -0.00406   0.00025  -0.00381   1.06475
   D46        1.14494  -0.00004  -0.00701   0.00179  -0.00521   1.13974
   D47       -3.03975  -0.00008  -0.00911   0.00202  -0.00708  -3.04683
   D48       -0.99146   0.00005  -0.00686   0.00270  -0.00416  -0.99562
         Item               Value     Threshold  Converged?
 Maximum Force            0.000632     0.000450     NO 
 RMS     Force            0.000171     0.000300     YES
 Maximum Displacement     0.024309     0.001800     NO 
 RMS     Displacement     0.004699     0.001200     NO 
 Predicted change in Energy=-2.103330D-05
 GradGradGradGradGradGradGradGradGradGradGradGradGradGradGradGradGradGrad

                          Input orientation:                          
 ---------------------------------------------------------------------
 Center     Atomic      Atomic             Coordinates (Angstroms)
[...]
 ! D44   D(14,5,6,16)          -56.4654         -DE/DX =    0.0                 !
 ! D45   D(14,5,6,17)           61.081          -DE/DX =    0.0                 !
 ! D46   D(15,5,6,1)            65.363          -DE/DX =    0.0                 !
 ! D47   D(15,5,6,16)         -174.4815         -DE/DX =    0.0                 !
 ! D48   D(15,5,6,17)          -56.9351         -DE/DX =    0.0                 !
 --------------------------------------------------------------------------------
 GradGradGradGradGradGradGradGradGradGradGradGradGradGradGradGradGradGrad

 1\1\GINC-KATANA2\Freq\RM062X\6-31+G(d)\C5H11N1\Z5358697\19-Mar-2025\0\
 \#N Geom=AllCheck Guess=TCheck SCRF=Check GenChk RM062X/6-31+G(d) Freq
 \\piperidine\\0,1\C,0.5705055791,0.0378587559,-1.3654477101\C,0.482058
 0725,1.2917710775,-0.4908560474\C,-0.6725137575,1.1682779655,0.5013188
 26\N,-0.4914742556,-0.0329190319,1.3117183985\C,-0.520914638,-1.244849
 0324,0.4976366027\C,0.6398814292,-1.2198613739,-0.4946042427\H,1.43790
 13484,0.0933555883,-2.0329836332\H,-0.321830683,-0.0172551763,-2.00637
 59296\H,1.4148524202,1.4138568517,0.0740733295\H,0.3467479813,2.186281
 4593,-1.1098945253\H,-0.7003344461,2.0369469033,1.167201449\H,-1.62668
 02491,1.1453737446,-0.0619914197\H,-1.2045043263,-0.0788187485,2.03442
 33449\H,-0.4397159712,-2.1121976621,1.160867529\H,-1.4705172941,-1.339
 810014,-0.0658431906\H,1.5806966006,-1.2258819557,0.07018275\H,0.61754
 21898,-2.1224293513,-1.116325531\\Version=ES64L-G09RevD.01\State=1-A\H
 F=-251.7835834\RMSD=1.866e-09\RMSF=2.823e-05\ZeroPoint=0.1609702\Therm
 al=0.1664723\Dipole=-0.3497155,-0.021772,-0.1262617\DipoleDeriv=0.1243
 696,0.0044886,0.0542922,0.0045576,0.0518953,0.003297,0.0135668,0.00076
 71,0.1220956,0.0796971,0.0067165,0.0639724,-0.0034507,0.0901438,-0.034
 6107,0.0375698,0.0097524,0.0617224,0.3380164,0.0096044,0.0791187,-0.05
 14361,0.4150679,-0.1610595,0.1408846,-0.1823797,0.3431359,-0.4313192,0
 .01425,-0.1774218,0.0142078,-0.6528087,-0.0111704,-0.1660072,-0.010477
 6,-0.6372637,0.334013,-0.0199398,0.0582935,0.0409153,0.417876,0.169903
 6,0.1171155,0.1988004,0.3441841,0.0802881,-0.0081684,0.059096,0.002100
 4,0.0894426,0.0424822,0.0384487,-0.0048229,0.0618606,-0.0801447,-0.006
 4095,0.1464532,-0.006366,0.0179478,0.0093311,0.1135469,0.0072822,-0.06
 90628,-0.1006152,-0.0055391,-0.1484329,-0.0056402,-0.0093391,-0.009309
 7,-0.0778959,-0.0048837,-0.0302167,-0.1153802,-0.0366924,-0.0587377,0.
 0126922,0.0405036,-0.0189187,-0.0828897,-0.0501795,-0.0216962,0.047245
 2,0.0412638,-0.0085476,0.0066271,-0.143101,0.0892786,0.0146946,0.10353
 86,-0.0273249,0.0417882,0.0126169,0.0066577,0.0264556,-0.121005,-0.077
 5635,0.0427652,-0.1085344,-0.0580461,-0.2029664,0.0500846,-0.1138533,-
 0.0469126,-0.0261348,0.0124869,-0.1333613,0.0935952,-0.0865802,0.10643
 94,0.0009067,0.2117225,0.0010913,0.0868725,0.0131366,0.0942813,0.00575
 51,0.191061,0.0441046,0.008214,-0.0031006,-0.0057061,-0.1238837,0.0776
 154,0.0288044,0.1128599,-0.0574569,-0.1998184,-0.0716611,-0.1115892,0.
 0253677,-0.0288611,-0.0264848,-0.1205087,-0.10937,-0.0869625,-0.115926
 7,0.0171358,-0.0605747,-0.0321669,0.0409038,0.0115886,-0.0886121,0.039
 5739,-0.0215075,0.0502092,-0.0168708,0.0026517,0.0176636,-0.14552,-0.0
 900025,0.027597,-0.101277,-0.0279421\Polar=61.136866,-0.3879246,67.328
 9384,-1.8655831,-0.111027,63.7998473\PG=C01 [X(C5H11N1)]\NImag=0\\0.60
 910046,0.00948723,0.45911682,-0.01566123,-0.00111417,0.55222497,-0.082
 55439,0.00353536,0.00259903,0.55052881,0.00292780,-0.15974646,-0.05467
 179,0.00277883,0.55525183,0.00152751,-0.05644628,-0.12134017,0.0568442
 6,-0.05743420,0.53374423,-0.00267106,0.00458408,0.00628977,-0.15783682
 ,-0.00210326,0.05710897,0.53074165,0.02494957,0.00369280,-0.02171540,-
 0.00955261,-0.08196363,0.00504081,-0.00216918,0.57231306,0.01885848,-0
 .00489926,-0.01782640,0.06189724,0.00054622,-0.12609805,0.01750567,0.0
 7519917,0.55002415,0.00230488,0.00025053,-0.00237821,0.00515447,-0.025
 27031,0.01799171,-0.07672990,0.00498050,0.01201295,0.36697083,0.000250
 85,-0.00158753,-0.00015964,-0.00263476,-0.00542410,0.00931543,0.043659
 92,-0.18443934,0.06989714,-0.00941450,0.52155769,-0.00264080,-0.000175
 01,0.00287780,-0.00068661,0.02931826,-0.02093542,-0.00608893,0.0535398
 5,-0.14146721,-0.22330665,-0.01407141,0.55291171,0.00107765,-0.0049223
 9,0.00352787,-0.00030355,-0.00129119,0.00024463,-0.00239160,0.00925768
 ,-0.00389162,-0.07237364,-0.02954176,0.00056701,0.53089836,-0.02533410
 ,-0.00016326,0.02238958,-0.00113293,0.00154638,-0.00026298,-0.00449318
 ,-0.03980194,-0.01604098,0.00907615,-0.18841648,-0.05403985,-0.0031815
 7,0.57262991,0.01806211,0.00727419,-0.01778884,-0.00030799,-0.00088966
 ,0.00126361,-0.00588308,0.01521107,0.01399211,0.02067763,-0.06798614,-
 0.14186446,0.02670833,-0.07226825,0.54965551,-0.08295378,0.00618686,-0
 .00427455,0.00149565,0.00169336,-0.00151203,-0.00057755,0.00086760,-0.
 00041455,0.00152852,0.00349598,0.00299522,-0.15810144,-0.00021283,0.06
 150824,0.55134794,0.00679989,-0.15966088,0.05444277,0.00234902,-0.0306
 3048,0.01440534,0.00101998,0.00182138,0.00085077,0.02608169,-0.0016845
 8,-0.02910992,-0.00765704,-0.08172110,0.00730860,-0.00343174,0.5540973
 0,-0.00555665,0.05607494,-0.12100195,0.00031019,-0.01459332,0.01527877
 ,0.00021599,0.00028727,0.00126557,0.01909945,-0.00693218,-0.02106077,0
 .05729570,0.00226687,-0.12610156,0.04917997,0.06415650,0.53414533,-0.2
 1877723,-0.01097639,0.12703099,-0.00024003,-0.00035918,-0.00127570,0.0
 0090699,0.00077378,0.00005597,-0.00002814,-0.00004002,-0.00009500,0.00
 077103,0.00009831,-0.00029613,0.00274528,0.00043334,-0.00342578,0.2337
 0322,-0.01097432,-0.04802918,0.00812798,0.02406536,0.00224806,-0.01723
 972,-0.00097237,-0.00613130,-0.00281517,-0.00003944,0.00060916,-0.0000
 0614,0.00184903,-0.00601826,0.00278681,-0.02404530,-0.00078646,0.01697
 989,0.01154294,0.05424751,0.12606384,0.00806758,-0.14404450,0.01520240
 ,0.00091817,-0.01178733,-0.00141829,-0.00420002,-0.00110622,-0.0003561
 8,-0.00002261,0.00061589,-0.00192733,0.00397672,-0.00108756,0.01512528
 ,0.00102324,-0.01173545,-0.13891064,-0.00888132,0.15577975,-0.21934564
 ,-0.01071176,-0.11834505,0.00081749,-0.00048154,0.00133256,0.00071746,
 0.00024409,0.00060852,-0.00012198,0.00000990,-0.00025900,0.00059161,-0
 .00028833,0.00070866,-0.00234452,0.00059419,-0.00089458,-0.02118784,-0
 .00127013,-0.01549850,0.23675599,-0.01071128,-0.04673688,-0.00730421,-
 0.02442874,-0.00320943,-0.01769619,-0.00129315,0.00093555,0.00085976,0
 .00000827,-0.00027409,-0.00001692,0.00125448,0.00106994,-0.00077516,0.
 02458662,-0.00010643,0.01775671,-0.00131735,-0.00068729,-0.00099448,0.
 01119088,0.05622131,-0.11801516,-0.00728660,-0.13451448,-0.01574628,-0
 .00159868,-0.01167154,-0.00185063,0.00086752,0.00002141,0.00075441,0.0
 0004683,0.00027831,-0.00172585,-0.00109044,0.00001625,-0.01574675,-0.0
 0034506,-0.01162217,0.01612155,0.00099294,0.01257664,0.13213105,0.0081
 6726,0.14588173,0.00279552,0.00061051,0.00154107,-0.23764031,-0.024387
 70,-0.11542395,-0.02561539,-0.00163270,-0.01356967,0.00298672,0.000229
 66,-0.00107433,-0.00005537,-0.00008887,0.00010017,0.00005001,-0.000097
 32,0.00020034,0.00061999,-0.00046432,-0.00017516,0.00114529,0.00088382
 ,0.00053940,0.26023765,-0.02408572,-0.00385026,-0.01504462,-0.02352540
 ,-0.05318316,-0.01270081,-0.00111752,-0.00069876,-0.00050991,-0.000726
 07,0.00041380,-0.00036431,-0.00012087,-0.00053286,-0.00026716,-0.00121
 247,0.00135705,-0.00057566,0.00033387,0.00113059,0.00061852,0.00020520
 ,-0.00451813,-0.00337934,0.02521107,0.05538988,-0.01714043,-0.00272323
 ,-0.01181507,-0.11762706,-0.01297350,-0.11853189,0.02123469,0.00285781
 ,0.01055172,-0.00061291,-0.00103329,0.00124121,0.00017833,0.00004481,0
 .00002720,0.00023988,0.00119276,0.00055703,0.00014431,0.00058907,0.000
 14852,0.00070862,-0.00387513,-0.00145733,0.12466459,0.01846144,0.12938
 795,-0.00110081,0.00054557,-0.00169902,-0.05536562,0.02856249,-0.02061
 179,0.00501953,-0.02227350,0.01350736,-0.00410432,0.00041008,0.0040156
 5,-0.00011005,0.00053868,0.00031547,0.00056609,0.00063292,0.00055136,-
 0.00020150,0.00019225,-0.00027237,0.00028772,-0.00026242,0.00039360,-0
 .00245918,0.02335075,-0.01522870,0.05535893,0.00331474,-0.02159542,0.0
 1627943,0.02697178,-0.22185040,0.12316564,0.00090141,-0.00159817,0.000
 40666,-0.00074988,0.00142902,0.00019572,0.00062816,0.00053506,-0.00044
 697,0.00007325,-0.00329831,-0.00561592,0.00042622,0.00088756,0.0001027
 6,-0.00061950,0.00075559,0.00016483,0.00011360,0.00368666,-0.00265510,
 -0.03031740,0.24199203,0.00235988,-0.01800040,0.01302941,-0.01913252,0
 .12286836,-0.13417361,-0.00711303,0.01684054,-0.01094424,0.00498420,0.
 00029546,-0.00390847,0.00019659,-0.00082153,-0.00066029,0.00009697,-0.
 00325702,-0.00265036,0.00009699,0.00097089,0.00071361,-0.00012985,0.00
 074766,0.00082315,-0.00111394,0.01283318,-0.00940909,0.01967301,-0.132
 74431,0.14564834,-0.00410935,-0.00179289,0.00276952,-0.00056804,0.0216
 9709,0.01627764,-0.04985747,0.00163248,-0.00038244,-0.00057984,0.00460
 077,0.00291414,0.00037475,-0.00036652,-0.00056405,0.00011583,-0.000377
 59,0.00005386,0.00000818,0.00125086,0.00097731,0.00019593,0.00009067,0
 .00030130,0.00084232,0.00043346,-0.00068520,0.00088944,-0.00036531,-0.
 00070834,0.05104894,-0.00071777,0.00081872,0.00075134,0.00032351,0.004
 67037,0.00252226,0.00330748,-0.21150882,-0.12706010,0.00249045,-0.0283
 0422,-0.01623408,0.00024300,-0.00288585,0.00587196,-0.00038285,0.00019
 556,0.00033733,-0.00020150,0.00024537,0.00019978,-0.00003714,-0.000067
 20,-0.00002381,0.00038388,0.00004241,-0.00014772,0.00044692,0.00034727
 ,-0.00032917,-0.00453325,0.23775014,0.00448909,0.00187519,-0.00213565,
 -0.00128604,-0.01674917,-0.01273523,0.00171259,-0.13541467,-0.15448452
 ,-0.00180751,0.02121887,0.01382167,-0.00017583,0.00309307,-0.00212143,
 -0.00002042,0.00057757,-0.00013412,0.00036302,-0.00147865,-0.00065345,
 -0.00003476,0.00046007,0.00037608,-0.00014459,0.00027055,0.00107076,-0
 .00054931,0.00022066,0.00004861,-0.00314753,0.13728184,0.16459951,0.00
 074672,-0.00058322,-0.00180867,-0.02461981,-0.00276012,-0.01287224,-0.
 22409329,-0.01293711,-0.09625846,-0.00062677,0.00714960,-0.00775908,0.
 00115708,-0.00084478,0.00054235,0.00014064,0.00022402,0.00008939,0.000
 54919,-0.00023653,0.00028104,0.00035697,0.00095972,0.00099782,-0.00336
 265,-0.00014463,0.00396429,0.00050915,-0.00043071,0.00010500,0.0008185
 2,-0.00084874,0.00026968,0.24780045,0.00080544,-0.00003303,0.00035472,
 -0.00313480,0.00026628,-0.00243670,-0.01119409,-0.05344603,-0.01047685
 ,0.02708131,-0.01057730,0.02149361,0.00333554,0.00469065,0.00482083,-0
 .00015549,-0.00035492,-0.00036883,-0.00003485,0.00000796,0.00004049,0.
 00022436,0.00023086,0.00008935,-0.00061732,0.00086571,0.00095875,-0.00
 004775,0.00002690,-0.00015552,-0.02232316,-0.00021292,-0.01184089,0.00
 828277,0.05739610,0.00026278,0.00085182,0.00137736,0.01970328,0.000537
 16,0.00996425,-0.09815763,-0.01153175,-0.10621161,-0.01980978,0.012993
 36,-0.01631387,0.00151969,-0.00319120,-0.00034162,0.00030988,0.0001974
 7,-0.00008495,-0.00023737,0.00018713,0.00010187,-0.00030764,0.00010752
 ,-0.00017834,0.00419015,-0.00006920,-0.00235990,-0.00105408,-0.0000426
 8,0.00081586,-0.01806702,-0.00161527,-0.00943787,0.11127553,0.00012606
 ,0.12116690,0.00023661,0.00005356,-0.00069033,0.00046663,-0.00097379,0
 .00026027,0.00060142,0.00510461,-0.01157006,-0.22653561,-0.01072860,0.
 23269293,-0.00201292,-0.00526000,-0.00850862,0.00053614,0.00180368,0.0
 0069849,-0.00002272,-0.00001265,-0.00001296,0.00005803,-0.00000238,0.0
 0002310,0.00038472,0.00012150,-0.00019225,0.00017315,0.00014889,0.0005
 9134,0.00018569,-0.00068121,0.00023752,0.00090530,0.00029661,-0.000512
 24,0.22355434,0.00005353,-0.00059906,-0.00004533,0.00235922,-0.0060581
 1,0.00347870,-0.02603529,-0.00059067,0.02388115,-0.01065782,-0.0619060
 7,0.01486734,0.02580448,0.00210422,-0.02509598,-0.00152257,-0.00610558
 ,-0.00343439,-0.00001273,0.00017844,-0.00000080,-0.00000242,0.00009511
 ,0.00000179,0.00026383,0.00004328,-0.00036184,-0.00148583,-0.00011355,
 0.00165710,-0.00054634,0.00017610,-0.00056843,0.00058068,0.00037579,0.
 00003053,0.00989168,0.07174247,-0.00047772,-0.00003183,0.00045831,-0.0
 0223449,0.00336465,-0.00068852,0.01486031,0.00192369,-0.01459069,0.185
 74415,0.01191389,-0.22091046,0.01506067,0.00000599,-0.01466718,-0.0018
 0150,-0.00363425,-0.00070929,0.00003201,0.00000201,0.00017065,0.000059
 56,0.00000407,-0.00010596,0.00006512,0.00004848,0.00009344,0.00097651,
 -0.00021104,-0.00022089,-0.00017115,-0.00041468,0.00094660,0.00021573,
 -0.00081876,0.00004742,-0.21323597,-0.01367149,0.24930923,-0.00434246,
 0.00113273,0.00284486,0.00002241,0.00035517,0.00009695,0.00030848,0.00
 076888,0.00017658,-0.00013361,-0.00105315,0.00085965,-0.05177964,0.018
 57352,-0.01622787,0.00224837,-0.02204767,0.01639585,0.00014249,-0.0012
 6678,0.00099098,0.00019858,-0.00005772,0.00029553,-0.00000444,-0.00002
 057,-0.00006095,0.00001400,-0.00001634,-0.00006448,0.00040750,0.000226
 16,0.00002283,0.00028854,-0.00054134,0.00038766,0.00003307,0.00052922,
 -0.00021982,0.05285195,0.00005153,0.00105863,-0.00038847,0.00036048,0.
 00029153,-0.00032656,0.00015904,-0.00279107,-0.00589887,0.00106300,-0.
 02873523,0.01634049,0.01689694,-0.21038426,0.12584393,-0.00061807,0.00
 180394,-0.00042072,0.00018796,0.00010689,-0.00007366,0.00007062,-0.000
 06843,0.00005996,-0.00007232,0.00001170,0.00000809,-0.00006516,0.00004
 813,0.00012905,0.00001954,-0.00154299,0.00100209,0.00015903,0.00014514
 ,0.00003896,0.00066241,0.00032543,0.00038767,-0.01884393,0.23678377,0.
 00468900,-0.00128902,-0.00214129,0.00005307,-0.00057401,-0.00013694,0.
 00021281,-0.00309264,-0.00214757,0.00086723,-0.02140697,0.01380332,-0.
 01519758,0.13439642,-0.15368553,-0.00337576,0.01650170,-0.01268844,0.0
 0017549,0.00151507,-0.00064957,0.00002325,-0.00046236,0.00037499,-0.00
 000178,0.00007881,0.00005118,-0.00012776,0.00008389,0.00009038,0.00014
 810,-0.00099755,0.00054082,0.00020668,-0.00020558,0.00015701,0.0001663
 9,0.00059109,0.00094949,0.01400300,-0.13637769,0.16376630,0.00076278,0
 .00068960,-0.00174897,0.00014141,-0.00016134,0.00004222,0.00152189,0.0
 0044355,0.00114154,0.00346213,-0.00536471,-0.00502755,-0.22444107,-0.0
 0833601,-0.09682386,-0.02496703,-0.00038314,-0.01306994,0.00050702,0.0
 0029887,0.00028460,0.00049797,-0.00092718,0.00100351,-0.00000573,0.000
 31078,-0.00004145,-0.00000937,-0.00012908,-0.00001065,0.00023895,-0.00
 014777,0.00017903,-0.00060485,-0.00176265,0.00059455,0.00100587,-0.000
 50164,0.00010943,-0.00207664,0.00061755,-0.00121372,0.24691457,-0.0007
 0302,-0.00004446,-0.00058579,0.00021701,-0.00035639,0.00037660,-0.0037
 4041,0.00433025,-0.00470181,-0.02525760,-0.01455589,-0.02228686,-0.010
 06615,-0.05312044,-0.00148718,-0.00011157,0.00059747,0.00078057,0.0000
 9849,0.00005082,-0.00000521,-0.00019100,0.00008614,0.00003726,0.000274
 54,0.00001208,-0.00004155,-0.00006004,0.00002555,0.00019551,0.00055197
 ,0.00019435,0.00022974,0.00161194,0.00063045,0.00150337,-0.00021545,0.
 00027188,0.00083929,0.02214493,0.00264657,0.01181583,0.01527489,0.0582
 4472,0.00036773,-0.00081669,0.00137277,0.00033211,-0.00015839,-0.00008
 425,0.00109773,0.00336719,-0.00034922,-0.01810951,-0.01536225,-0.01642
 563,-0.09884903,-0.00068074,-0.10619217,0.01962188,0.00190612,0.009966
 98,-0.00021173,-0.00021561,0.00010126,-0.00028874,-0.00014464,-0.00018
 388,-0.00001722,0.00008989,-0.00021197,-0.00009472,0.00002039,0.000158
 01,0.00039105,0.00000990,0.00015757,0.00078388,-0.00142154,0.00135228,
 -0.00050517,-0.00009443,0.00004842,-0.01805978,-0.00062104,-0.00940193
 ,0.11044316,0.01361009,0.12123598,-0.00022771,-0.00015074,-0.00035743,
 -0.00009143,-0.00008498,0.00012585,-0.00008930,0.00014393,0.00006680,0
 .00288501,0.00008543,-0.00111149,-0.02556450,-0.00146473,-0.01352826,-
 0.24072726,0.00106909,-0.11608398,0.00061147,0.00039931,-0.00009576,0.
 00119185,-0.00016329,0.00011139,-0.00002274,0.00054018,0.00015158,0.00
 014647,0.00010678,0.00013250,-0.00001571,0.00006878,0.00000833,0.00006
 722,-0.00026758,-0.00000660,0.00042736,-0.00021537,0.00007014,0.000930
 27,-0.00027181,-0.00011015,-0.00338944,0.00006769,0.00414845,0.2633190
 0,0.02459677,-0.00087795,0.01514923,0.00102884,0.00149825,0.00060004,0
 .00017659,-0.00049986,0.00027580,0.00104084,0.00051220,0.00022496,-0.0
 0208851,-0.00074034,-0.00122572,0.00021616,-0.05011283,-0.00164561,-0.
 00040031,0.00114327,-0.00063371,0.00051500,-0.00458680,0.00341058,-0.0
 0048706,-0.00044345,-0.00041116,-0.00046341,0.00023108,-0.00007238,0.0
 0001728,0.00002327,-0.00007850,-0.00030367,-0.00006078,-0.00009081,-0.
 00007230,-0.00000024,-0.00004021,-0.00031882,-0.00004591,-0.00029036,-
 0.00040449,0.00089356,0.00060322,0.00064784,0.05235507,-0.01727536,0.0
 0058889,-0.01176675,0.00039041,-0.00115119,0.00055546,0.00018324,-0.00
 002383,0.00002764,-0.00073452,0.00094680,0.00124529,0.02142278,-0.0002
 1093,0.01054799,-0.11830960,-0.00164964,-0.11850711,0.00021583,-0.0005
 6385,0.00014524,0.00021930,0.00392357,-0.00143503,0.00009776,0.0004209
 6,0.00063997,0.00031264,-0.00007042,0.00001570,-0.00005943,-0.00001571
 ,0.00005088,-0.00004735,0.00003651,-0.00021217,-0.00023623,0.00033455,
 0.00009444,-0.00069829,0.00005791,0.00106985,0.00405153,-0.00044503,-0
 .00236019,0.12597951,-0.00293632,0.12933251,-0.00094218,0.00206137,0.0
 0036034,0.00059312,-0.00014135,-0.00015687,0.00004497,-0.00060158,0.00
 025569,-0.00405876,-0.00111467,0.00400484,0.00226329,0.02271720,0.0135
 1689,-0.05110290,-0.00701333,-0.00505967,-0.00010738,-0.00031676,-0.00
 025829,0.00018508,0.00018905,0.00041202,0.00010358,0.00044641,0.000302
 67,0.00038636,-0.00005662,0.00003633,0.00000436,0.00006008,-0.00011609
 ,-0.00003241,0.00005299,-0.00009118,0.00000292,0.00149736,0.00094702,0
 .00089113,-0.00037680,-0.00051827,0.00044155,0.00010379,-0.00105009,0.
 00054946,-0.02370074,-0.01551222,0.05077780,-0.00071114,-0.02176259,-0
 .01646563,0.00041984,-0.00335055,0.00563865,-0.00069003,0.00037655,0.0
 0048629,0.00004290,0.00138297,0.00032426,-0.00039982,0.00120863,0.0013
 2485,-0.00542694,-0.22541112,-0.12505347,-0.00055259,0.00079687,-0.000
 13544,0.00054757,0.00086019,-0.00011437,-0.00012329,0.00027348,0.00010
 979,0.00029584,-0.00150900,-0.00115742,0.00001094,0.00005844,-0.000099
 34,0.00012175,0.00004915,-0.00003249,-0.00013656,0.00006058,0.00033252
 ,0.00043570,0.00034616,-0.00028664,0.00048277,0.00009334,-0.00009147,-
 0.00051052,0.00071146,0.00075772,0.00619360,0.24581546,0.00008692,0.01
 804989,0.01303447,-0.00031100,0.00324109,-0.00262338,0.00008981,0.0008
 4340,-0.00065686,0.00498352,0.00034671,-0.00390891,-0.00495435,-0.0175
 6657,-0.01099202,-0.00362215,-0.12456694,-0.13491752,0.00021619,-0.000
 95132,0.00071064,-0.00003340,-0.00075753,0.00082016,0.00012204,0.00008
 919,0.00001628,-0.00010786,0.00114647,0.00062388,-0.00004777,-0.000136
 33,0.00008978,0.00001440,-0.00019566,0.00015737,0.00079378,-0.00156957
 ,-0.00022501,-0.00074269,0.00023888,0.00004794,0.00008658,0.00016515,0
 .00081597,0.00049913,-0.01283905,-0.00944372,0.00292686,0.13446218,0.1
 4645092\\0.00004023,0.00000219,-0.00001028,0.00000169,0.00000613,-0.00
 004720,-0.00005649,0.00007811,-0.00001719,0.00005422,0.00000232,0.0000
 8592,-0.00004901,-0.00008444,-0.00001838,0.00000325,-0.00000345,-0.000
 04553,-0.00000919,-0.00000086,-0.00002034,-0.00000311,0.00000010,0.000
 01135,0.00000380,-0.00001393,0.00000551,0.00001243,-0.00000428,0.00001
 076,-0.00000148,-0.00002415,0.00000627,0.00001078,-0.00001971,0.000004
 25,-0.00002690,-0.00000216,0.00000711,-0.00000263,0.00002366,0.0000061
 0,0.00000954,0.00002073,0.00000423,0.00000183,0.00001409,0.00000579,0.
 00001104,0.00000562,0.00001163\\\@


 THE SECRET OF SUCCESS IN LIFE IS TO EAT WHAT YOU LIKE, AND LET THE FOOD
 FIGHT IT OUT INSIDE YOU. -- FROM A FORTUNE COOKIE
 Job cpu time:       0 days  0 hours  4 minutes 29.0 seconds.
 File lengths (MBytes):  RWF=    133 Int=      0 D2E=      0 Chk=      3 Scr=      2
 Normal termination of Gaussian 09 at Wed Mar 19 11:42:48 2025.
