 Entering Gaussian System, Link 0=g09
 Initial command:
 /apps/z_install_tree/linux-rocky8-ivybridge/gcc-12.2.0/gaussian-09-D.01-wczn3gur5lpur3omlkzwa2l5ecyxp5ef/g09/l1.exe "/srv/scratch/z5358697/gauss/Gau-1666056.inp" -scrdir="/srv/scratch/z5358697/gauss/"
 Entering Link 1 = /apps/z_install_tree/linux-rocky8-ivybridge/gcc-12.2.0/gaussian-09-D.01-wczn3gur5lpur3omlkzwa2l5ecyxp5ef/g09/l1.exe PID=   1666057.
  
 Copyright (c) 1988,1990,1992,1993,1995,1998,2003,2009,2013,
            Gaussian, Inc.  All Rights Reserved.
  
 This is part of the Gaussian(R) 09 program.  It is based on
 the Gaussian(R) 03 system (copyright 2003, Gaussian, Inc.),
 the Gaussian(R) 98 system (copyright 1998, Gaussian, Inc.),
 the Gaussian(R) 94 system (copyright 1995, Gaussian, Inc.),
 the Gaussian 92(TM) system (copyright 1992, Gaussian, Inc.),
 the Gaussian 90(TM) system (copyright 1990, Gaussian, Inc.),
 the Gaussian 88(TM) system (copyright 1988, Gaussian, Inc.),
 the Gaussian 86(TM) system (copyright 1986, Carnegie Mellon
 University), and the Gaussian 82(TM) system (copyright 1983,
 Carnegie Mellon University). Gaussian is a federally registered
 trademark of Gaussian, Inc.
  
 This software contains proprietary and confidential information,
 including trade secrets, belonging to Gaussian, Inc.
  
 This software is provided under written license and may be
 used, copied, transmitted, or stored only in accord with that
 written license.
  
 The following legend is applicable only to US Government
 contracts under FAR:
  
                    RESTRICTED RIGHTS LEGEND
  
 Use, reproduction and disclosure by the US Government is
 subject to restrictions as set forth in subparagraphs (a)
 and (c) of the Commercial Computer Software - Restricted
 Rights clause in FAR 52.227-19.
  
 Gaussian, Inc.
 340 Quinnipiac St., Bldg. 40, Wallingford CT 06492
  
  
 ---------------------------------------------------------------
 Warning -- This program may not be used in any manner that
 competes with the business of Gaussian, Inc. or will provide
 assistance to any competitor of Gaussian, Inc.  The licensee
 of this program is prohibited from giving any competitor of
 Gaussian, Inc. access to this program.  By using this program,
 the user acknowledges that Gaussian, Inc. is engaged in the
 business of creating and licensing software in the field of
 computational chemistry and represents and warrants to the
 licensee that it is not a competitor of Gaussian, Inc. and that
 it will not use this program in any manner prohibited above.
 ---------------------------------------------------------------
  

 Cite this work as:
 Gaussian 09, Revision D.01,
 M. J. Frisch, G. W. Trucks, H. B. Schlegel, G. E. Scuseria, 
 M. A. Robb, J. R. Cheeseman, G. Scalmani, V. Barone, B. Mennucci, 
 G. A. Petersson, H. Nakatsuji, M. Caricato, X. Li, H. P. Hratchian, 
 A. F. Izmaylov, J. Bloino, G. Zheng, J. L. Sonnenberg, M. Hada, 
 M. Ehara, K. Toyota, R. Fukuda, J. Hasegawa, M. Ishida, T. Nakajima, 
 Y. Honda, O. Kitao, H. Nakai, T. Vreven, J. A. Montgomery, Jr., 
 J. E. Peralta, F. Ogliaro, M. Bearpark, J. J. Heyd, E. Brothers, 
 K. N. Kudin, V. N. Staroverov, T. Keith, R. Kobayashi, J. Normand, 
 K. Raghavachari, A. Rendell, J. C. Burant, S. S. Iyengar, J. Tomasi, 
 M. Cossi, N. Rega, J. M. Millam, M. Klene, J. E. Knox, J. B. Cross, 
 V. Bakken, C. Adamo, J. Jaramillo, R. Gomperts, R. E. Stratmann, 
 O. Yazyev, A. J. Austin, R. Cammi, C. Pomelli, J. W. Ochterski, 
 R. L. Martin, K. Morokuma, V. G. Zakrzewski, G. A. Voth, 
 P. Salvador, J. J. Dannenberg, S. Dapprich, A. D. Daniels, 
 O. Farkas, J. B. Foresman, J. V. Ortiz, J. Cioslowski, 
 and D. J. Fox, Gaussian, Inc., Wallingford CT, 2013.
 
 ******************************************
 Gaussian 09:  ES64L-G09RevD.01 24-Apr-2013
                13-Mar-2025 
 ******************************************
 ---------------------------------
 #m062X/6-31+G(d) OPT Freq=noraman
 ---------------------------------
 1/14=-1,18=20,19=15,26=3,38=1/1,3;
 2/9=110,12=2,17=6,18=5,40=1/2;
 3/5=1,6=6,7=11,11=2,16=1,25=1,30=1,71=1,74=-55/1,2,3;
 4//1;
 5/5=2,38=5/2;
 6/7=2,8=2,9=2,10=2,28=1/1;
 7//1,2,3,16;
 1/14=-1,18=20,19=15,26=3/3(2);
 2/9=110/2;
 99//99;
 2/9=110/2;
 3/5=1,6=6,7=11,11=2,16=1,25=1,30=1,71=1,74=-55/1,2,3;
 4/5=5,16=3,69=1/1;
 5/5=2,38=5/2;
 7//1,2,3,16;
 1/14=-1,18=20,19=15,26=3/3(-5);
 2/9=110/2;
 6/7=2,8=2,9=2,10=2,19=2,28=1/1;
 99/9=1/99;
 --------------------
 carbon tetrachloride
 --------------------
 Symbolic Z-matrix:
 Charge =  0 Multiplicity = 1
 C                    -0.0003   -0.0003    0.0001 
 Cl                    1.6167    0.7005    0.2651 
 Cl                    0.1223   -1.7773   -0.0365 
 Cl                   -0.6529    0.5829   -1.552 
 Cl                   -1.0857    0.4943    1.3234 
 

 GradGradGradGradGradGradGradGradGradGradGradGradGradGradGradGradGradGrad
 Berny optimization.
 Initialization pass.
                           ----------------------------
                           !    Initial Parameters    !
                           ! (Angstroms and Degrees)  !
 --------------------------                            --------------------------
 ! Name  Definition              Value          Derivative Info.                !
 --------------------------------------------------------------------------------
 ! R1    R(1,2)                  1.7821         estimate D2E/DX2                !
 ! R2    R(1,3)                  1.7816         estimate D2E/DX2                !
 ! R3    R(1,4)                  1.7819         estimate D2E/DX2                !
 ! R4    R(1,5)                  1.7815         estimate D2E/DX2                !
 ! A1    A(2,1,3)              109.441          estimate D2E/DX2                !
 ! A2    A(2,1,4)              109.4587         estimate D2E/DX2                !
 ! A3    A(2,1,5)              109.4614         estimate D2E/DX2                !
 ! A4    A(3,1,4)              109.4973         estimate D2E/DX2                !
 ! A5    A(3,1,5)              109.5175         estimate D2E/DX2                !
 ! A6    A(4,1,5)              109.4514         estimate D2E/DX2                !
 ! D1    D(2,1,4,3)            119.9713         estimate D2E/DX2                !
 ! D2    D(2,1,5,3)           -119.9853         estimate D2E/DX2                !
 ! D3    D(2,1,5,4)            119.9665         estimate D2E/DX2                !
 ! D4    D(3,1,5,4)           -120.0481         estimate D2E/DX2                !
 --------------------------------------------------------------------------------
 Trust Radius=3.00D-01 FncErr=1.00D-07 GrdErr=1.00D-06
 Number of steps in this run=     24 maximum allowed number of steps=    100.
 GradGradGradGradGradGradGradGradGradGradGradGradGradGradGradGradGradGrad

                          Input orientation:                          
 ---------------------------------------------------------------------
 Center     Atomic      Atomic             Coordinates (Angstroms)
 Number     Number       Type             X           Y           Z
 ---------------------------------------------------------------------
      1          6           0       -0.000300   -0.000300    0.000100
      2         17           0        1.616700    0.700500    0.265100
      3         17           0        0.122300   -1.777300   -0.036500
      4         17           0       -0.652900    0.582900   -1.552000
      5         17           0       -1.085700    0.494300    1.323400
 ---------------------------------------------------------------------
                    Distance matrix (angstroms):
                    1          2          3          4          5
     1  C    0.000000
     2  Cl   1.782143   0.000000
     3  Cl   1.781600   2.909242   0.000000
     4  Cl   1.781860   2.909771   2.910021   0.000000
     5  Cl   1.781529   2.909550   2.910113   2.909139   0.000000
 Stoichiometry    CCl4
 Framework group  C1[X(CCl4)]
 Deg. of freedom     9
 Full point group                 C1      NOp   1
 Largest Abelian subgroup         C1      NOp   1
 Largest concise Abelian subgroup C1      NOp   1
                         Standard orientation:                         
 ---------------------------------------------------------------------
 Center     Atomic      Atomic             Coordinates (Angstroms)
 Number     Number       Type             X           Y           Z
 ---------------------------------------------------------------------
      1          6           0       -0.000003   -0.000275    0.000451
      2         17           0        0.706646    1.224043   -1.084781
      3         17           0        1.307114   -0.916249    0.791992
      4         17           0       -1.018775   -1.114825   -0.945544
      5         17           0       -0.994984    0.807127    1.238174
 ---------------------------------------------------------------------
 Rotational constants (GHZ):      1.7076569      1.7069092      1.7067170
 Standard basis: 6-31+G(d) (6D, 7F)
 There are   111 symmetry adapted cartesian basis functions of A   symmetry.
 There are   111 symmetry adapted basis functions of A   symmetry.
   111 basis functions,   256 primitive gaussians,   111 cartesian basis functions
    37 alpha electrons       37 beta electrons
       nuclear repulsion energy       436.5364261456 Hartrees.
 NAtoms=    5 NActive=    5 NUniq=    5 SFac= 1.00D+00 NAtFMM=   60 NAOKFM=F Big=F
 Integral buffers will be    131072 words long.
 Raffenetti 2 integral format.
 Two-electron integral symmetry is turned on.
 One-electron integrals computed using PRISM.
 NBasis=   111 RedAO= T EigKep=  5.25D-05  NBF=   111
 NBsUse=   111 1.00D-06 EigRej= -1.00D+00 NBFU=   111
 ExpMin= 4.38D-02 ExpMax= 2.52D+04 ExpMxC= 3.78D+03 IAcc=2 IRadAn=         4 AccDes= 0.00D+00
 Harris functional with IExCor= 1009 and IRadAn=       4 diagonalized for initial guess.
 HarFok:  IExCor= 1009 AccDes= 0.00D+00 IRadAn=         4 IDoV= 1 UseB2=F ITyADJ=14
 ICtDFT=  3500011 ScaDFX=  1.000000  1.000000  1.000000  1.000000
 FoFCou: FMM=F IPFlag=           0 FMFlag=      100000 FMFlg1=           0
         NFxFlg=           0 DoJE=T BraDBF=F KetDBF=T FulRan=T
         wScrn=  0.000000 ICntrl=     500 IOpCl=  0 I1Cent=   200000004 NGrid=           0
         NMat0=    1 NMatS0=      1 NMatT0=    0 NMatD0=    1 NMtDS0=    0 NMtDT0=    0
 Petite list used in FoFCou.
 Keep R1 ints in memory in canonical form, NReq=20311393.
 Requested convergence on RMS density matrix=1.00D-08 within 128 cycles.
 Requested convergence on MAX density matrix=1.00D-06.
 Requested convergence on             energy=1.00D-06.
 No special actions if energy rises.
 SCF Done:  E(RM062X) =  -1878.71814560     A.U. after   10 cycles
            NFock= 10  Conv=0.68D-08     -V/T= 2.0027

 **********************************************************************

            Population analysis using the SCF density.

 **********************************************************************

 Orbital symmetries:
       Occupied  (A) (A) (A) (A) (A) (A) (A) (A) (A) (A) (A) (A)
                 (A) (A) (A) (A) (A) (A) (A) (A) (A) (A) (A) (A)
                 (A) (A) (A) (A) (A) (A) (A) (A) (A) (A) (A) (A)
                 (A)
       Virtual   (A) (A) (A) (A) (A) (A) (A) (A) (A) (A) (A) (A)
                 (A) (A) (A) (A) (A) (A) (A) (A) (A) (A) (A) (A)
                 (A) (A) (A) (A) (A) (A) (A) (A) (A) (A) (A) (A)
                 (A) (A) (A) (A) (A) (A) (A) (A) (A) (A) (A) (A)
                 (A) (A) (A) (A) (A) (A) (A) (A) (A) (A) (A) (A)
                 (A) (A) (A) (A) (A) (A) (A) (A) (A) (A) (A) (A)
                 (A) (A)
 The electronic state is 1-A.
 Alpha  occ. eigenvalues -- -102.71035-102.71033-102.71027-102.71024 -10.80222
 Alpha  occ. eigenvalues --   -9.85765  -9.85762  -9.85757  -9.85753  -7.58227
 Alpha  occ. eigenvalues --   -7.58224  -7.58219  -7.58215  -7.57426  -7.57425
 Alpha  occ. eigenvalues --   -7.57423  -7.57423  -7.57418  -7.57418  -7.57414
 Alpha  occ. eigenvalues --   -7.57414  -1.09380  -0.96001  -0.95993  -0.95984
 Alpha  occ. eigenvalues --   -0.71900  -0.57663  -0.57661  -0.57653  -0.45033
 Alpha  occ. eigenvalues --   -0.45027  -0.42092  -0.42086  -0.42079  -0.39026
 Alpha  occ. eigenvalues --   -0.39021  -0.39014
 Alpha virt. eigenvalues --   -0.03550   0.01356   0.01365   0.01375   0.02824
 Alpha virt. eigenvalues --    0.05400   0.05400   0.05400   0.09744   0.09746
 Alpha virt. eigenvalues --    0.10950   0.10955   0.10957   0.12358   0.13513
 Alpha virt. eigenvalues --    0.13515   0.13516   0.14288   0.14299   0.14302
 Alpha virt. eigenvalues --    0.17816   0.17823   0.17834   0.27450   0.54378
 Alpha virt. eigenvalues --    0.54386   0.54397   0.58120   0.58967   0.58970
 Alpha virt. eigenvalues --    0.58978   0.59478   0.59491   0.61386   0.63400
 Alpha virt. eigenvalues --    0.63408   0.63420   0.67018   0.67024   0.67035
 Alpha virt. eigenvalues --    0.74789   0.74790   0.74801   0.79665   0.79668
 Alpha virt. eigenvalues --    0.89598   0.89602   0.89603   0.91238   0.91240
 Alpha virt. eigenvalues --    0.91858   0.91866   0.91869   0.95068   0.95078
 Alpha virt. eigenvalues --    0.95089   1.06876   1.12901   1.12908   1.12924
 Alpha virt. eigenvalues --    1.28440   1.28461   1.28494   1.55740   1.75195
 Alpha virt. eigenvalues --    1.75202   2.10304   2.10321   2.10354   3.96758
 Alpha virt. eigenvalues --    4.38680   4.38696   4.38700   4.41584
          Condensed to atoms (all electrons):
               1          2          3          4          5
     1  C    5.521589   0.254551   0.255633   0.255588   0.256981
     2  Cl   0.254551  16.933425  -0.107773  -0.107947  -0.107701
     3  Cl   0.255633  -0.107773  16.931751  -0.108049  -0.108165
     4  Cl   0.255588  -0.107947  -0.108049  16.932705  -0.108180
     5  Cl   0.256981  -0.107701  -0.108165  -0.108180  16.930654
 Mulliken charges:
               1
     1  C   -0.544342
     2  Cl   0.135445
     3  Cl   0.136603
     4  Cl   0.135882
     5  Cl   0.136411
 Sum of Mulliken charges =   0.00000
 Mulliken charges with hydrogens summed into heavy atoms:
               1
     1  C   -0.544342
     2  Cl   0.135445
     3  Cl   0.136603
     4  Cl   0.135882
     5  Cl   0.136411
 Electronic spatial extent (au):  <R**2>=            894.7166
 Charge=              0.0000 electrons
 Dipole moment (field-independent basis, Debye):
    X=              0.0001    Y=             -0.0014    Z=              0.0032  Tot=              0.0035
 Quadrupole moment (field-independent basis, Debye-Ang):
   XX=            -55.4949   YY=            -55.4975   ZZ=            -55.5017
   XY=             -0.0035   XZ=              0.0010   YZ=              0.0026
 Traceless Quadrupole moment (field-independent basis, Debye-Ang):
   XX=              0.0031   YY=              0.0005   ZZ=             -0.0037
   XY=             -0.0035   XZ=              0.0010   YZ=              0.0026
 Octapole moment (field-independent basis, Debye-Ang**2):
  XXX=              0.7176  YYY=              0.2723  ZZZ=              0.3647  XYY=              0.3182
  XXY=             -1.7273  XXZ=              1.3924  XZZ=             -1.0354  YZZ=              1.4537
  YYZ=             -1.7441  XYZ=             -5.2089
 Hexadecapole moment (field-independent basis, Debye-Ang**3):
 XXXX=           -372.9421 YYYY=           -373.6181 ZZZZ=           -373.5371 XXXY=             -3.7762
 XXXZ=              3.5636 YYYX=              3.5844 YYYZ=             -1.9377 ZZZX=             -3.9087
 ZZZY=              1.4056 XXYY=           -117.0107 XXZZ=           -117.0391 YYZZ=           -116.0943
 XXYZ=              0.5570 YYXZ=              0.3489 ZZXY=              0.1542
 N-N= 4.365364261456D+02 E-N=-5.335272270422D+03  KE= 1.873575389629D+03
 Calling FoFJK, ICntrl=      2127 FMM=F ISym2X=0 I1Cent= 0 IOpClX= 0 NMat=1 NMatS=1 NMatT=0.
 ***** Axes restored to original set *****
 -------------------------------------------------------------------
 Center     Atomic                   Forces (Hartrees/Bohr)
 Number     Number              X              Y              Z
 -------------------------------------------------------------------
      1        6           0.000450699    0.000292160   -0.000032717
      2       17          -0.003621528   -0.001573760   -0.000523578
      3       17          -0.000295731    0.003816686   -0.000085597
      4       17           0.001250851   -0.001425009    0.003480161
      5       17           0.002215709   -0.001110076   -0.002838269
 -------------------------------------------------------------------
 Cartesian Forces:  Max     0.003816686 RMS     0.002011997

 GradGradGradGradGradGradGradGradGradGradGradGradGradGradGradGradGradGrad
 Berny optimization.
 FormGI is forming the generalized inverse of G from B-inverse, IUseBI=4.
 Internal  Forces:  Max     0.003982653 RMS     0.002079182
 Search for a local minimum.
 Step number   1 out of a maximum of   24
 All quantities printed in internal units (Hartrees-Bohrs-Radians)
 Mixed Optimization -- RFO/linear search
 Second derivative matrix not updated -- first step.
 The second derivative matrix:
                          R1        R2        R3        R4        A1
           R1           0.27575
           R2           0.00000   0.27621
           R3           0.00000   0.00000   0.27599
           R4           0.00000   0.00000   0.00000   0.27627
           A1           0.00000   0.00000   0.00000   0.00000   0.25000
           A2           0.00000   0.00000   0.00000   0.00000   0.00000
           A3           0.00000   0.00000   0.00000   0.00000   0.00000
           A4           0.00000   0.00000   0.00000   0.00000   0.00000
           A5           0.00000   0.00000   0.00000   0.00000   0.00000
           A6           0.00000   0.00000   0.00000   0.00000   0.00000
           D1           0.00000   0.00000   0.00000   0.00000   0.00000
           D2           0.00000   0.00000   0.00000   0.00000   0.00000
           D3           0.00000   0.00000   0.00000   0.00000   0.00000
           D4           0.00000   0.00000   0.00000   0.00000   0.00000
                          A2        A3        A4        A5        A6
           A2           0.25000
           A3           0.00000   0.25000
           A4           0.00000   0.00000   0.25000
           A5           0.00000   0.00000   0.00000   0.25000
           A6           0.00000   0.00000   0.00000   0.00000   0.25000
           D1           0.00000   0.00000   0.00000   0.00000   0.00000
           D2           0.00000   0.00000   0.00000   0.00000   0.00000
           D3           0.00000   0.00000   0.00000   0.00000   0.00000
           D4           0.00000   0.00000   0.00000   0.00000   0.00000
                          D1        D2        D3        D4
           D1           0.00230
           D2           0.00000   0.00230
           D3           0.00000   0.00000   0.00230
           D4           0.00000   0.00000   0.00000   0.00230
 ITU=  0
     Eigenvalues ---    0.07849   0.08846   0.13438   0.25000   0.25000
     Eigenvalues ---    0.27575   0.27599   0.27621   0.27627
 RFO step:  Lambda=-2.20107184D-04 EMin= 7.84943879D-02
 Linear search not attempted -- first point.
 Iteration  1 RMS(Cart)=  0.00760116 RMS(Int)=  0.00000471
 Iteration  2 RMS(Cart)=  0.00000478 RMS(Int)=  0.00000062
 Iteration  3 RMS(Cart)=  0.00000000 RMS(Int)=  0.00000062
 Variable       Old X    -DE/DX   Delta X   Delta X   Delta X     New X
                                 (Linear)    (Quad)   (Total)
    R1        3.36776  -0.00398   0.00000  -0.01443  -0.01443   3.35333
    R2        3.36674  -0.00383   0.00000  -0.01384  -0.01384   3.35290
    R3        3.36723  -0.00396   0.00000  -0.01432  -0.01432   3.35290
    R4        3.36660  -0.00377   0.00000  -0.01362  -0.01362   3.35298
    A1        1.91011   0.00000   0.00000   0.00045   0.00045   1.91056
    A2        1.91041   0.00021   0.00000   0.00162   0.00162   1.91204
    A3        1.91046   0.00003   0.00000   0.00060   0.00060   1.91106
    A4        1.91109  -0.00014   0.00000  -0.00164  -0.00164   1.90945
    A5        1.91144   0.00009   0.00000  -0.00008  -0.00008   1.91136
    A6        1.91029  -0.00018   0.00000  -0.00096  -0.00096   1.90933
    D1        2.09389   0.00004   0.00000   0.00054   0.00054   2.09444
    D2       -2.09414  -0.00007   0.00000  -0.00088  -0.00088  -2.09501
    D3        2.09381   0.00016   0.00000   0.00177   0.00177   2.09558
    D4       -2.09524   0.00023   0.00000   0.00264   0.00264  -2.09259
         Item               Value     Threshold  Converged?
 Maximum Force            0.003983     0.000450     NO 
 RMS     Force            0.002079     0.000300     NO 
 Maximum Displacement     0.014654     0.001800     NO 
 RMS     Displacement     0.007601     0.001200     NO 
 Predicted change in Energy=-1.101419D-04
 GradGradGradGradGradGradGradGradGradGradGradGradGradGradGradGradGradGrad

                          Input orientation:                          
 ---------------------------------------------------------------------
 Center     Atomic      Atomic             Coordinates (Angstroms)
 Number     Number       Type             X           Y           Z
 ---------------------------------------------------------------------
      1          6           0        0.000498    0.000206    0.000286
      2         17           0        1.610687    0.697554    0.264615
      3         17           0        0.121465   -1.769545   -0.037215
      4         17           0       -0.651013    0.579373   -1.545085
      5         17           0       -1.081536    0.492513    1.317500
 ---------------------------------------------------------------------
                    Distance matrix (angstroms):
                    1          2          3          4          5
     1  C    0.000000
     2  Cl   1.774507   0.000000
     3  Cl   1.774277   2.897493   0.000000
     4  Cl   1.774281   2.899011   2.896172   0.000000
     5  Cl   1.774321   2.898046   2.898166   2.896081   0.000000
 Stoichiometry    CCl4
 Framework group  C1[X(CCl4)]
 Deg. of freedom     9
 Full point group                 C1      NOp   1
 Largest Abelian subgroup         C1      NOp   1
 Largest concise Abelian subgroup C1      NOp   1
                         Standard orientation:                         
 ---------------------------------------------------------------------
 Center     Atomic      Atomic             Coordinates (Angstroms)
 Number     Number       Type             X           Y           Z
 ---------------------------------------------------------------------
      1          6           0        0.000612    0.000255   -0.000021
      2         17           0        1.617794    0.435938   -0.586344
      3         17           0        0.110749   -1.450756    1.015114
      4         17           0       -1.063826   -0.326253   -1.381483
      5         17           0       -0.664934    1.340981    0.952720
 ---------------------------------------------------------------------
 Rotational constants (GHZ):      1.7225929      1.7217755      1.7199360
 Standard basis: 6-31+G(d) (6D, 7F)
 There are   111 symmetry adapted cartesian basis functions of A   symmetry.
 There are   111 symmetry adapted basis functions of A   symmetry.
   111 basis functions,   256 primitive gaussians,   111 cartesian basis functions
    37 alpha electrons       37 beta electrons
       nuclear repulsion energy       438.3661240664 Hartrees.
 NAtoms=    5 NActive=    5 NUniq=    5 SFac= 1.00D+00 NAtFMM=   60 NAOKFM=F Big=F
 Integral buffers will be    131072 words long.
 Raffenetti 2 integral format.
 Two-electron integral symmetry is turned on.
 One-electron integrals computed using PRISM.
 NBasis=   111 RedAO= T EigKep=  5.03D-05  NBF=   111
 NBsUse=   111 1.00D-06 EigRej= -1.00D+00 NBFU=   111
 Initial guess from the checkpoint file:  "/srv/scratch/z5358697/gauss/Gau-1666057.chk"
 B after Tr=     0.000000    0.000000    0.000000
         Rot=    0.926842   -0.020153    0.182798    0.327328 Ang= -44.10 deg.
 Keep R1 ints in memory in canonical form, NReq=20311393.
 Requested convergence on RMS density matrix=1.00D-08 within 128 cycles.
 Requested convergence on MAX density matrix=1.00D-06.
 Requested convergence on             energy=1.00D-06.
 No special actions if energy rises.
 SCF Done:  E(RM062X) =  -1878.71827812     A.U. after    9 cycles
            NFock=  9  Conv=0.68D-08     -V/T= 2.0027
 Calling FoFJK, ICntrl=      2127 FMM=F ISym2X=0 I1Cent= 0 IOpClX= 0 NMat=1 NMatS=1 NMatT=0.
 ***** Axes restored to original set *****
 -------------------------------------------------------------------
 Center     Atomic                   Forces (Hartrees/Bohr)
 Number     Number              X              Y              Z
 -------------------------------------------------------------------
      1        6          -0.000228914   -0.000413386   -0.000115126
      2       17           0.000260992    0.000138944   -0.000135820
      3       17           0.000387501   -0.000252728    0.000117673
      4       17          -0.000113317    0.000385737   -0.000374297
      5       17          -0.000306262    0.000141434    0.000507570
 -------------------------------------------------------------------
 Cartesian Forces:  Max     0.000507570 RMS     0.000287918

 GradGradGradGradGradGradGradGradGradGradGradGradGradGradGradGradGradGrad
 Berny optimization.
 Using GEDIIS/GDIIS optimizer.
 FormGI is forming the generalized inverse of G from B-inverse, IUseBI=4.
 Internal  Forces:  Max     0.000602823 RMS     0.000284704
 Search for a local minimum.
 Step number   2 out of a maximum of   24
 All quantities printed in internal units (Hartrees-Bohrs-Radians)
 Mixed Optimization -- En-DIIS/RFO-DIIS
 Update second derivatives using D2CorX and points    1    2
 DE= -1.33D-04 DEPred=-1.10D-04 R= 1.20D+00
 TightC=F SS=  1.41D+00  RLast= 2.84D-02 DXNew= 5.0454D-01 8.5299D-02
 Trust test= 1.20D+00 RLast= 2.84D-02 DXMaxT set to 3.00D-01
 The second derivative matrix:
                          R1        R2        R3        R4        A1
           R1           0.27749
           R2           0.00194   0.27834
           R3           0.00561   0.00567   0.28563
           R4           0.00765   0.00762   0.01159   0.28967
           A1          -0.00112  -0.00109  -0.00128  -0.00132   0.25008
           A2           0.00012   0.00008  -0.00027  -0.00048   0.00010
           A3           0.00415   0.00399   0.00420   0.00404  -0.00014
           A4          -0.00020  -0.00016   0.00018   0.00040  -0.00010
           A5          -0.00128  -0.00123  -0.00132  -0.00128   0.00005
           A6          -0.00167  -0.00160  -0.00152  -0.00136   0.00001
           D1          -0.00386  -0.00372  -0.00404  -0.00397   0.00017
           D2           0.00354   0.00341   0.00370   0.00363  -0.00015
           D3          -0.00626  -0.00604  -0.00656  -0.00644   0.00027
           D4          -0.00980  -0.00945  -0.01026  -0.01008   0.00042
                          A2        A3        A4        A5        A6
           A2           0.24996
           A3          -0.00042   0.24993
           A4           0.00005   0.00042   0.24994
           A5           0.00013   0.00000  -0.00013   0.25001
           A6           0.00018   0.00022  -0.00019  -0.00005   0.24983
           D1           0.00038  -0.00008  -0.00038   0.00005  -0.00014
           D2          -0.00035   0.00007   0.00035  -0.00005   0.00013
           D3           0.00061  -0.00013  -0.00061   0.00008  -0.00023
           D4           0.00096  -0.00020  -0.00096   0.00013  -0.00035
                          D1        D2        D3        D4
           D1           0.00250
           D2          -0.00019   0.00247
           D3           0.00033  -0.00031   0.00284
           D4           0.00052  -0.00048   0.00085   0.00363
 ITU=  1  0
 Use linear search instead of GDIIS.
     Eigenvalues ---    0.07863   0.08948   0.13420   0.24889   0.25003
     Eigenvalues ---    0.27319   0.27599   0.27610   0.30900
 RFO step:  Lambda=-2.92645590D-06 EMin= 7.86278060D-02
 Quartic linear search produced a step of -0.05355.
 Iteration  1 RMS(Cart)=  0.00162748 RMS(Int)=  0.00000164
 Iteration  2 RMS(Cart)=  0.00000121 RMS(Int)=  0.00000082
 Iteration  3 RMS(Cart)=  0.00000000 RMS(Int)=  0.00000082
 Variable       Old X    -DE/DX   Delta X   Delta X   Delta X     New X
                                 (Linear)    (Quad)   (Total)
    R1        3.35333   0.00027   0.00077  -0.00082  -0.00005   3.35328
    R2        3.35290   0.00028   0.00074  -0.00074   0.00001   3.35290
    R3        3.35290   0.00049   0.00077  -0.00005   0.00072   3.35362
    R4        3.35298   0.00060   0.00073   0.00041   0.00114   3.35412
    A1        1.91056  -0.00018  -0.00002  -0.00172  -0.00174   1.90882
    A2        1.91204  -0.00021  -0.00009  -0.00152  -0.00161   1.91043
    A3        1.91106   0.00011  -0.00003   0.00009   0.00006   1.91112
    A4        1.90945   0.00027   0.00009   0.00204   0.00213   1.91158
    A5        1.91136   0.00004   0.00000   0.00080   0.00080   1.91217
    A6        1.90933  -0.00003   0.00005   0.00031   0.00036   1.90968
    D1        2.09444  -0.00019  -0.00003  -0.00178  -0.00181   2.09263
    D2       -2.09501   0.00013   0.00005   0.00156   0.00160  -2.09341
    D3        2.09558  -0.00021  -0.00009  -0.00162  -0.00171   2.09387
    D4       -2.09259  -0.00034  -0.00014  -0.00317  -0.00332  -2.09591
         Item               Value     Threshold  Converged?
 Maximum Force            0.000603     0.000450     NO 
 RMS     Force            0.000285     0.000300     YES
 Maximum Displacement     0.002947     0.001800     NO 
 RMS     Displacement     0.001627     0.001200     NO 
 Predicted change in Energy=-2.516494D-06
 GradGradGradGradGradGradGradGradGradGradGradGradGradGradGradGradGradGrad

                          Input orientation:                          
 ---------------------------------------------------------------------
 Center     Atomic      Atomic             Coordinates (Angstroms)
 Number     Number       Type             X           Y           Z
 ---------------------------------------------------------------------
      1          6           0       -0.000392   -0.000315    0.000170
      2         17           0        1.610122    0.696545    0.263625
      3         17           0        0.122984   -1.769925   -0.036322
      4         17           0       -0.650460    0.580932   -1.545465
      5         17           0       -1.082155    0.492863    1.318091
 ---------------------------------------------------------------------
                    Distance matrix (angstroms):
                    1          2          3          4          5
     1  C    0.000000
     2  Cl   1.774480   0.000000
     3  Cl   1.774280   2.895690   0.000000
     4  Cl   1.774661   2.897655   2.898664   0.000000
     5  Cl   1.774924   2.898576   2.899484   2.897252   0.000000
 Stoichiometry    CCl4
 Framework group  C1[X(CCl4)]
 Deg. of freedom     9
 Full point group                 C1      NOp   1
 Largest Abelian subgroup         C1      NOp   1
 Largest concise Abelian subgroup C1      NOp   1
                         Standard orientation:                         
 ---------------------------------------------------------------------
 Center     Atomic      Atomic             Coordinates (Angstroms)
 Number     Number       Type             X           Y           Z
 ---------------------------------------------------------------------
      1          6           0       -0.000147    0.000278    0.000550
      2         17           0        0.821518    0.004576   -1.572227
      3         17           0        1.185858    0.303735    1.284831
      4         17           0       -0.767227   -1.578449    0.262529
      5         17           0       -1.240097    1.270040    0.024672
 ---------------------------------------------------------------------
 Rotational constants (GHZ):      1.7227639      1.7205385      1.7196055
 Standard basis: 6-31+G(d) (6D, 7F)
 There are   111 symmetry adapted cartesian basis functions of A   symmetry.
 There are   111 symmetry adapted basis functions of A   symmetry.
   111 basis functions,   256 primitive gaussians,   111 cartesian basis functions
    37 alpha electrons       37 beta electrons
       nuclear repulsion energy       438.3068363575 Hartrees.
 NAtoms=    5 NActive=    5 NUniq=    5 SFac= 1.00D+00 NAtFMM=   60 NAOKFM=F Big=F
 Integral buffers will be    131072 words long.
 Raffenetti 2 integral format.
 Two-electron integral symmetry is turned on.
 One-electron integrals computed using PRISM.
 NBasis=   111 RedAO= T EigKep=  5.03D-05  NBF=   111
 NBsUse=   111 1.00D-06 EigRej= -1.00D+00 NBFU=   111
 Initial guess from the checkpoint file:  "/srv/scratch/z5358697/gauss/Gau-1666057.chk"
 B after Tr=     0.000000    0.000000    0.000000
         Rot=    0.808002    0.464580   -0.243032   -0.268763 Ang=  72.20 deg.
 Keep R1 ints in memory in canonical form, NReq=20311393.
 Requested convergence on RMS density matrix=1.00D-08 within 128 cycles.
 Requested convergence on MAX density matrix=1.00D-06.
 Requested convergence on             energy=1.00D-06.
 No special actions if energy rises.
 SCF Done:  E(RM062X) =  -1878.71815293     A.U. after    9 cycles
            NFock=  9  Conv=0.32D-08     -V/T= 2.0027
 Calling FoFJK, ICntrl=      2127 FMM=F ISym2X=0 I1Cent= 0 IOpClX= 0 NMat=1 NMatS=1 NMatT=0.
 ***** Axes restored to original set *****
 -------------------------------------------------------------------
 Center     Atomic                   Forces (Hartrees/Bohr)
 Number     Number              X              Y              Z
 -------------------------------------------------------------------
      1        6           0.000159119   -0.000196390   -0.000442820
      2       17           0.000438006    0.000205257    0.000100442
      3       17          -0.000557956   -0.000023140    0.000246527
      4       17           0.000072521   -0.000132086   -0.000151032
      5       17          -0.000111689    0.000146359    0.000246883
 -------------------------------------------------------------------
 Cartesian Forces:  Max     0.000557956 RMS     0.000260389

 GradGradGradGradGradGradGradGradGradGradGradGradGradGradGradGradGradGrad
 Berny optimization.
 Using GEDIIS/GDIIS optimizer.
 FormGI is forming the generalized inverse of G from B-inverse, IUseBI=4.
 Internal  Forces:  Max     0.000493063 RMS     0.000257996
 Search for a local minimum.
 Step number   3 out of a maximum of   24
 All quantities printed in internal units (Hartrees-Bohrs-Radians)
 Mixed Optimization -- En-DIIS/RFO-DIIS
 Swapping is turned off.
 Update second derivatives using D2CorX and points    1    2    3
 DE=  1.25D-04 DEPred=-2.52D-06 R=-4.97D+01
 Trust test=-4.97D+01 RLast= 5.70D-03 DXMaxT set to 1.50D-01
 The second derivative matrix:
                          R1        R2        R3        R4        A1
           R1           0.29551
           R2          -0.00880   0.28396
           R3          -0.00910   0.01803   0.29482
           R4           0.00133   0.01801   0.00838   0.27137
           A1           0.02054  -0.02285  -0.00691   0.01994   0.23570
           A2           0.00277  -0.01028   0.01104   0.02966  -0.03997
           A3          -0.00645   0.01041   0.01364   0.00892  -0.01436
           A4          -0.00979   0.01696  -0.00899  -0.03579   0.04352
           A5          -0.02660   0.01726   0.01612  -0.00123  -0.01779
           A6           0.01952  -0.01148  -0.02488  -0.02150   0.04288
           D1           0.02497  -0.02000  -0.03150  -0.02137   0.04458
           D2          -0.00673   0.00935   0.01330   0.00940  -0.01535
           D3           0.00950  -0.01516  -0.02133  -0.01533   0.02368
           D4           0.01623  -0.02451  -0.03463  -0.02473   0.03903
                          A2        A3        A4        A5        A6
           A2           0.20446
           A3          -0.00331   0.25626
           A4           0.05727   0.00784   0.18018
           A5           0.01027   0.01559  -0.00421   0.28202
           A6           0.02129  -0.01200  -0.03459  -0.03585   0.26825
           D1           0.01433  -0.01713  -0.02832  -0.04419   0.03070
           D2          -0.00466   0.00617   0.00946   0.01552  -0.01113
           D3           0.00729  -0.00949  -0.01468  -0.02385   0.01705
           D4           0.01195  -0.01566  -0.02414  -0.03937   0.02817
                          D1        D2        D3        D4
           D1           0.04759
           D2          -0.01640   0.00829
           D3           0.02523  -0.00924   0.01657
           D4           0.04163  -0.01523   0.02352   0.04105
 ITU= -1  1  0
     Eigenvalues ---    0.08058   0.09123   0.16043   0.23431   0.26537
     Eigenvalues ---    0.26712   0.27610   0.29399   0.43378
 En-DIIS/RFO-DIIS IScMMF=        0 using points:     3    2
 RFO step:  Lambda=-1.58850142D-06.
 DidBck=T Rises=F RFO-DIIS coefs:    0.69574    0.30426
 Iteration  1 RMS(Cart)=  0.00105778 RMS(Int)=  0.00000056
 Iteration  2 RMS(Cart)=  0.00000050 RMS(Int)=  0.00000033
 Variable       Old X    -DE/DX   Delta X   Delta X   Delta X     New X
                                 (Linear)    (Quad)   (Total)
    R1        3.35328   0.00049   0.00002   0.00130   0.00132   3.35460
    R2        3.35290  -0.00002   0.00000   0.00016   0.00016   3.35306
    R3        3.35362   0.00006  -0.00022   0.00078   0.00056   3.35419
    R4        3.35412   0.00029  -0.00035   0.00155   0.00120   3.35532
    A1        1.90882   0.00033   0.00053   0.00060   0.00113   1.90994
    A2        1.91043  -0.00004   0.00049  -0.00069  -0.00020   1.91023
    A3        1.91112  -0.00009  -0.00002  -0.00034  -0.00036   1.91076
    A4        1.91158  -0.00005  -0.00065   0.00096   0.00031   1.91189
    A5        1.91217  -0.00047  -0.00024  -0.00115  -0.00140   1.91077
    A6        1.90968   0.00033  -0.00011   0.00064   0.00053   1.91021
    D1        2.09263   0.00034   0.00055   0.00089   0.00144   2.09407
    D2       -2.09341  -0.00006  -0.00049   0.00019  -0.00030  -2.09371
    D3        2.09387   0.00009   0.00052  -0.00067  -0.00015   2.09372
    D4       -2.09591   0.00015   0.00101  -0.00086   0.00015  -2.09575
         Item               Value     Threshold  Converged?
 Maximum Force            0.000493     0.000450     NO 
 RMS     Force            0.000258     0.000300     YES
 Maximum Displacement     0.001946     0.001800     NO 
 RMS     Displacement     0.001058     0.001200     YES
 Predicted change in Energy=-1.388087D-06
 GradGradGradGradGradGradGradGradGradGradGradGradGradGradGradGradGradGrad

                          Input orientation:                          
 ---------------------------------------------------------------------
 Center     Atomic      Atomic             Coordinates (Angstroms)
 Number     Number       Type             X           Y           Z
 ---------------------------------------------------------------------
      1          6           0       -0.000162   -0.000396   -0.000240
      2         17           0        1.610591    0.697540    0.263607
      3         17           0        0.121954   -1.770195   -0.035801
      4         17           0       -0.650196    0.581093   -1.546140
      5         17           0       -1.082087    0.492058    1.318674
 ---------------------------------------------------------------------
                    Distance matrix (angstroms):
                    1          2          3          4          5
     1  C    0.000000
     2  Cl   1.775177   0.000000
     3  Cl   1.774364   2.897482   0.000000
     4  Cl   1.774959   2.898258   2.899292   0.000000
     5  Cl   1.775558   2.899293   2.898638   2.898555   0.000000
 Stoichiometry    CCl4
 Framework group  C1[X(CCl4)]
 Deg. of freedom     9
 Full point group                 C1      NOp   1
 Largest Abelian subgroup         C1      NOp   1
 Largest concise Abelian subgroup C1      NOp   1
                         Standard orientation:                         
 ---------------------------------------------------------------------
 Center     Atomic      Atomic             Coordinates (Angstroms)
 Number     Number       Type             X           Y           Z
 ---------------------------------------------------------------------
      1          6           0        0.000076    0.000050    0.000594
      2         17           0        0.987167   -0.629039   -1.334005
      3         17           0        1.053005    0.780641    1.196582
      4         17           0       -0.879170   -1.337864    0.767008
      5         17           0       -1.161028    1.186243   -0.629795
 ---------------------------------------------------------------------
 Rotational constants (GHZ):      1.7208222      1.7203922      1.7192003
 Standard basis: 6-31+G(d) (6D, 7F)
 There are   111 symmetry adapted cartesian basis functions of A   symmetry.
 There are   111 symmetry adapted basis functions of A   symmetry.
   111 basis functions,   256 primitive gaussians,   111 cartesian basis functions
    37 alpha electrons       37 beta electrons
       nuclear repulsion energy       438.2010374276 Hartrees.
 NAtoms=    5 NActive=    5 NUniq=    5 SFac= 1.00D+00 NAtFMM=   60 NAOKFM=F Big=F
 Integral buffers will be    131072 words long.
 Raffenetti 2 integral format.
 Two-electron integral symmetry is turned on.
 One-electron integrals computed using PRISM.
 NBasis=   111 RedAO= T EigKep=  5.05D-05  NBF=   111
 NBsUse=   111 1.00D-06 EigRej= -1.00D+00 NBFU=   111
 Initial guess from the checkpoint file:  "/srv/scratch/z5358697/gauss/Gau-1666057.chk"
 B after Tr=     0.000000    0.000000    0.000000
         Rot=    0.977331    0.202551    0.059329    0.016633 Ang=  24.45 deg.
 Keep R1 ints in memory in canonical form, NReq=20311393.
 Requested convergence on RMS density matrix=1.00D-08 within 128 cycles.
 Requested convergence on MAX density matrix=1.00D-06.
 Requested convergence on             energy=1.00D-06.
 No special actions if energy rises.
 SCF Done:  E(RM062X) =  -1878.71813681     A.U. after    9 cycles
            NFock=  9  Conv=0.35D-08     -V/T= 2.0027
 Calling FoFJK, ICntrl=      2127 FMM=F ISym2X=0 I1Cent= 0 IOpClX= 0 NMat=1 NMatS=1 NMatT=0.
 ***** Axes restored to original set *****
 -------------------------------------------------------------------
 Center     Atomic                   Forces (Hartrees/Bohr)
 Number     Number              X              Y              Z
 -------------------------------------------------------------------
      1        6          -0.000231661    0.000124667    0.000273495
      2       17           0.000025543    0.000325732   -0.000068228
      3       17           0.000016468   -0.000383280   -0.000055196
      4       17           0.000000587    0.000125844    0.000146966
      5       17           0.000189063   -0.000192964   -0.000297038
 -------------------------------------------------------------------
 Cartesian Forces:  Max     0.000383280 RMS     0.000200713

 GradGradGradGradGradGradGradGradGradGradGradGradGradGradGradGradGradGrad
 Berny optimization.
 Using GEDIIS/GDIIS optimizer.
 FormGI is forming the generalized inverse of G from B-inverse, IUseBI=4.
 Internal  Forces:  Max     0.000389345 RMS     0.000185093
 Search for a local minimum.
 Step number   4 out of a maximum of   24
 All quantities printed in internal units (Hartrees-Bohrs-Radians)
 Mixed Optimization -- En-DIIS/RFO-DIIS
 Swapping is turned off.
 Update second derivatives using D2CorX and points    1    2    3    4
 DE=  1.61D-05 DEPred=-1.39D-06 R=-1.16D+01
 Trust test=-1.16D+01 RLast= 3.08D-03 DXMaxT set to 7.50D-02
 The second derivative matrix:
                          R1        R2        R3        R4        A1
           R1           0.25325
           R2          -0.07021   0.33421
           R3          -0.01134  -0.04838   0.31072
           R4           0.03306  -0.14271   0.08666   0.53099
           A1          -0.03339  -0.03646  -0.03395  -0.02837   0.20357
           A2           0.01557  -0.02643   0.01733   0.05873  -0.03176
           A3          -0.00254   0.02375   0.00735  -0.00944  -0.00411
           A4          -0.02658   0.03307  -0.01686  -0.06903   0.03333
           A5           0.00982   0.06836   0.01227  -0.03472   0.02487
           A6           0.03710  -0.06228   0.01388   0.08284   0.02410
           D1           0.03073  -0.01198  -0.02178  -0.01257   0.03980
           D2           0.01409  -0.02864   0.03656   0.08325  -0.01449
           D3           0.04026  -0.04485   0.01330   0.07121   0.02372
           D4           0.02617  -0.01621  -0.02326  -0.01204   0.03821
                          A2        A3        A4        A5        A6
           A2           0.19797
           A3          -0.00879   0.25561
           A4           0.06711   0.01442   0.16585
           A5          -0.00987   0.01017   0.02009   0.25025
           A6           0.03535  -0.01728  -0.05082  -0.04549   0.30413
           D1           0.01449  -0.01595  -0.02886  -0.03967   0.03015
           D2          -0.00039  -0.00150   0.00567  -0.00786   0.01857
           D3           0.01125  -0.01693  -0.01814  -0.04742   0.04750
           D4           0.01163  -0.01543  -0.02382  -0.03956   0.02894
                          D1        D2        D3        D4
           D1           0.04686
           D2          -0.01510   0.02597
           D3           0.02531   0.00991   0.03530
           D4           0.04041  -0.01376   0.02309   0.03915
 ITU= -1 -1  1  0
     Eigenvalues ---    0.03922   0.10284   0.15583   0.19317   0.23526
     Eigenvalues ---    0.26684   0.27602   0.39272   0.73544
 En-DIIS/RFO-DIIS IScMMF=        0 using points:     4    3    2
 RFO step:  Lambda=-9.78059505D-07.
 DidBck=F Rises=F RFO-DIIS coefs:    1.13664   -0.09070   -0.04594
 Iteration  1 RMS(Cart)=  0.00236655 RMS(Int)=  0.00000269
 Iteration  2 RMS(Cart)=  0.00000231 RMS(Int)=  0.00000089
 Iteration  3 RMS(Cart)=  0.00000000 RMS(Int)=  0.00000089
 Variable       Old X    -DE/DX   Delta X   Delta X   Delta X     New X
                                 (Linear)    (Quad)   (Total)
    R1        3.35460   0.00014   0.00018   0.00208   0.00226   3.35685
    R2        3.35306   0.00038   0.00002   0.00157   0.00160   3.35466
    R3        3.35419  -0.00009   0.00011   0.00072   0.00083   3.35501
    R4        3.35532  -0.00039   0.00022   0.00062   0.00083   3.35615
    A1        1.90994   0.00014   0.00007   0.00229   0.00237   1.91231
    A2        1.91023  -0.00014  -0.00010  -0.00254  -0.00264   1.90759
    A3        1.91076   0.00005  -0.00005  -0.00051  -0.00056   1.91020
    A4        1.91189   0.00010   0.00014   0.00222   0.00236   1.91424
    A5        1.91077  -0.00006  -0.00015  -0.00131  -0.00146   1.90931
    A6        1.91021  -0.00009   0.00009  -0.00015  -0.00007   1.91015
    D1        2.09407   0.00015   0.00011   0.00261   0.00272   2.09679
    D2       -2.09371  -0.00017   0.00003  -0.00169  -0.00166  -2.09537
    D3        2.09372  -0.00019  -0.00010  -0.00351  -0.00361   2.09011
    D4       -2.09575  -0.00003  -0.00013  -0.00182  -0.00195  -2.09770
         Item               Value     Threshold  Converged?
 Maximum Force            0.000389     0.000450     YES
 RMS     Force            0.000185     0.000300     YES
 Maximum Displacement     0.004171     0.001800     NO 
 RMS     Displacement     0.002367     0.001200     NO 
 Predicted change in Energy=-1.499900D-06
 GradGradGradGradGradGradGradGradGradGradGradGradGradGradGradGradGradGrad

                          Input orientation:                          
 ---------------------------------------------------------------------
 Center     Atomic      Atomic             Coordinates (Angstroms)
 Number     Number       Type             X           Y           Z
 ---------------------------------------------------------------------
      1          6           0       -0.000086   -0.001446   -0.000623
      2         17           0        1.610690    0.699747    0.262476
      3         17           0        0.120587   -1.772229   -0.034226
      4         17           0       -0.649040    0.582991   -1.546368
      5         17           0       -1.082051    0.491036    1.318842
 ---------------------------------------------------------------------
                    Distance matrix (angstroms):
                    1          2          3          4          5
     1  C    0.000000
     2  Cl   1.776371   0.000000
     3  Cl   1.775208   2.901569   0.000000
     4  Cl   1.775397   2.896882   2.902750   0.000000
     5  Cl   1.776000   2.900055   2.898189   2.899204   0.000000
 Stoichiometry    CCl4
 Framework group  C1[X(CCl4)]
 Deg. of freedom     9
 Full point group                 C1      NOp   1
 Largest Abelian subgroup         C1      NOp   1
 Largest concise Abelian subgroup C1      NOp   1
                         Standard orientation:                         
 ---------------------------------------------------------------------
 Center     Atomic      Atomic             Coordinates (Angstroms)
 Number     Number       Type             X           Y           Z
 ---------------------------------------------------------------------
      1          6           0        0.001024   -0.000783    0.001317
      2         17           0       -0.916576   -1.048322   -1.101481
      3         17           0        1.379052   -0.900419    0.666941
      4         17           0       -1.059005    0.532322    1.321988
      5         17           0        0.596169    1.416696   -0.887914
 ---------------------------------------------------------------------
 Rotational constants (GHZ):      1.7216874      1.7178646      1.7166379
 Standard basis: 6-31+G(d) (6D, 7F)
 There are   111 symmetry adapted cartesian basis functions of A   symmetry.
 There are   111 symmetry adapted basis functions of A   symmetry.
   111 basis functions,   256 primitive gaussians,   111 cartesian basis functions
    37 alpha electrons       37 beta electrons
       nuclear repulsion energy       438.0214655988 Hartrees.
 NAtoms=    5 NActive=    5 NUniq=    5 SFac= 1.00D+00 NAtFMM=   60 NAOKFM=F Big=F
 Integral buffers will be    131072 words long.
 Raffenetti 2 integral format.
 Two-electron integral symmetry is turned on.
 One-electron integrals computed using PRISM.
 NBasis=   111 RedAO= T EigKep=  5.07D-05  NBF=   111
 NBsUse=   111 1.00D-06 EigRej= -1.00D+00 NBFU=   111
 Initial guess from the checkpoint file:  "/srv/scratch/z5358697/gauss/Gau-1666057.chk"
 B after Tr=     0.000000    0.000000    0.000000
         Rot=    0.761956    0.112974   -0.171756    0.614133 Ang=  80.73 deg.
 Keep R1 ints in memory in canonical form, NReq=20311393.
 Requested convergence on RMS density matrix=1.00D-08 within 128 cycles.
 Requested convergence on MAX density matrix=1.00D-06.
 Requested convergence on             energy=1.00D-06.
 No special actions if energy rises.
 SCF Done:  E(RM062X) =  -1878.71817630     A.U. after    9 cycles
            NFock=  9  Conv=0.37D-08     -V/T= 2.0027
 Calling FoFJK, ICntrl=      2127 FMM=F ISym2X=0 I1Cent= 0 IOpClX= 0 NMat=1 NMatS=1 NMatT=0.
 ***** Axes restored to original set *****
 -------------------------------------------------------------------
 Center     Atomic                   Forces (Hartrees/Bohr)
 Number     Number              X              Y              Z
 -------------------------------------------------------------------
      1        6           0.000153094    0.000779057    0.000029114
      2       17          -0.000396688   -0.000678278    0.000381601
      3       17           0.000126359    0.000455067   -0.000316798
      4       17           0.000073387   -0.000387500    0.000197961
      5       17           0.000043847   -0.000168347   -0.000291876
 -------------------------------------------------------------------
 Cartesian Forces:  Max     0.000779057 RMS     0.000367682

 GradGradGradGradGradGradGradGradGradGradGradGradGradGradGradGradGradGrad
 Berny optimization.
 Using GEDIIS/GDIIS optimizer.
 FormGI is forming the generalized inverse of G from B-inverse, IUseBI=4.
 Internal  Forces:  Max     0.000570968 RMS     0.000356708
 Search for a local minimum.
 Step number   5 out of a maximum of   24
 All quantities printed in internal units (Hartrees-Bohrs-Radians)
 Mixed Optimization -- En-DIIS/RFO-DIIS
 Swapping is turned off.
 Update second derivatives using D2CorX and points    1    2    3    4    5
 DE= -3.95D-05 DEPred=-1.50D-06 R= 2.63D+01
 TightC=F SS=  1.41D+00  RLast= 7.52D-03 DXNew= 1.2613D-01 2.2557D-02
 Trust test= 2.63D+01 RLast= 7.52D-03 DXMaxT set to 7.50D-02
 The second derivative matrix:
                          R1        R2        R3        R4        A1
           R1           0.27467
           R2          -0.03149   0.38454
           R3          -0.02599  -0.02482   0.25425
           R4          -0.01310  -0.13925  -0.01802   0.36467
           A1          -0.01647  -0.03962  -0.00633   0.01740   0.18047
           A2           0.00668  -0.02244   0.00944   0.04258  -0.01718
           A3           0.00563   0.03168   0.01020  -0.00846   0.00305
           A4          -0.00944   0.03692   0.00190  -0.04106   0.01913
           A5          -0.02416   0.05165  -0.01485  -0.07111   0.02213
           A6           0.03782  -0.05812  -0.00031   0.06070   0.04244
           D1           0.05684   0.00435  -0.00529   0.00757   0.05274
           D2          -0.02949  -0.05646  -0.00873   0.02647  -0.01599
           D3          -0.01413  -0.08266  -0.03220   0.01829   0.01497
           D4           0.01536  -0.02620  -0.02346  -0.00817   0.03096
                          A2        A3        A4        A5        A6
           A2           0.19552
           A3          -0.02127   0.25785
           A4           0.06768   0.02580   0.16533
           A5           0.00561   0.00275   0.00833   0.26881
           A6           0.01958  -0.01817  -0.03622  -0.05764   0.29998
           D1          -0.00747  -0.01306  -0.01002  -0.05601   0.03379
           D2           0.01647  -0.00549  -0.00629   0.00035   0.01097
           D3           0.04495  -0.02827  -0.04632  -0.02300   0.03764
           D4           0.02848  -0.02278  -0.04003  -0.02335   0.02667
                          D1        D2        D3        D4
           D1           0.05366
           D2          -0.01941   0.02191
           D3           0.00852   0.01999   0.07454
           D4           0.02793   0.00039   0.05224   0.05416
 ITU=  1 -1 -1  1  0
     Eigenvalues ---    0.10210   0.12116   0.16225   0.19814   0.26090
     Eigenvalues ---    0.26779   0.27649   0.33073   0.62884
 En-DIIS/RFO-DIIS IScMMF=        0 using points:     5    4    3    2
 RFO step:  Lambda=-3.66193231D-06.
 DidBck=T Rises=F RFO-DIIS coefs:    0.24968    0.40414    0.14026    0.20592
 Iteration  1 RMS(Cart)=  0.00214345 RMS(Int)=  0.00000215
 Iteration  2 RMS(Cart)=  0.00000197 RMS(Int)=  0.00000023
 Iteration  3 RMS(Cart)=  0.00000000 RMS(Int)=  0.00000023
 Variable       Old X    -DE/DX   Delta X   Delta X   Delta X     New X
                                 (Linear)    (Quad)   (Total)
    R1        3.35685  -0.00057  -0.00214   0.00020  -0.00194   3.35492
    R2        3.35466  -0.00044  -0.00125   0.00034  -0.00091   3.35375
    R3        3.35501  -0.00033  -0.00096   0.00005  -0.00091   3.35410
    R4        3.35615  -0.00029  -0.00128  -0.00010  -0.00137   3.35478
    A1        1.91231  -0.00030  -0.00181  -0.00013  -0.00193   1.91038
    A2        1.90759   0.00050   0.00238   0.00017   0.00255   1.91014
    A3        1.91020  -0.00011   0.00053   0.00003   0.00056   1.91076
    A4        1.91424  -0.00037  -0.00231  -0.00004  -0.00235   1.91189
    A5        1.90931   0.00034   0.00142  -0.00007   0.00134   1.91065
    A6        1.91015  -0.00006  -0.00021   0.00004  -0.00016   1.90998
    D1        2.09679  -0.00029  -0.00217  -0.00008  -0.00224   2.09454
    D2       -2.09537   0.00023   0.00102   0.00018   0.00120  -2.09417
    D3        2.09011   0.00051   0.00311   0.00025   0.00336   2.09347
    D4       -2.09770   0.00027   0.00209   0.00006   0.00216  -2.09555
         Item               Value     Threshold  Converged?
 Maximum Force            0.000571     0.000450     NO 
 RMS     Force            0.000357     0.000300     NO 
 Maximum Displacement     0.003423     0.001800     NO 
 RMS     Displacement     0.002143     0.001200     NO 
 Predicted change in Energy=-3.700255D-06
 GradGradGradGradGradGradGradGradGradGradGradGradGradGradGradGradGradGrad

                          Input orientation:                          
 ---------------------------------------------------------------------
 Center     Atomic      Atomic             Coordinates (Angstroms)
 Number     Number       Type             X           Y           Z
 ---------------------------------------------------------------------
      1          6           0       -0.000070   -0.000414   -0.000193
      2         17           0        1.610694    0.697936    0.263623
      3         17           0        0.121678   -1.770602   -0.035754
      4         17           0       -0.650227    0.581185   -1.545946
      5         17           0       -1.081975    0.491994    1.318371
 ---------------------------------------------------------------------
                    Distance matrix (angstroms):
                    1          2          3          4          5
     1  C    0.000000
     2  Cl   1.775346   0.000000
     3  Cl   1.774726   2.898357   0.000000
     4  Cl   1.774913   2.898265   2.899556   0.000000
     5  Cl   1.775273   2.899202   2.898582   2.898047   0.000000
 Stoichiometry    CCl4
 Framework group  C1[X(CCl4)]
 Deg. of freedom     9
 Full point group                 C1      NOp   1
 Largest Abelian subgroup         C1      NOp   1
 Largest concise Abelian subgroup C1      NOp   1
                         Standard orientation:                         
 ---------------------------------------------------------------------
 Center     Atomic      Atomic             Coordinates (Angstroms)
 Number     Number       Type             X           Y           Z
 ---------------------------------------------------------------------
      1          6           0        0.000249    0.000167    0.000479
      2         17           0        0.524027   -1.365386   -1.005889
      3         17           0        1.395151    0.654825    0.881004
      4         17           0       -1.225367   -0.554945    1.158076
      5         17           0       -0.693898    1.265447   -1.033360
 ---------------------------------------------------------------------
 Rotational constants (GHZ):      1.7206411      1.7202978      1.7191852
 Standard basis: 6-31+G(d) (6D, 7F)
 There are   111 symmetry adapted cartesian basis functions of A   symmetry.
 There are   111 symmetry adapted basis functions of A   symmetry.
   111 basis functions,   256 primitive gaussians,   111 cartesian basis functions
    37 alpha electrons       37 beta electrons
       nuclear repulsion energy       438.1886869422 Hartrees.
 NAtoms=    5 NActive=    5 NUniq=    5 SFac= 1.00D+00 NAtFMM=   60 NAOKFM=F Big=F
 Integral buffers will be    131072 words long.
 Raffenetti 2 integral format.
 Two-electron integral symmetry is turned on.
 One-electron integrals computed using PRISM.
 NBasis=   111 RedAO= T EigKep=  5.05D-05  NBF=   111
 NBsUse=   111 1.00D-06 EigRej= -1.00D+00 NBFU=   111
 Initial guess from the checkpoint file:  "/srv/scratch/z5358697/gauss/Gau-1666057.chk"
 B after Tr=     0.000000    0.000000    0.000000
         Rot=    0.879942    0.045318    0.063896   -0.468579 Ang=  56.73 deg.
 Keep R1 ints in memory in canonical form, NReq=20311393.
 Requested convergence on RMS density matrix=1.00D-08 within 128 cycles.
 Requested convergence on MAX density matrix=1.00D-06.
 Requested convergence on             energy=1.00D-06.
 No special actions if energy rises.
 SCF Done:  E(RM062X) =  -1878.71818907     A.U. after    9 cycles
            NFock=  9  Conv=0.36D-08     -V/T= 2.0027
 Calling FoFJK, ICntrl=      2127 FMM=F ISym2X=0 I1Cent= 0 IOpClX= 0 NMat=1 NMatS=1 NMatT=0.
 ***** Axes restored to original set *****
 -------------------------------------------------------------------
 Center     Atomic                   Forces (Hartrees/Bohr)
 Number     Number              X              Y              Z
 -------------------------------------------------------------------
      1        6           0.000310056    0.000771480    0.000346395
      2       17          -0.000079718   -0.000291920   -0.000078683
      3       17           0.000065501   -0.000025896   -0.000328143
      4       17          -0.000216128   -0.000256291    0.000091149
      5       17          -0.000079711   -0.000197372   -0.000030718
 -------------------------------------------------------------------
 Cartesian Forces:  Max     0.000771480 RMS     0.000281504

 GradGradGradGradGradGradGradGradGradGradGradGradGradGradGradGradGradGrad
 Berny optimization.
 Using GEDIIS/GDIIS optimizer.
 FormGI is forming the generalized inverse of G from B-inverse, IUseBI=4.
 Internal  Forces:  Max     0.000369312 RMS     0.000210939
 Search for a local minimum.
 Step number   6 out of a maximum of   24
 All quantities printed in internal units (Hartrees-Bohrs-Radians)
 Mixed Optimization -- En-DIIS/RFO-DIIS
 Swapping is turned off.
 Update second derivatives using D2CorX and points    1    2    3    4    5
                                                      6
 DE= -1.28D-05 DEPred=-3.70D-06 R= 3.45D+00
 TightC=F SS=  1.41D+00  RLast= 6.90D-03 DXNew= 1.2613D-01 2.0698D-02
 Trust test= 3.45D+00 RLast= 6.90D-03 DXMaxT set to 7.50D-02
 The second derivative matrix:
                          R1        R2        R3        R4        A1
           R1           0.27246
           R2          -0.02456   0.33143
           R3           0.00621   0.03291   0.29883
           R4           0.03994   0.00418   0.02116   0.33529
           A1          -0.03297  -0.04681  -0.00346   0.03204   0.15166
           A2           0.00726  -0.02738  -0.00654   0.00805   0.00459
           A3           0.02832   0.05509   0.02686   0.02025   0.02613
           A4          -0.02275   0.02824  -0.00264  -0.04390  -0.00021
           A5          -0.00255   0.03832   0.00870  -0.02618   0.02687
           A6           0.02274  -0.04739  -0.02292   0.00973   0.04108
           D1           0.01906  -0.03867  -0.03290  -0.00566   0.03652
           D2          -0.01784  -0.04234   0.00378   0.02343  -0.02624
           D3           0.01355  -0.06493   0.00085   0.04952   0.01580
           D4           0.03139  -0.02260  -0.00293   0.02608   0.04205
                          A2        A3        A4        A5        A6
           A2           0.17560
           A3          -0.05271   0.29358
           A4           0.09723   0.02558   0.14154
           A5           0.00397  -0.01493   0.01962   0.25552
           A6           0.02119  -0.02766  -0.03369  -0.04108   0.29011
           D1           0.01004  -0.01336  -0.01699  -0.05422   0.03801
           D2           0.02915  -0.02884  -0.00355   0.01376   0.01573
           D3           0.03096  -0.03546  -0.02794  -0.02591   0.04250
           D4           0.00181  -0.00662  -0.02439  -0.03966   0.02676
                          D1        D2        D3        D4
           D1           0.04115
           D2          -0.01286   0.03610
           D3           0.01999   0.01976   0.04295
           D4           0.03285  -0.01404   0.02089   0.03723
 ITU=  1  1 -1 -1  1  0
     Eigenvalues ---    0.03079   0.11516   0.14776   0.22927   0.26726
     Eigenvalues ---    0.27356   0.28989   0.39189   0.49790
 En-DIIS/RFO-DIIS IScMMF=        0 using points:     6    5    4    3    2
 RFO step:  Lambda=-3.37757153D-06.
 DidBck=T Rises=F RFO-DIIS coefs:   -0.06412    0.28937    0.35720    0.16502    0.25252
 Iteration  1 RMS(Cart)=  0.00006216 RMS(Int)=  0.00000038
 Iteration  2 RMS(Cart)=  0.00000000 RMS(Int)=  0.00000038
 Variable       Old X    -DE/DX   Delta X   Delta X   Delta X     New X
                                 (Linear)    (Quad)   (Total)
    R1        3.35492  -0.00020  -0.00022   0.00021  -0.00001   3.35491
    R2        3.35375   0.00004  -0.00033   0.00034   0.00001   3.35375
    R3        3.35410  -0.00008  -0.00008   0.00002  -0.00006   3.35404
    R4        3.35478  -0.00003   0.00003  -0.00014  -0.00012   3.35466
    A1        1.91038  -0.00016   0.00020  -0.00015   0.00004   1.91042
    A2        1.91014   0.00019  -0.00018   0.00019   0.00002   1.91015
    A3        1.91076   0.00028  -0.00003  -0.00005  -0.00008   1.91069
    A4        1.91189  -0.00030   0.00001   0.00003   0.00004   1.91193
    A5        1.91065   0.00012   0.00008  -0.00010  -0.00002   1.91064
    A6        1.90998  -0.00013  -0.00008   0.00008   0.00000   1.90998
    D1        2.09454  -0.00027   0.00014  -0.00005   0.00009   2.09463
    D2       -2.09417  -0.00005  -0.00027   0.00028   0.00001  -2.09417
    D3        2.09347   0.00032  -0.00028   0.00025  -0.00003   2.09344
    D4       -2.09555   0.00037  -0.00001  -0.00002  -0.00003  -2.09558
         Item               Value     Threshold  Converged?
 Maximum Force            0.000369     0.000450     YES
 RMS     Force            0.000211     0.000300     YES
 Maximum Displacement     0.000143     0.001800     YES
 RMS     Displacement     0.000062     0.001200     YES
 Predicted change in Energy=-7.723249D-08
 Optimization completed.
    -- Stationary point found.
                           ----------------------------
                           !   Optimized Parameters   !
                           ! (Angstroms and Degrees)  !
 --------------------------                            --------------------------
 ! Name  Definition              Value          Derivative Info.                !
 --------------------------------------------------------------------------------
 ! R1    R(1,2)                  1.7753         -DE/DX =   -0.0002              !
 ! R2    R(1,3)                  1.7747         -DE/DX =    0.0                 !
 ! R3    R(1,4)                  1.7749         -DE/DX =   -0.0001              !
 ! R4    R(1,5)                  1.7753         -DE/DX =    0.0                 !
 ! A1    A(2,1,3)              109.4564         -DE/DX =   -0.0002              !
 ! A2    A(2,1,4)              109.4427         -DE/DX =    0.0002              !
 ! A3    A(2,1,5)              109.4787         -DE/DX =    0.0003              !
 ! A4    A(3,1,4)              109.5433         -DE/DX =   -0.0003              !
 ! A5    A(3,1,5)              109.4723         -DE/DX =    0.0001              !
 ! A6    A(4,1,5)              109.4339         -DE/DX =   -0.0001              !
 ! D1    D(2,1,4,3)            120.0085         -DE/DX =   -0.0003              !
 ! D2    D(2,1,5,3)           -119.9871         -DE/DX =    0.0                 !
 ! D3    D(2,1,5,4)            119.9468         -DE/DX =    0.0003              !
 ! D4    D(3,1,5,4)           -120.066          -DE/DX =    0.0004              !
 --------------------------------------------------------------------------------
 GradGradGradGradGradGradGradGradGradGradGradGradGradGradGradGradGradGrad

                          Input orientation:                          
 ---------------------------------------------------------------------
 Center     Atomic      Atomic             Coordinates (Angstroms)
 Number     Number       Type             X           Y           Z
 ---------------------------------------------------------------------
      1          6           0       -0.000070   -0.000414   -0.000193
      2         17           0        1.610694    0.697936    0.263623
      3         17           0        0.121678   -1.770602   -0.035754
      4         17           0       -0.650227    0.581185   -1.545946
      5         17           0       -1.081975    0.491994    1.318371
 ---------------------------------------------------------------------
                    Distance matrix (angstroms):
                    1          2          3          4          5
     1  C    0.000000
     2  Cl   1.775346   0.000000
     3  Cl   1.774726   2.898357   0.000000
     4  Cl   1.774913   2.898265   2.899556   0.000000
     5  Cl   1.775273   2.899202   2.898582   2.898047   0.000000
 Stoichiometry    CCl4
 Framework group  C1[X(CCl4)]
 Deg. of freedom     9
 Full point group                 C1      NOp   1
 Largest Abelian subgroup         C1      NOp   1
 Largest concise Abelian subgroup C1      NOp   1
                         Standard orientation:                         
 ---------------------------------------------------------------------
 Center     Atomic      Atomic             Coordinates (Angstroms)
 Number     Number       Type             X           Y           Z
 ---------------------------------------------------------------------
      1          6           0        0.000249    0.000167    0.000479
      2         17           0        0.524027   -1.365386   -1.005889
      3         17           0        1.395151    0.654825    0.881004
      4         17           0       -1.225367   -0.554945    1.158076
      5         17           0       -0.693898    1.265447   -1.033360
 ---------------------------------------------------------------------
 Rotational constants (GHZ):      1.7206411      1.7202978      1.7191852

 **********************************************************************

            Population analysis using the SCF density.

 **********************************************************************

 Orbital symmetries:
       Occupied  (A) (A) (A) (A) (A) (A) (A) (A) (A) (A) (A) (A)
                 (A) (A) (A) (A) (A) (A) (A) (A) (A) (A) (A) (A)
                 (A) (A) (A) (A) (A) (A) (A) (A) (A) (A) (A) (A)
                 (A)
       Virtual   (A) (A) (A) (A) (A) (A) (A) (A) (A) (A) (A) (A)
                 (A) (A) (A) (A) (A) (A) (A) (A) (A) (A) (A) (A)
                 (A) (A) (A) (A) (A) (A) (A) (A) (A) (A) (A) (A)
                 (A) (A) (A) (A) (A) (A) (A) (A) (A) (A) (A) (A)
                 (A) (A) (A) (A) (A) (A) (A) (A) (A) (A) (A) (A)
                 (A) (A) (A) (A) (A) (A) (A) (A) (A) (A) (A) (A)
                 (A) (A)
 The electronic state is 1-A.
 Alpha  occ. eigenvalues -- -102.70987-102.70976-102.70975-102.70972 -10.80072
 Alpha  occ. eigenvalues --   -9.85733  -9.85725  -9.85721  -9.85719  -7.58194
 Alpha  occ. eigenvalues --   -7.58186  -7.58182  -7.58180  -7.57394  -7.57393
 Alpha  occ. eigenvalues --   -7.57386  -7.57385  -7.57382  -7.57382  -7.57381
 Alpha  occ. eigenvalues --   -7.57380  -1.09693  -0.96086  -0.96072  -0.96068
 Alpha  occ. eigenvalues --   -0.71874  -0.57817  -0.57808  -0.57805  -0.45091
 Alpha  occ. eigenvalues --   -0.45082  -0.42105  -0.42092  -0.42089  -0.38970
 Alpha  occ. eigenvalues --   -0.38963  -0.38962
 Alpha virt. eigenvalues --   -0.03249   0.01520   0.01522   0.01538   0.02815
 Alpha virt. eigenvalues --    0.05406   0.05406   0.05408   0.09738   0.09739
 Alpha virt. eigenvalues --    0.11009   0.11013   0.11016   0.12467   0.13523
 Alpha virt. eigenvalues --    0.13527   0.13527   0.14295   0.14302   0.14315
 Alpha virt. eigenvalues --    0.17860   0.17873   0.17884   0.27457   0.54177
 Alpha virt. eigenvalues --    0.54179   0.54190   0.58007   0.58955   0.58960
 Alpha virt. eigenvalues --    0.58968   0.59552   0.59567   0.61541   0.63449
 Alpha virt. eigenvalues --    0.63451   0.63461   0.66882   0.66893   0.66895
 Alpha virt. eigenvalues --    0.74846   0.74857   0.74860   0.79386   0.79392
 Alpha virt. eigenvalues --    0.89590   0.89592   0.89598   0.91268   0.91273
 Alpha virt. eigenvalues --    0.91896   0.91901   0.91910   0.95263   0.95277
 Alpha virt. eigenvalues --    0.95287   1.07435   1.13357   1.13368   1.13376
 Alpha virt. eigenvalues --    1.28789   1.28812   1.28843   1.55733   1.75638
 Alpha virt. eigenvalues --    1.75649   2.10923   2.10962   2.10980   3.96897
 Alpha virt. eigenvalues --    4.38777   4.38801   4.38814   4.41973
          Condensed to atoms (all electrons):
               1          2          3          4          5
     1  C    5.558069   0.252508   0.253220   0.252796   0.252696
     2  Cl   0.252508  16.937631  -0.110063  -0.110910  -0.110684
     3  Cl   0.253220  -0.110063  16.936578  -0.110919  -0.111182
     4  Cl   0.252796  -0.110910  -0.110919  16.937324  -0.110660
     5  Cl   0.252696  -0.110684  -0.111182  -0.110660  16.936798
 Mulliken charges:
               1
     1  C   -0.569288
     2  Cl   0.141519
     3  Cl   0.142367
     4  Cl   0.142370
     5  Cl   0.143032
 Sum of Mulliken charges =   0.00000
 Mulliken charges with hydrogens summed into heavy atoms:
               1
     1  C   -0.569288
     2  Cl   0.141519
     3  Cl   0.142367
     4  Cl   0.142370
     5  Cl   0.143032
 Electronic spatial extent (au):  <R**2>=            888.8801
 Charge=              0.0000 electrons
 Dipole moment (field-independent basis, Debye):
    X=             -0.0001    Y=              0.0027    Z=              0.0021  Tot=              0.0034
 Quadrupole moment (field-independent basis, Debye-Ang):
   XX=            -55.4767   YY=            -55.4861   ZZ=            -55.4860
   XY=              0.0037   XZ=              0.0010   YZ=              0.0017
 Traceless Quadrupole moment (field-independent basis, Debye-Ang):
   XX=              0.0062   YY=             -0.0032   ZZ=             -0.0031
   XY=              0.0037   XZ=              0.0010   YZ=              0.0017
 Octapole moment (field-independent basis, Debye-Ang**2):
  XXX=              0.9017  YYY=             -0.5345  ZZZ=              0.1493  XYY=              0.1137
  XXY=              0.8985  XXZ=              3.5372  XZZ=             -1.0172  YZZ=             -0.3494
  YYZ=             -3.6822  XYZ=              4.2475
 Hexadecapole moment (field-independent basis, Debye-Ang**3):
 XXXX=           -366.8595 YYYY=           -366.9049 ZZZZ=           -371.8529 XXXY=              6.7047
 XXXZ=              1.4198 YYYX=             -6.5481 YYYZ=              1.5933 ZZZX=             -2.1867
 ZZZY=             -1.2819 XXYY=           -120.8526 XXZZ=           -115.4659 YYZZ=           -115.3699
 XXYZ=             -0.2943 YYXZ=              0.7874 ZZXY=             -0.1224
 N-N= 4.381886869422D+02 E-N=-5.338621220656D+03  KE= 1.873625485164D+03
 1\1\GINC-KATANA3\FOpt\RM062X\6-31+G(d)\C1Cl4\Z5358697\13-Mar-2025\0\\#
 m062X/6-31+G(d) OPT Freq=noraman\\carbon tetrachloride\\0,1\C,-0.00007
 02418,-0.000413947,-0.0001931958\Cl,1.6106942882,0.6979361862,0.263622
 5877\Cl,0.1216784224,-1.77060174,-0.0357539189\Cl,-0.6502274239,0.5811
 85308,-1.54594644\Cl,-1.0819750449,0.4919941928,1.318370967\\Version=E
 S64L-G09RevD.01\State=1-A\HF=-1878.7181891\RMSD=3.638e-09\RMSF=2.815e-
 04\Dipole=-0.0010387,-0.0008533,-0.0001404\Quadrupole=-0.0019876,0.004
 5065,-0.0025189,-0.0018439,0.0015756,-0.0021641\PG=C01 [X(C1Cl4)]\\@


 UNDER MOST GREENE GRASSE LY MOST GREATE SNAKES.
 -- PROVERBS AND REASONS OF THE YEAR 1585
           AS REPRINTED IN PAISLEY MAGAZINE 1828.
 Job cpu time:       0 days  0 hours  0 minutes 53.3 seconds.
 File lengths (MBytes):  RWF=    132 Int=      0 D2E=      0 Chk=      3 Scr=      2
 Normal termination of Gaussian 09 at Thu Mar 13 14:57:19 2025.
 Link1:  Proceeding to internal job step number  2.
 ---------------------------------------------------------------------
 #N Geom=AllCheck Guess=TCheck SCRF=Check GenChk RM062X/6-31+G(d) Freq
 ---------------------------------------------------------------------
 1/10=4,29=7,30=1,38=1,40=1/1,3;
 2/12=2,40=1/2;
 3/5=1,6=6,7=11,11=2,14=-4,16=1,25=1,30=1,70=2,71=2,74=-55,116=1,140=1/1,2,3;
 4/5=101/1;
 5/5=2,98=1/2;
 8/6=4,10=90,11=11/1;
 11/6=1,8=1,9=11,15=111,16=1/1,2,10;
 10/6=1/2;
 6/7=2,8=2,9=2,10=2,18=1,28=1/1;
 7/8=1,10=1,25=1/1,2,3,16;
 1/10=4,30=1/3;
 99//99;
 Structure from the checkpoint file:  "/srv/scratch/z5358697/gauss/Gau-1666057.chk"
 --------------------
 carbon tetrachloride
 --------------------
 Charge =  0 Multiplicity = 1
 Redundant internal coordinates found in file.
 C,0,-0.0000702418,-0.000413947,-0.0001931958
 Cl,0,1.6106942882,0.6979361862,0.2636225877
 Cl,0,0.1216784224,-1.77060174,-0.0357539189
 Cl,0,-0.6502274239,0.581185308,-1.54594644
 Cl,0,-1.0819750449,0.4919941928,1.318370967
 Recover connectivity data from disk.

 GradGradGradGradGradGradGradGradGradGradGradGradGradGradGradGradGradGrad
 Berny optimization.
 Initialization pass.
                           ----------------------------
                           !    Initial Parameters    !
                           ! (Angstroms and Degrees)  !
 --------------------------                            --------------------------
 ! Name  Definition              Value          Derivative Info.                !
 --------------------------------------------------------------------------------
 ! R1    R(1,2)                  1.7753         calculate D2E/DX2 analytically  !
 ! R2    R(1,3)                  1.7747         calculate D2E/DX2 analytically  !
 ! R3    R(1,4)                  1.7749         calculate D2E/DX2 analytically  !
 ! R4    R(1,5)                  1.7753         calculate D2E/DX2 analytically  !
 ! A1    A(2,1,3)              109.4564         calculate D2E/DX2 analytically  !
 ! A2    A(2,1,4)              109.4427         calculate D2E/DX2 analytically  !
 ! A3    A(2,1,5)              109.4787         calculate D2E/DX2 analytically  !
 ! A4    A(3,1,4)              109.5433         calculate D2E/DX2 analytically  !
 ! A5    A(3,1,5)              109.4723         calculate D2E/DX2 analytically  !
 ! A6    A(4,1,5)              109.4339         calculate D2E/DX2 analytically  !
 ! D1    D(2,1,4,3)            120.0085         calculate D2E/DX2 analytically  !
 ! D2    D(2,1,5,3)           -119.9871         calculate D2E/DX2 analytically  !
 ! D3    D(2,1,5,4)            119.9468         calculate D2E/DX2 analytically  !
 ! D4    D(3,1,5,4)           -120.066          calculate D2E/DX2 analytically  !
 --------------------------------------------------------------------------------
 Trust Radius=3.00D-01 FncErr=1.00D-07 GrdErr=1.00D-07
 Number of steps in this run=      2 maximum allowed number of steps=      2.
 GradGradGradGradGradGradGradGradGradGradGradGradGradGradGradGradGradGrad

                          Input orientation:                          
 ---------------------------------------------------------------------
 Center     Atomic      Atomic             Coordinates (Angstroms)
 Number     Number       Type             X           Y           Z
 ---------------------------------------------------------------------
      1          6           0       -0.000070   -0.000414   -0.000193
      2         17           0        1.610694    0.697936    0.263623
      3         17           0        0.121678   -1.770602   -0.035754
      4         17           0       -0.650227    0.581185   -1.545946
      5         17           0       -1.081975    0.491994    1.318371
 ---------------------------------------------------------------------
                    Distance matrix (angstroms):
                    1          2          3          4          5
     1  C    0.000000
     2  Cl   1.775346   0.000000
     3  Cl   1.774726   2.898357   0.000000
     4  Cl   1.774913   2.898265   2.899556   0.000000
     5  Cl   1.775273   2.899202   2.898582   2.898047   0.000000
 Stoichiometry    CCl4
 Framework group  C1[X(CCl4)]
 Deg. of freedom     9
 Full point group                 C1      NOp   1
[...]
 Alpha  occ. eigenvalues --   -7.57380  -1.09693  -0.96086  -0.96072  -0.96068
 Alpha  occ. eigenvalues --   -0.71874  -0.57817  -0.57808  -0.57805  -0.45091
 Alpha  occ. eigenvalues --   -0.45082  -0.42105  -0.42092  -0.42089  -0.38970
 Alpha  occ. eigenvalues --   -0.38963  -0.38962
 Alpha virt. eigenvalues --   -0.03249   0.01520   0.01522   0.01538   0.02815
 Alpha virt. eigenvalues --    0.05406   0.05406   0.05408   0.09738   0.09739
 Alpha virt. eigenvalues --    0.11009   0.11013   0.11016   0.12467   0.13523
 Alpha virt. eigenvalues --    0.13527   0.13527   0.14295   0.14302   0.14315
 Alpha virt. eigenvalues --    0.17860   0.17873   0.17884   0.27457   0.54177
 Alpha virt. eigenvalues --    0.54179   0.54190   0.58007   0.58955   0.58960
 Alpha virt. eigenvalues --    0.58968   0.59552   0.59567   0.61541   0.63449
 Alpha virt. eigenvalues --    0.63451   0.63461   0.66882   0.66893   0.66895
 Alpha virt. eigenvalues --    0.74846   0.74857   0.74860   0.79386   0.79392
 Alpha virt. eigenvalues --    0.89590   0.89592   0.89598   0.91268   0.91273
 Alpha virt. eigenvalues --    0.91896   0.91901   0.91910   0.95263   0.95277
 Alpha virt. eigenvalues --    0.95287   1.07435   1.13357   1.13368   1.13376
 Alpha virt. eigenvalues --    1.28789   1.28812   1.28843   1.55733   1.75638
 Alpha virt. eigenvalues --    1.75649   2.10923   2.10962   2.10980   3.96897
 Alpha virt. eigenvalues --    4.38777   4.38801   4.38814   4.41973
          Condensed to atoms (all electrons):
               1          2          3          4          5
     1  C    5.558069   0.252508   0.253220   0.252796   0.252696
     2  Cl   0.252508  16.937631  -0.110063  -0.110910  -0.110684
     3  Cl   0.253220  -0.110063  16.936578  -0.110919  -0.111182
     4  Cl   0.252796  -0.110910  -0.110919  16.937324  -0.110660
     5  Cl   0.252696  -0.110684  -0.111182  -0.110660  16.936798
 Mulliken charges:
               1
     1  C   -0.569288
     2  Cl   0.141519
     3  Cl   0.142367
     4  Cl   0.142370
     5  Cl   0.143032
 Sum of Mulliken charges =   0.00000
 Mulliken charges with hydrogens summed into heavy atoms:
               1
     1  C   -0.569288
     2  Cl   0.141519
     3  Cl   0.142367
     4  Cl   0.142370
     5  Cl   0.143032
 APT charges:
               1
     1  C    1.357993
     2  Cl  -0.340533
     3  Cl  -0.338480
     4  Cl  -0.340109
     5  Cl  -0.338871
 Sum of APT charges =   0.00000
 APT charges with hydrogens summed into heavy atoms:
               1
     1  C    1.357993
     2  Cl  -0.340533
     3  Cl  -0.338480
     4  Cl  -0.340109
     5  Cl  -0.338871
 Electronic spatial extent (au):  <R**2>=            888.8801
 Charge=              0.0000 electrons
 Dipole moment (field-independent basis, Debye):
    X=             -0.0001    Y=              0.0027    Z=              0.0021  Tot=              0.0034
 Quadrupole moment (field-independent basis, Debye-Ang):
   XX=            -55.4767   YY=            -55.4861   ZZ=            -55.4860
   XY=              0.0037   XZ=              0.0010   YZ=              0.0017
 Traceless Quadrupole moment (field-independent basis, Debye-Ang):
   XX=              0.0062   YY=             -0.0032   ZZ=             -0.0031
   XY=              0.0037   XZ=              0.0010   YZ=              0.0017
 Octapole moment (field-independent basis, Debye-Ang**2):
  XXX=              0.9017  YYY=             -0.5345  ZZZ=              0.1493  XYY=              0.1137
  XXY=              0.8985  XXZ=              3.5372  XZZ=             -1.0172  YZZ=             -0.3494
  YYZ=             -3.6822  XYZ=              4.2475
 Hexadecapole moment (field-independent basis, Debye-Ang**3):
 XXXX=           -366.8595 YYYY=           -366.9049 ZZZZ=           -371.8529 XXXY=              6.7047
 XXXZ=              1.4198 YYYX=             -6.5481 YYYZ=              1.5933 ZZZX=             -2.1867
 ZZZY=             -1.2819 XXYY=           -120.8526 XXZZ=           -115.4659 YYZZ=           -115.3699
 XXYZ=             -0.2943 YYXZ=              0.7874 ZZXY=             -0.1224
 N-N= 4.381886869422D+02 E-N=-5.338621220609D+03  KE= 1.873625485151D+03
  Exact polarizability:  59.205  -0.010  59.198  -0.020  -0.006  59.156
 Approx polarizability:  70.122  -0.006  70.110   0.002   0.005  70.064
 Calling FoFJK, ICntrl=    100127 FMM=F ISym2X=0 I1Cent= 0 IOpClX= 0 NMat=1 NMatS=1 NMatT=0.
 Full mass-weighted force constant matrix:
 Low frequencies ---  -35.2628  -27.3419   -0.0044   -0.0024    0.0038   16.0173
 Low frequencies ---  218.0641  219.2485  318.3695
 Diagonal vibrational polarizability:
        7.1785290       7.1333722       7.0007487
 Harmonic frequencies (cm**-1), IR intensities (KM/Mole), Raman scattering
 activities (A**4/AMU), depolarization ratios for plane and unpolarized
 incident light, reduced masses (AMU), force constants (mDyne/A),
 and normal coordinates:
                      1                      2                      3
                      A                      A                      A
 Frequencies --    218.0539               219.2168               318.3664
 Red. masses --     34.9667                34.9679                31.7000
 Frc consts  --      0.9796                 0.9901                 1.8931
 IR Inten    --      0.0014                 0.0003                 0.0195
  Atom  AN      X      Y      Z        X      Y      Z        X      Y      Z
     1   6    -0.01   0.00   0.00     0.00   0.01   0.00     0.15   0.20   0.29
     2  17     0.43  -0.03   0.27    -0.22  -0.32   0.32    -0.35   0.36   0.12
     3  17     0.31  -0.24  -0.31     0.01   0.39  -0.30     0.53   0.13   0.15
     4  17    -0.36   0.21  -0.27    -0.05  -0.43  -0.26    -0.19  -0.20  -0.23
     5  17    -0.37   0.07   0.32     0.26   0.35   0.24    -0.05  -0.35  -0.14
                      4                      5                      6
                      A                      A                      A
 Frequencies --    319.8625               322.7245               475.3988
 Red. masses --     31.6449                31.8852                34.9623
 Frc consts  --      1.9076                 1.9566                 4.6555
 IR Inten    --      0.0291                 0.0007                 0.0158
  Atom  AN      X      Y      Z        X      Y      Z        X      Y      Z
     1   6     0.29  -0.24   0.02    -0.19  -0.21   0.24     0.00  -0.02   0.00
     2  17    -0.07  -0.30  -0.40     0.16   0.26  -0.18    -0.15   0.38   0.28
     3  17     0.03   0.37   0.16    -0.04   0.10  -0.38    -0.39  -0.18  -0.25
     4  17    -0.08   0.32  -0.21    -0.46  -0.09   0.38     0.34   0.16  -0.33
     5  17     0.02  -0.31   0.43     0.41  -0.20   0.10     0.20  -0.36   0.30
                      7                      8                      9
                      A                      A                      A
 Frequencies --    794.9707               809.4407               818.2692
 Red. masses --     13.1483                13.1434                13.1302
 Frc consts  --      4.8958                 5.0737                 5.1798
 IR Inten    --    174.1575               170.9732               170.6369
  Atom  AN      X      Y      Z        X      Y      Z        X      Y      Z
     1   6     0.60  -0.57  -0.51     0.72   0.65   0.13     0.27  -0.46   0.82
     2  17    -0.06   0.13   0.10    -0.01  -0.06  -0.03    -0.01   0.01  -0.03
     3  17    -0.02   0.02   0.02    -0.14  -0.07  -0.07    -0.06  -0.01  -0.06
     4  17    -0.08  -0.01   0.08    -0.09  -0.05   0.06     0.04   0.04  -0.08
     5  17    -0.04   0.06  -0.02    -0.02  -0.03   0.01    -0.06   0.12  -0.11

 -------------------
 - Thermochemistry -
 -------------------
 Temperature   298.150 Kelvin.  Pressure   1.00000 Atm.
 Atom     1 has atomic number  6 and mass  12.00000
 Atom     2 has atomic number 17 and mass  34.96885
 Atom     3 has atomic number 17 and mass  34.96885
 Atom     4 has atomic number 17 and mass  34.96885
 Atom     5 has atomic number 17 and mass  34.96885
 Molecular mass:   151.87541 amu.
 Principal axes and moments of inertia in atomic units:
                           1         2         3
     Eigenvalues --  1048.877201049.086521049.76546
           X            1.00000   0.00000   0.00000
           Y            0.00000   1.00000   0.00000
           Z            0.00000   0.00000   1.00000
 This molecule is an asymmetric top.
 Rotational symmetry number  1.
 Warning -- assumption of classical behavior for rotation
           may cause significant error
 Rotational temperatures (Kelvin)      0.08258     0.08256     0.08251
 Rotational constants (GHZ):           1.72064     1.72030     1.71919
 Zero-point vibrational energy      25697.6 (Joules/Mol)
                                    6.14187 (Kcal/Mol)
 Warning -- explicit consideration of   6 degrees of freedom as
           vibrations may cause significant error
 Vibrational temperatures:    313.73   315.40   458.06   460.21   464.33
          (Kelvin)            683.99  1143.78  1164.60  1177.31
 
 Zero-point correction=                           0.009788 (Hartree/Particle)
 Thermal correction to Energy=                    0.015342
 Thermal correction to Enthalpy=                  0.016287
 Thermal correction to Gibbs Free Energy=        -0.021103
 Sum of electronic and zero-point Energies=          -1878.708401
 Sum of electronic and thermal Energies=             -1878.702847
 Sum of electronic and thermal Enthalpies=           -1878.701902
 Sum of electronic and thermal Free Energies=        -1878.739292
 
                     E (Thermal)             CV                S
                      KCal/Mol        Cal/Mol-Kelvin    Cal/Mol-Kelvin
 Total                    9.627             17.711             78.694
 Electronic               0.000              0.000              0.000
 Translational            0.889              2.981             40.964
 Rotational               0.889              2.981             28.537
 Vibrational              7.850             11.749              9.193
 Vibration     1          0.646              1.814              1.975
 Vibration     2          0.647              1.812              1.966
 Vibration     3          0.705              1.638              1.318
 Vibration     4          0.706              1.636              1.311
 Vibration     5          0.708              1.630              1.296
 Vibration     6          0.832              1.305              0.723
                       Q            Log10(Q)             Ln(Q)
 Total Bot       0.509129D+10          9.706828         22.350797
 Total V=0       0.161751D+15         14.208847         32.717080
 Vib (Bot)       0.179879D-03         -3.745019         -8.623225
 Vib (Bot)    1  0.907870D+00         -0.041977         -0.096655
 Vib (Bot)    2  0.902616D+00         -0.044497         -0.102458
 Vib (Bot)    3  0.591035D+00         -0.228387         -0.525880
 Vib (Bot)    4  0.587746D+00         -0.230810         -0.531460
 Vib (Bot)    5  0.581535D+00         -0.235424         -0.542085
 Vib (Bot)    6  0.353188D+00         -0.451994         -1.040755
 Vib (V=0)       0.571479D+01          0.757000          1.743058
 Vib (V=0)    1  0.153645D+01          0.186518          0.429474
 Vib (V=0)    2  0.153185D+01          0.185216          0.426476
 Vib (V=0)    3  0.127416D+01          0.105224          0.242286
 Vib (V=0)    4  0.127165D+01          0.104368          0.240316
 Vib (V=0)    5  0.126693D+01          0.102753          0.236597
 Vib (V=0)    6  0.111216D+01          0.046168          0.106305
 Electronic      0.100000D+01          0.000000          0.000000
 Translational   0.735676D+08          7.866686         18.113715
 Rotational      0.384734D+06          5.585161         12.860307
 ***** Axes restored to original set *****
 -------------------------------------------------------------------
 Center     Atomic                   Forces (Hartrees/Bohr)
 Number     Number              X              Y              Z
 -------------------------------------------------------------------
      1        6           0.000310054    0.000771475    0.000346393
      2       17          -0.000079716   -0.000291919   -0.000078684
      3       17           0.000065500   -0.000025893   -0.000328142
      4       17          -0.000216127   -0.000256291    0.000091150
      5       17          -0.000079711   -0.000197372   -0.000030717
 -------------------------------------------------------------------
 Cartesian Forces:  Max     0.000771475 RMS     0.000281502
 FormGI is forming the generalized inverse of G from B-inverse, IUseBI=4.

 GradGradGradGradGradGradGradGradGradGradGradGradGradGradGradGradGradGrad
 Berny optimization.
 Internal  Forces:  Max     0.000369311 RMS     0.000210938
 Search for a local minimum.
 Step number   1 out of a maximum of    2
 All quantities printed in internal units (Hartrees-Bohrs-Radians)
 Second derivative matrix not updated -- analytic derivatives used.
 The second derivative matrix:
                          R1        R2        R3        R4        A1
           R1           0.20964
           R2           0.02854   0.21602
           R3           0.02870   0.02851   0.21217
           R4           0.02860   0.02837   0.02843   0.21635
           A1           0.00717   0.00727  -0.00447  -0.00943   0.03732
           A2           0.01068  -0.00302   0.01154  -0.01975  -0.01324
           A3           0.02109  -0.01680  -0.01898   0.01314  -0.02314
           A4          -0.00300   0.01026   0.01121  -0.02014  -0.01280
           A5          -0.01674   0.02063  -0.01889   0.01540  -0.02388
           A6          -0.01918  -0.01837   0.01957   0.02079   0.03573
           D1           0.01351   0.01333   0.00848  -0.03601   0.02975
           D2          -0.01144  -0.01125   0.02866  -0.00593  -0.01691
           D3           0.01423  -0.02519   0.01450  -0.00343  -0.00849
           D4           0.02567  -0.01394  -0.01416   0.00250   0.00841
                          A2        A3        A4        A5        A6
           A2           0.07510
           A3          -0.04366   0.14667
           A4           0.00313   0.03434   0.07602
           A5           0.03403  -0.06473  -0.04493   0.14877
           A6          -0.05539  -0.04935  -0.05573  -0.04934   0.17407
           D1           0.03179  -0.03411   0.03281  -0.03590  -0.02437
           D2           0.02211  -0.02183   0.02217  -0.02223   0.01668
           D3           0.03138   0.00599  -0.00927  -0.02806   0.00848
           D4           0.00927   0.02782  -0.03144  -0.00583  -0.00820
                          D1        D2        D3        D4
           D1           0.07607
           D2           0.00643   0.04769
           D3           0.00317   0.02392   0.04726
           D4          -0.00326  -0.02377   0.02333   0.04710
 ITU=  0
     Eigenvalues ---    0.07472   0.08424   0.11715   0.18257   0.19122
     Eigenvalues ---    0.24332   0.26479   0.27286   0.29937
 Angle between quadratic step and forces=  19.15 degrees.
 Linear search not attempted -- first point.
 Iteration  1 RMS(Cart)=  0.00182232 RMS(Int)=  0.00000325
 Iteration  2 RMS(Cart)=  0.00000324 RMS(Int)=  0.00000151
 Iteration  3 RMS(Cart)=  0.00000000 RMS(Int)=  0.00000151
 Variable       Old X    -DE/DX   Delta X   Delta X   Delta X     New X
                                 (Linear)    (Quad)   (Total)
    R1        3.35492  -0.00020   0.00000  -0.00208  -0.00208   3.35284
    R2        3.35375   0.00004   0.00000   0.00172   0.00172   3.35546
    R3        3.35410  -0.00008   0.00000   0.00004   0.00004   3.35414
    R4        3.35478  -0.00003   0.00000  -0.00063  -0.00063   3.35415
    A1        1.91038  -0.00016   0.00000  -0.00125  -0.00125   1.90913
    A2        1.91014   0.00019   0.00000   0.00229   0.00229   1.91242
    A3        1.91076   0.00028   0.00000   0.00226   0.00225   1.91302
    A4        1.91189  -0.00030   0.00000  -0.00301  -0.00301   1.90888
    A5        1.91065   0.00012   0.00000   0.00007   0.00007   1.91072
    A6        1.90998  -0.00013   0.00000  -0.00035  -0.00035   1.90963
    D1        2.09454  -0.00027   0.00000  -0.00197  -0.00197   2.09257
    D2       -2.09417  -0.00005   0.00000   0.00010   0.00010  -2.09407
    D3        2.09347   0.00032   0.00000   0.00396   0.00396   2.09743
    D4       -2.09555   0.00037   0.00000   0.00386   0.00386  -2.09169
         Item               Value     Threshold  Converged?
 Maximum Force            0.000369     0.000450     YES
 RMS     Force            0.000211     0.000300     YES
 Maximum Displacement     0.003226     0.001800     NO 
 RMS     Displacement     0.001822     0.001200     NO 
 Predicted change in Energy=-2.964839D-06
 GradGradGradGradGradGradGradGradGradGradGradGradGradGradGradGradGradGrad

 1\1\GINC-KATANA3\Freq\RM062X\6-31+G(d)\C1Cl4\Z5358697\13-Mar-2025\0\\#
 N Geom=AllCheck Guess=TCheck SCRF=Check GenChk RM062X/6-31+G(d) Freq\\
 carbon tetrachloride\\0,1\C,-0.0000702418,-0.000413947,-0.0001931958\C
 l,1.6106942882,0.6979361862,0.2636225877\Cl,0.1216784224,-1.77060174,-
 0.0357539189\Cl,-0.6502274239,0.581185308,-1.54594644\Cl,-1.0819750449
 ,0.4919941928,1.318370967\\Version=ES64L-G09RevD.01\State=1-A\HF=-1878
 .7181891\RMSD=7.593e-10\RMSF=2.815e-04\ZeroPoint=0.0097877\Thermal=0.0
 153424\Dipole=-0.0010387,-0.0008533,-0.0001404\DipoleDeriv=1.36633,-0.
 0002387,0.0016799,-0.0003231,1.3528974,-0.0025434,0.004108,-0.0009636,
 1.3547512,-0.6419917,-0.2181242,-0.0825653,-0.2196722,-0.2291978,-0.03
 44519,-0.0834968,-0.0350226,-0.1504085,-0.1394049,0.0425007,0.0021049,
 0.0437606,-0.7409914,-0.0126728,0.0019606,-0.0109857,-0.135044,-0.2199
 742,0.0737902,-0.1975153,0.074356,-0.2005583,0.1752653,-0.1990205,0.17
 28732,-0.599794,-0.3649592,0.102072,0.2762959,0.1018788,-0.18215,-0.12
 55972,0.2764487,-0.1259013,-0.4695047\Polar=59.2104965,-0.0129539,59.1
 678944,-0.0009957,-0.0242106,59.1802034\PG=C01 [X(C1Cl4)]\NImag=0\\0.2
 5249199,-0.00093054,0.26130240,-0.00392083,0.00180580,0.26481849,-0.10
 991622,-0.03571835,-0.01280434,0.17848170,-0.03625967,-0.04518626,-0.0
 0524357,0.06260047,0.06290121,-0.01314795,-0.00523869,-0.03264475,0.02
 335489,0.00945689,0.04053430,-0.03118800,0.00684192,0.00087780,-0.0063
 1460,-0.02626116,-0.00262292,0.03774178,0.00681085,-0.13496963,-0.0025
 1609,-0.01893144,-0.03029410,-0.00392210,-0.01188254,0.21513989,0.0009
 6852,-0.00203517,-0.03347391,-0.00251494,-0.00521148,0.00521696,-0.000
 88105,0.00388432,0.03950728,-0.04290984,0.01176343,-0.02980687,-0.0246
 8228,0.00096865,-0.02826969,0.00230261,0.00963372,-0.00714088,0.059541
 08,0.01230558,-0.04114374,0.02797936,-0.00291234,0.00632018,-0.0034391
 9,0.01227822,-0.02627940,0.02525066,-0.02106019,0.05477069,-0.03049724
 ,0.02749585,-0.10822715,-0.02224839,-0.00003643,-0.01329622,-0.0065485
 6,0.01857242,-0.00694348,0.05501492,-0.04940363,0.17133131,-0.06847794
 ,0.01804353,0.04565424,-0.03756860,-0.00104829,0.02068567,-0.00254179,
 0.01436941,0.00956835,0.00574843,-0.00061128,0.00427926,0.10283990,0.0
 1807378,-0.04000277,-0.02202549,-0.00503834,0.00625896,0.00314310,0.01
 902355,-0.02359677,-0.02188833,-0.00130561,0.00633226,0.00337179,-0.03
 075338,0.05100832,0.04659749,-0.02202779,-0.09047269,0.01421277,0.0010
 3460,0.00018971,0.00917473,-0.01601855,-0.00430685,0.01020253,-0.00038
 720,-0.04286446,-0.08018752,0.03739893,0.13745428\\-0.00031005,-0.0007
 7147,-0.00034639,0.00007972,0.00029192,0.00007868,-0.00006550,0.000025
 89,0.00032814,0.00021613,0.00025629,-0.00009115,0.00007971,0.00019737,
 0.00003072\\\@


 ... FOR AFTERWARDS A MAN FINDS PLEASURE IN HIS PAINS,
 WHEN HE HAS SUFFERED LONG AND WANDERED FAR.

                                    -- HOMER
 Job cpu time:       0 days  0 hours  0 minutes 35.3 seconds.
 File lengths (MBytes):  RWF=    132 Int=      0 D2E=      0 Chk=      3 Scr=      2
 Normal termination of Gaussian 09 at Thu Mar 13 14:57:55 2025.
