 Entering Gaussian System, Link 0=g09
 Initial command:
 /apps/z_install_tree/linux-rocky8-ivybridge/gcc-12.2.0/gaussian-09-D.01-wczn3gur5lpur3omlkzwa2l5ecyxp5ef/g09/l1.exe "/srv/scratch/z5358697/gauss/Gau-387753.inp" -scrdir="/srv/scratch/z5358697/gauss/"
 Entering Link 1 = /apps/z_install_tree/linux-rocky8-ivybridge/gcc-12.2.0/gaussian-09-D.01-wczn3gur5lpur3omlkzwa2l5ecyxp5ef/g09/l1.exe PID=    387754.
  
 Copyright (c) 1988,1990,1992,1993,1995,1998,2003,2009,2013,
            Gaussian, Inc.  All Rights Reserved.
  
 This is part of the Gaussian(R) 09 program.  It is based on
 the Gaussian(R) 03 system (copyright 2003, Gaussian, Inc.),
 the Gaussian(R) 98 system (copyright 1998, Gaussian, Inc.),
 the Gaussian(R) 94 system (copyright 1995, Gaussian, Inc.),
 the Gaussian 92(TM) system (copyright 1992, Gaussian, Inc.),
 the Gaussian 90(TM) system (copyright 1990, Gaussian, Inc.),
 the Gaussian 88(TM) system (copyright 1988, Gaussian, Inc.),
 the Gaussian 86(TM) system (copyright 1986, Carnegie Mellon
 University), and the Gaussian 82(TM) system (copyright 1983,
 Carnegie Mellon University). Gaussian is a federally registered
 trademark of Gaussian, Inc.
  
 This software contains proprietary and confidential information,
 including trade secrets, belonging to Gaussian, Inc.
  
 This software is provided under written license and may be
 used, copied, transmitted, or stored only in accord with that
 written license.
  
 The following legend is applicable only to US Government
 contracts under FAR:
  
                    RESTRICTED RIGHTS LEGEND
  
 Use, reproduction and disclosure by the US Government is
 subject to restrictions as set forth in subparagraphs (a)
 and (c) of the Commercial Computer Software - Restricted
 Rights clause in FAR 52.227-19.
  
 Gaussian, Inc.
 340 Quinnipiac St., Bldg. 40, Wallingford CT 06492
  
  
 ---------------------------------------------------------------
 Warning -- This program may not be used in any manner that
 competes with the business of Gaussian, Inc. or will provide
 assistance to any competitor of Gaussian, Inc.  The licensee
 of this program is prohibited from giving any competitor of
 Gaussian, Inc. access to this program.  By using this program,
 the user acknowledges that Gaussian, Inc. is engaged in the
 business of creating and licensing software in the field of
 computational chemistry and represents and warrants to the
 licensee that it is not a competitor of Gaussian, Inc. and that
 it will not use this program in any manner prohibited above.
 ---------------------------------------------------------------
  

 Cite this work as:
 Gaussian 09, Revision D.01,
 M. J. Frisch, G. W. Trucks, H. B. Schlegel, G. E. Scuseria, 
 M. A. Robb, J. R. Cheeseman, G. Scalmani, V. Barone, B. Mennucci, 
 G. A. Petersson, H. Nakatsuji, M. Caricato, X. Li, H. P. Hratchian, 
 A. F. Izmaylov, J. Bloino, G. Zheng, J. L. Sonnenberg, M. Hada, 
 M. Ehara, K. Toyota, R. Fukuda, J. Hasegawa, M. Ishida, T. Nakajima, 
 Y. Honda, O. Kitao, H. Nakai, T. Vreven, J. A. Montgomery, Jr., 
 J. E. Peralta, F. Ogliaro, M. Bearpark, J. J. Heyd, E. Brothers, 
 K. N. Kudin, V. N. Staroverov, T. Keith, R. Kobayashi, J. Normand, 
 K. Raghavachari, A. Rendell, J. C. Burant, S. S. Iyengar, J. Tomasi, 
 M. Cossi, N. Rega, J. M. Millam, M. Klene, J. E. Knox, J. B. Cross, 
 V. Bakken, C. Adamo, J. Jaramillo, R. Gomperts, R. E. Stratmann, 
 O. Yazyev, A. J. Austin, R. Cammi, C. Pomelli, J. W. Ochterski, 
 R. L. Martin, K. Morokuma, V. G. Zakrzewski, G. A. Voth, 
 P. Salvador, J. J. Dannenberg, S. Dapprich, A. D. Daniels, 
 O. Farkas, J. B. Foresman, J. V. Ortiz, J. Cioslowski, 
 and D. J. Fox, Gaussian, Inc., Wallingford CT, 2013.
 
 ******************************************
 Gaussian 09:  ES64L-G09RevD.01 24-Apr-2013
                13-Mar-2025 
 ******************************************
 ---------------------------------
 #m062X/6-31+G(d) OPT Freq=noraman
 ---------------------------------
 1/14=-1,18=20,19=15,26=3,38=1/1,3;
 2/9=110,12=2,17=6,18=5,40=1/2;
 3/5=1,6=6,7=11,11=2,16=1,25=1,30=1,71=1,74=-55/1,2,3;
 4//1;
 5/5=2,38=5/2;
 6/7=2,8=2,9=2,10=2,28=1/1;
 7//1,2,3,16;
 1/14=-1,18=20,19=15,26=3/3(2);
 2/9=110/2;
 99//99;
 2/9=110/2;
 3/5=1,6=6,7=11,11=2,16=1,25=1,30=1,71=1,74=-55/1,2,3;
 4/5=5,16=3,69=1/1;
 5/5=2,38=5/2;
 7//1,2,3,16;
 1/14=-1,18=20,19=15,26=3/3(-5);
 2/9=110/2;
 6/7=2,8=2,9=2,10=2,19=2,28=1/1;
 99/9=1/99;
 ------------------
 tetrafluoromethane
 ------------------
 Symbolic Z-matrix:
 Charge =  0 Multiplicity = 1
 C                     0.        0.        0. 
 F                     0.9413    0.8517    0.44 
 F                     0.4892   -1.2513    0.008 
 F                    -0.3559    0.3337   -1.2518 
 F                    -1.0746    0.0659    0.8038 
 

 GradGradGradGradGradGradGradGradGradGradGradGradGradGradGradGradGradGrad
 Berny optimization.
 Initialization pass.
                           ----------------------------
                           !    Initial Parameters    !
                           ! (Angstroms and Degrees)  !
 --------------------------                            --------------------------
 ! Name  Definition              Value          Derivative Info.                !
 --------------------------------------------------------------------------------
 ! R1    R(1,2)                  1.3435         estimate D2E/DX2                !
 ! R2    R(1,3)                  1.3436         estimate D2E/DX2                !
 ! R3    R(1,4)                  1.3435         estimate D2E/DX2                !
 ! R4    R(1,5)                  1.3436         estimate D2E/DX2                !
 ! A1    A(2,1,3)              109.4723         estimate D2E/DX2                !
 ! A2    A(2,1,4)              109.4682         estimate D2E/DX2                !
 ! A3    A(2,1,5)              109.4717         estimate D2E/DX2                !
 ! A4    A(3,1,4)              109.4708         estimate D2E/DX2                !
 ! A5    A(3,1,5)              109.4713         estimate D2E/DX2                !
 ! A6    A(4,1,5)              109.473          estimate D2E/DX2                !
 ! D1    D(2,1,4,3)            119.9993         estimate D2E/DX2                !
 ! D2    D(2,1,5,3)           -120.0017         estimate D2E/DX2                !
 ! D3    D(2,1,5,4)            119.9977         estimate D2E/DX2                !
 ! D4    D(3,1,5,4)           -120.0006         estimate D2E/DX2                !
 --------------------------------------------------------------------------------
 Trust Radius=3.00D-01 FncErr=1.00D-07 GrdErr=1.00D-06
 Number of steps in this run=     24 maximum allowed number of steps=    100.
 GradGradGradGradGradGradGradGradGradGradGradGradGradGradGradGradGradGrad

                          Input orientation:                          
 ---------------------------------------------------------------------
 Center     Atomic      Atomic             Coordinates (Angstroms)
 Number     Number       Type             X           Y           Z
 ---------------------------------------------------------------------
      1          6           0        0.000000    0.000000    0.000000
      2          9           0        0.941300    0.851700    0.440000
      3          9           0        0.489200   -1.251300    0.008000
      4          9           0       -0.355900    0.333700   -1.251800
      5          9           0       -1.074600    0.065900    0.803800
 ---------------------------------------------------------------------
                    Distance matrix (angstroms):
                    1          2          3          4          5
     1  C    0.000000
     2  F    1.343517   0.000000
     3  F    1.343552   2.193998   0.000000
     4  F    1.343512   2.193910   2.193972   0.000000
     5  F    1.343578   2.194011   2.194034   2.194023   0.000000
 Stoichiometry    CF4
 Framework group  C1[X(CF4)]
 Deg. of freedom     9
 Full point group                 C1      NOp   1
 Largest Abelian subgroup         C1      NOp   1
 Largest concise Abelian subgroup C1      NOp   1
                         Standard orientation:                         
 ---------------------------------------------------------------------
 Center     Atomic      Atomic             Coordinates (Angstroms)
 Number     Number       Type             X           Y           Z
 ---------------------------------------------------------------------
      1          6           0        0.000000    0.000000    0.000000
      2          9           0        0.432259   -0.747395   -1.029365
      3          9           0        0.303770    1.289432   -0.224099
      4          9           0        0.595559   -0.410137    1.132308
      5          9           0       -1.331588   -0.131901    0.121156
 ---------------------------------------------------------------------
 Rotational constants (GHZ):      5.5264088      5.5262992      5.5260323
 Standard basis: 6-31+G(d) (6D, 7F)
 There are    95 symmetry adapted cartesian basis functions of A   symmetry.
 There are    95 symmetry adapted basis functions of A   symmetry.
    95 basis functions,   160 primitive gaussians,    95 cartesian basis functions
    21 alpha electrons       21 beta electrons
       nuclear repulsion energy       202.2956747848 Hartrees.
 NAtoms=    5 NActive=    5 NUniq=    5 SFac= 1.00D+00 NAtFMM=   60 NAOKFM=F Big=F
 Integral buffers will be    131072 words long.
 Raffenetti 2 integral format.
 Two-electron integral symmetry is turned on.
 One-electron integrals computed using PRISM.
 NBasis=    95 RedAO= T EigKep=  1.55D-03  NBF=    95
 NBsUse=    95 1.00D-06 EigRej= -1.00D+00 NBFU=    95
 ExpMin= 4.38D-02 ExpMax= 7.00D+03 ExpMxC= 1.05D+03 IAcc=2 IRadAn=         4 AccDes= 0.00D+00
 Harris functional with IExCor= 1009 and IRadAn=       4 diagonalized for initial guess.
 HarFok:  IExCor= 1009 AccDes= 0.00D+00 IRadAn=         4 IDoV= 1 UseB2=F ITyADJ=14
 ICtDFT=  3500011 ScaDFX=  1.000000  1.000000  1.000000  1.000000
 FoFCou: FMM=F IPFlag=           0 FMFlag=      100000 FMFlg1=           0
         NFxFlg=           0 DoJE=T BraDBF=F KetDBF=T FulRan=T
         wScrn=  0.000000 ICntrl=     500 IOpCl=  0 I1Cent=   200000004 NGrid=           0
         NMat0=    1 NMatS0=      1 NMatT0=    0 NMatD0=    1 NMtDS0=    0 NMtDT0=    0
 Petite list used in FoFCou.
 Keep R1 ints in memory in canonical form, NReq=11361353.
 Requested convergence on RMS density matrix=1.00D-08 within 128 cycles.
 Requested convergence on MAX density matrix=1.00D-06.
 Requested convergence on             energy=1.00D-06.
 No special actions if energy rises.
 SCF Done:  E(RM062X) =  -437.359125454     A.U. after    9 cycles
            NFock=  9  Conv=0.45D-08     -V/T= 2.0077

 **********************************************************************

            Population analysis using the SCF density.

 **********************************************************************

 Orbital symmetries:
       Occupied  (A) (A) (A) (A) (A) (A) (A) (A) (A) (A) (A) (A)
                 (A) (A) (A) (A) (A) (A) (A) (A) (A)
       Virtual   (A) (A) (A) (A) (A) (A) (A) (A) (A) (A) (A) (A)
                 (A) (A) (A) (A) (A) (A) (A) (A) (A) (A) (A) (A)
                 (A) (A) (A) (A) (A) (A) (A) (A) (A) (A) (A) (A)
                 (A) (A) (A) (A) (A) (A) (A) (A) (A) (A) (A) (A)
                 (A) (A) (A) (A) (A) (A) (A) (A) (A) (A) (A) (A)
                 (A) (A) (A) (A) (A) (A) (A) (A) (A) (A) (A) (A)
                 (A) (A)
 The electronic state is 1-A.
 Alpha  occ. eigenvalues --  -25.34271 -25.34269 -25.34268 -25.34266 -10.92069
 Alpha  occ. eigenvalues --   -1.52904  -1.41661  -1.41661  -1.41661  -0.85524
 Alpha  occ. eigenvalues --   -0.74715  -0.74714  -0.74714  -0.61919  -0.61918
 Alpha  occ. eigenvalues --   -0.58464  -0.58463  -0.58462  -0.55010  -0.55009
 Alpha  occ. eigenvalues --   -0.55008
 Alpha virt. eigenvalues --    0.01739   0.04922   0.04924   0.04927   0.18491
 Alpha virt. eigenvalues --    0.18492   0.18494   0.20848   0.24954   0.24957
 Alpha virt. eigenvalues --    0.26241   0.26243   0.26246   0.28023   0.33375
 Alpha virt. eigenvalues --    0.33376   0.33382   0.34001   0.34002   0.34006
 Alpha virt. eigenvalues --    0.36542   0.44184   0.44193   0.44196   0.76534
 Alpha virt. eigenvalues --    0.76544   0.76548   1.15074   1.15080   1.26842
 Alpha virt. eigenvalues --    1.53525   1.53529   1.53531   1.59384   1.59388
 Alpha virt. eigenvalues --    1.63786   1.63789   1.63793   1.66623   1.68684
 Alpha virt. eigenvalues --    1.68686   1.68688   1.84581   1.84585   1.84587
 Alpha virt. eigenvalues --    1.85447   1.85450   1.85454   1.86980   1.86989
 Alpha virt. eigenvalues --    2.00650   2.00658   2.00665   2.05629   2.05637
 Alpha virt. eigenvalues --    2.05642   2.06273   2.06274   2.06278   2.35129
 Alpha virt. eigenvalues --    2.63337   2.63340   2.63344   2.80181   2.80190
 Alpha virt. eigenvalues --    3.12498   3.12505   3.12508   3.30391   4.55666
 Alpha virt. eigenvalues --    5.34827   5.34831   5.34835   6.31353
          Condensed to atoms (all electrons):
               1          2          3          4          5
     1  C    3.770808   0.249219   0.248890   0.249023   0.248891
     2  F    0.249219   9.192190  -0.044525  -0.044331  -0.044316
     3  F    0.248890  -0.044525   9.192674  -0.044421  -0.044367
     4  F    0.249023  -0.044331  -0.044421   9.192343  -0.044338
     5  F    0.248891  -0.044316  -0.044367  -0.044338   9.192536
 Mulliken charges:
               1
     1  C    1.233170
     2  F   -0.308236
     3  F   -0.308251
     4  F   -0.308277
     5  F   -0.308406
 Sum of Mulliken charges =   0.00000
 Mulliken charges with hydrogens summed into heavy atoms:
               1
     1  C    1.233170
     2  F   -0.308236
     3  F   -0.308251
     4  F   -0.308277
     5  F   -0.308406
 Electronic spatial extent (au):  <R**2>=            289.6511
 Charge=              0.0000 electrons
 Dipole moment (field-independent basis, Debye):
    X=              0.0000    Y=              0.0003    Z=             -0.0006  Tot=              0.0007
 Quadrupole moment (field-independent basis, Debye-Ang):
   XX=            -25.8204   YY=            -25.8211   ZZ=            -25.8197
   XY=             -0.0001   XZ=              0.0009   YZ=              0.0004
 Traceless Quadrupole moment (field-independent basis, Debye-Ang):
   XX=              0.0000   YY=             -0.0007   ZZ=              0.0007
   XY=             -0.0001   XZ=              0.0009   YZ=              0.0004
 Octapole moment (field-independent basis, Debye-Ang**2):
  XXX=              1.2034  YYY=             -0.9740  ZZZ=             -0.2091  XYY=             -0.4857
  XXY=              0.2349  XXZ=             -0.2374  XZZ=             -0.7160  YZZ=              0.7395
  YYZ=              0.4442  XYZ=              0.0062
 Hexadecapole moment (field-independent basis, Debye-Ang**3):
 XXXX=            -86.8480 YYYY=            -86.8853 ZZZZ=            -86.9346 XXXY=              0.0373
 XXXZ=             -0.0230 YYYX=              0.0779 YYYZ=             -0.0227 ZZZX=              0.0727
 ZZZY=              0.0390 XXYY=            -29.0879 XXZZ=            -29.0238 YYZZ=            -28.9864
 XXYZ=             -0.0140 YYXZ=             -0.0451 ZZXY=             -0.1156
 N-N= 2.022956747848D+02 E-N=-1.442973295126D+03  KE= 4.340147739331D+02
 Calling FoFJK, ICntrl=      2127 FMM=F ISym2X=0 I1Cent= 0 IOpClX= 0 NMat=1 NMatS=1 NMatT=0.
 ***** Axes restored to original set *****
 -------------------------------------------------------------------
 Center     Atomic                   Forces (Hartrees/Bohr)
 Number     Number              X              Y              Z
 -------------------------------------------------------------------
      1        6          -0.000122625    0.000034109    0.000417392
      2        9          -0.016377657   -0.014745601   -0.007804598
      3        9          -0.008422963    0.021731089   -0.000426753
      4        9           0.006104802   -0.005805033    0.021885447
      5        9           0.018818443   -0.001214563   -0.014071488
 -------------------------------------------------------------------
 Cartesian Forces:  Max     0.021885447 RMS     0.012093212

 GradGradGradGradGradGradGradGradGradGradGradGradGradGradGradGradGradGrad
 Berny optimization.
 FormGI is forming the generalized inverse of G from B-inverse, IUseBI=4.
 Internal  Forces:  Max     0.023528962 RMS     0.012517011
 Search for a local minimum.
 Step number   1 out of a maximum of   24
 All quantities printed in internal units (Hartrees-Bohrs-Radians)
 Mixed Optimization -- RFO/linear search
 Second derivative matrix not updated -- first step.
 The second derivative matrix:
                          R1        R2        R3        R4        A1
           R1           0.56424
           R2           0.00000   0.56416
           R3           0.00000   0.00000   0.56425
           R4           0.00000   0.00000   0.00000   0.56411
           A1           0.00000   0.00000   0.00000   0.00000   0.25000
           A2           0.00000   0.00000   0.00000   0.00000   0.00000
           A3           0.00000   0.00000   0.00000   0.00000   0.00000
           A4           0.00000   0.00000   0.00000   0.00000   0.00000
           A5           0.00000   0.00000   0.00000   0.00000   0.00000
           A6           0.00000   0.00000   0.00000   0.00000   0.00000
           D1           0.00000   0.00000   0.00000   0.00000   0.00000
           D2           0.00000   0.00000   0.00000   0.00000   0.00000
           D3           0.00000   0.00000   0.00000   0.00000   0.00000
           D4           0.00000   0.00000   0.00000   0.00000   0.00000
                          A2        A3        A4        A5        A6
           A2           0.25000
           A3           0.00000   0.25000
           A4           0.00000   0.00000   0.25000
           A5           0.00000   0.00000   0.00000   0.25000
           A6           0.00000   0.00000   0.00000   0.00000   0.25000
           D1           0.00000   0.00000   0.00000   0.00000   0.00000
           D2           0.00000   0.00000   0.00000   0.00000   0.00000
           D3           0.00000   0.00000   0.00000   0.00000   0.00000
           D4           0.00000   0.00000   0.00000   0.00000   0.00000
                          D1        D2        D3        D4
           D1           0.02174
           D2           0.00000   0.02173
           D3           0.00000   0.00000   0.02173
           D4           0.00000   0.00000   0.00000   0.02173
 ITU=  0
     Eigenvalues ---    0.09197   0.10113   0.14348   0.25000   0.25000
     Eigenvalues ---    0.56411   0.56416   0.56424   0.56425
 RFO step:  Lambda=-3.86190074D-03 EMin= 9.19709990D-02
 Linear search not attempted -- first point.
 Iteration  1 RMS(Cart)=  0.02204036 RMS(Int)=  0.00001043
 Iteration  2 RMS(Cart)=  0.00000846 RMS(Int)=  0.00000031
 Iteration  3 RMS(Cart)=  0.00000000 RMS(Int)=  0.00000031
 Variable       Old X    -DE/DX   Delta X   Delta X   Delta X     New X
                                 (Linear)    (Quad)   (Total)
    R1        2.53888  -0.02338   0.00000  -0.04115  -0.04115   2.49773
    R2        2.53895  -0.02331   0.00000  -0.04103  -0.04103   2.49791
    R3        2.53887  -0.02345   0.00000  -0.04128  -0.04128   2.49759
    R4        2.53899  -0.02353   0.00000  -0.04143  -0.04143   2.49757
    A1        1.91065   0.00002   0.00000   0.00040   0.00040   1.91105
    A2        1.91058  -0.00006   0.00000  -0.00054  -0.00054   1.91004
    A3        1.91064   0.00009   0.00000   0.00065   0.00065   1.91130
    A4        1.91063  -0.00012   0.00000  -0.00088  -0.00088   1.90975
    A5        1.91063   0.00014   0.00000   0.00078   0.00078   1.91141
    A6        1.91066  -0.00006   0.00000  -0.00042  -0.00042   1.91025
    D1        2.09438  -0.00009   0.00000  -0.00038  -0.00038   2.09401
    D2       -2.09443  -0.00016   0.00000  -0.00137  -0.00137  -2.09580
    D3        2.09436  -0.00006   0.00000  -0.00052  -0.00052   2.09384
    D4       -2.09440   0.00010   0.00000   0.00086   0.00086  -2.09355
         Item               Value     Threshold  Converged?
 Maximum Force            0.023529     0.000450     NO 
 RMS     Force            0.012517     0.000300     NO 
 Maximum Displacement     0.039179     0.001800     NO 
 RMS     Displacement     0.022040     0.001200     NO 
 Predicted change in Energy=-1.944086D-03
 GradGradGradGradGradGradGradGradGradGradGradGradGradGradGradGradGradGrad

                          Input orientation:                          
 ---------------------------------------------------------------------
 Center     Atomic      Atomic             Coordinates (Angstroms)
 Number     Number       Type             X           Y           Z
 ---------------------------------------------------------------------
      1          6           0       -0.000004   -0.000051    0.000470
      2          9           0        0.926130    0.838109    0.432629
      3          9           0        0.481323   -1.231120    0.007388
      4          9           0       -0.349964    0.328052   -1.231067
      5          9           0       -1.057485    0.065010    0.790581
 ---------------------------------------------------------------------
                    Distance matrix (angstroms):
                    1          2          3          4          5
     1  C    0.000000
     2  F    1.321741   0.000000
     3  F    1.321838   2.158795   0.000000
     4  F    1.321668   2.157883   2.157736   0.000000
     5  F    1.321656   2.158830   2.158999   2.157972   0.000000
 Stoichiometry    CF4
 Framework group  C1[X(CF4)]
 Deg. of freedom     9
 Full point group                 C1      NOp   1
 Largest Abelian subgroup         C1      NOp   1
 Largest concise Abelian subgroup C1      NOp   1
                         Standard orientation:                         
 ---------------------------------------------------------------------
 Center     Atomic      Atomic             Coordinates (Angstroms)
 Number     Number       Type             X           Y           Z
 ---------------------------------------------------------------------
      1          6           0       -0.000193    0.000002   -0.000468
      2          9           0        0.036331   -1.265524   -0.380084
      3          9           0        1.003116    0.656580   -0.556824
      4          9           0        0.106045    0.067773    1.315179
      5          9           0       -1.145363    0.541169   -0.377958
 ---------------------------------------------------------------------
 Rotational constants (GHZ):      5.7118644      5.7111794      5.7074549
 Standard basis: 6-31+G(d) (6D, 7F)
 There are    95 symmetry adapted cartesian basis functions of A   symmetry.
 There are    95 symmetry adapted basis functions of A   symmetry.
    95 basis functions,   160 primitive gaussians,    95 cartesian basis functions
    21 alpha electrons       21 beta electrons
       nuclear repulsion energy       205.6344247717 Hartrees.
 NAtoms=    5 NActive=    5 NUniq=    5 SFac= 1.00D+00 NAtFMM=   60 NAOKFM=F Big=F
 Integral buffers will be    131072 words long.
 Raffenetti 2 integral format.
 Two-electron integral symmetry is turned on.
 One-electron integrals computed using PRISM.
 NBasis=    95 RedAO= T EigKep=  1.41D-03  NBF=    95
 NBsUse=    95 1.00D-06 EigRej= -1.00D+00 NBFU=    95
 Initial guess from the checkpoint file:  "/srv/scratch/z5358697/gauss/Gau-387754.chk"
 B after Tr=     0.000000    0.000000    0.000000
         Rot=    0.914998    0.256359    0.142438    0.277074 Ang=  47.59 deg.
 ExpMin= 4.38D-02 ExpMax= 7.00D+03 ExpMxC= 1.05D+03 IAcc=2 IRadAn=         4 AccDes= 0.00D+00
 Harris functional with IExCor= 1009 and IRadAn=       4 diagonalized for initial guess.
 HarFok:  IExCor= 1009 AccDes= 0.00D+00 IRadAn=         4 IDoV= 1 UseB2=F ITyADJ=14
 ICtDFT=  3500011 ScaDFX=  1.000000  1.000000  1.000000  1.000000
 FoFCou: FMM=F IPFlag=           0 FMFlag=      100000 FMFlg1=           0
         NFxFlg=           0 DoJE=T BraDBF=F KetDBF=T FulRan=T
         wScrn=  0.000000 ICntrl=     500 IOpCl=  0 I1Cent=   200000004 NGrid=           0
         NMat0=    1 NMatS0=      1 NMatT0=    0 NMatD0=    1 NMtDS0=    0 NMtDT0=    0
 Petite list used in FoFCou.
 Keep R1 ints in memory in canonical form, NReq=11361353.
 Requested convergence on RMS density matrix=1.00D-08 within 128 cycles.
 Requested convergence on MAX density matrix=1.00D-06.
 Requested convergence on             energy=1.00D-06.
 No special actions if energy rises.
 SCF Done:  E(RM062X) =  -437.361034923     A.U. after    9 cycles
            NFock=  9  Conv=0.22D-08     -V/T= 2.0071
 Calling FoFJK, ICntrl=      2127 FMM=F ISym2X=0 I1Cent= 0 IOpClX= 0 NMat=1 NMatS=1 NMatT=0.
 ***** Axes restored to original set *****
 -------------------------------------------------------------------
 Center     Atomic                   Forces (Hartrees/Bohr)
 Number     Number              X              Y              Z
 -------------------------------------------------------------------
      1        6           0.000049710    0.000074238   -0.000081077
      2        9           0.000698060    0.000369255    0.000389013
      3        9           0.000314521   -0.000730377    0.000079223
      4        9          -0.000380396    0.000275313   -0.001104612
      5        9          -0.000681895    0.000011572    0.000717454
 -------------------------------------------------------------------
 Cartesian Forces:  Max     0.001104612 RMS     0.000506537

 GradGradGradGradGradGradGradGradGradGradGradGradGradGradGradGradGradGrad
 Berny optimization.
 Using GEDIIS/GDIIS optimizer.
 FormGI is forming the generalized inverse of G from B-inverse, IUseBI=4.
 Internal  Forces:  Max     0.001198360 RMS     0.000522780
 Search for a local minimum.
 Step number   2 out of a maximum of   24
 All quantities printed in internal units (Hartrees-Bohrs-Radians)
 Mixed Optimization -- En-DIIS/RFO-DIIS
 Update second derivatives using D2CorX and points    1    2
 DE= -1.91D-03 DEPred=-1.94D-03 R= 9.82D-01
 TightC=F SS=  1.41D+00  RLast= 8.25D-02 DXNew= 5.0454D-01 2.4744D-01
 Trust test= 9.82D-01 RLast= 8.25D-02 DXMaxT set to 3.00D-01
 The second derivative matrix:
                          R1        R2        R3        R4        A1
           R1           0.56971
           R2           0.00513   0.56896
           R3           0.00757   0.00722   0.57396
           R4           0.00622   0.00588   0.00834   0.57109
           A1           0.00005   0.00005   0.00004   0.00005   0.25000
           A2           0.00022   0.00021   0.00023   0.00022   0.00000
           A3           0.00008   0.00009   0.00007   0.00008   0.00000
           A4          -0.00037  -0.00037  -0.00036  -0.00037   0.00000
           A5          -0.00009  -0.00009  -0.00011  -0.00010   0.00000
           A6           0.00011   0.00011   0.00012   0.00012   0.00000
           D1           0.00049   0.00048   0.00050   0.00049   0.00000
           D2           0.00184   0.00183   0.00187   0.00186  -0.00001
           D3           0.00110   0.00109   0.00112   0.00111   0.00000
           D4          -0.00074  -0.00074  -0.00075  -0.00075   0.00000
                          A2        A3        A4        A5        A6
           A2           0.25000
           A3           0.00000   0.25000
           A4           0.00000   0.00000   0.24999
           A5           0.00000   0.00000   0.00000   0.25000
           A6           0.00000   0.00000   0.00000   0.00000   0.25000
           D1           0.00000   0.00000   0.00000   0.00000   0.00000
           D2           0.00001  -0.00001   0.00001  -0.00002   0.00001
           D3           0.00001  -0.00001   0.00001  -0.00001   0.00001
           D4          -0.00001   0.00000   0.00000   0.00001   0.00000
                          D1        D2        D3        D4
           D1           0.02175
           D2           0.00001   0.02176
           D3           0.00000   0.00002   0.02174
           D4           0.00000  -0.00001  -0.00001   0.02174
 ITU=  1  0
 Use linear search instead of GDIIS.
     Eigenvalues ---    0.09194   0.10115   0.14350   0.25000   0.25000
     Eigenvalues ---    0.56374   0.56413   0.56421   0.59166
 RFO step:  Lambda=-8.29979930D-07 EMin= 9.19449284D-02
 Quartic linear search produced a step of -0.03628.
 Iteration  1 RMS(Cart)=  0.00098856 RMS(Int)=  0.00000055
 Iteration  2 RMS(Cart)=  0.00000042 RMS(Int)=  0.00000023
 Variable       Old X    -DE/DX   Delta X   Delta X   Delta X     New X
                                 (Linear)    (Quad)   (Total)
    R1        2.49773   0.00085   0.00149  -0.00019   0.00130   2.49903
    R2        2.49791   0.00080   0.00149  -0.00028   0.00121   2.49912
    R3        2.49759   0.00120   0.00150   0.00040   0.00190   2.49949
    R4        2.49757   0.00098   0.00150   0.00001   0.00151   2.49908
    A1        1.91105  -0.00008  -0.00001  -0.00090  -0.00092   1.91014
    A2        1.91004   0.00011   0.00002   0.00089   0.00091   1.91095
    A3        1.91130  -0.00006  -0.00002  -0.00030  -0.00033   1.91097
    A4        1.90975   0.00004   0.00003   0.00030   0.00033   1.91008
    A5        1.91141  -0.00007  -0.00003  -0.00051  -0.00054   1.91087
    A6        1.91025   0.00006   0.00002   0.00053   0.00054   1.91079
    D1        2.09401   0.00000   0.00001  -0.00038  -0.00036   2.09364
    D2       -2.09580   0.00018   0.00005   0.00160   0.00165  -2.09414
    D3        2.09384   0.00013   0.00002   0.00123   0.00125   2.09509
    D4       -2.09355  -0.00004  -0.00003  -0.00037  -0.00041  -2.09395
         Item               Value     Threshold  Converged?
 Maximum Force            0.001198     0.000450     NO 
 RMS     Force            0.000523     0.000300     NO 
 Maximum Displacement     0.002493     0.001800     NO 
 RMS     Displacement     0.000989     0.001200     YES
 Predicted change in Energy=-3.509121D-06
 GradGradGradGradGradGradGradGradGradGradGradGradGradGradGradGradGradGrad

                          Input orientation:                          
 ---------------------------------------------------------------------
 Center     Atomic      Atomic             Coordinates (Angstroms)
 Number     Number       Type             X           Y           Z
 ---------------------------------------------------------------------
      1          6           0       -0.000126    0.000160    0.000147
      2          9           0        0.926738    0.838112    0.433253
      3          9           0        0.481673   -1.231408    0.007732
      4          9           0       -0.350403    0.328225   -1.232387
      5          9           0       -1.057882    0.064911    0.791255
 ---------------------------------------------------------------------
                    Distance matrix (angstroms):
                    1          2          3          4          5
     1  C    0.000000
     2  F    1.322430   0.000000
     3  F    1.322477   2.159181   0.000000
     4  F    1.322672   2.159960   2.159329   0.000000
     5  F    1.322458   2.159797   2.159764   2.159858   0.000000
 Stoichiometry    CF4
 Framework group  C1[X(CF4)]
 Deg. of freedom     9
 Full point group                 C1      NOp   1
 Largest Abelian subgroup         C1      NOp   1
 Largest concise Abelian subgroup C1      NOp   1
                         Standard orientation:                         
 ---------------------------------------------------------------------
 Center     Atomic      Atomic             Coordinates (Angstroms)
 Number     Number       Type             X           Y           Z
 ---------------------------------------------------------------------
      1          6           0       -0.000201   -0.000128    0.000125
      2          9           0        0.610133   -0.888374    0.766500
      3          9           0        0.600810    0.052868   -1.176703
      4          9           0        0.052810    1.189683    0.575452
      5          9           0       -1.263620   -0.354091   -0.165333
 ---------------------------------------------------------------------
 Rotational constants (GHZ):      5.7042822      5.7042458      5.7016825
 Standard basis: 6-31+G(d) (6D, 7F)
 There are    95 symmetry adapted cartesian basis functions of A   symmetry.
 There are    95 symmetry adapted basis functions of A   symmetry.
    95 basis functions,   160 primitive gaussians,    95 cartesian basis functions
    21 alpha electrons       21 beta electrons
       nuclear repulsion energy       205.5126235903 Hartrees.
 NAtoms=    5 NActive=    5 NUniq=    5 SFac= 1.00D+00 NAtFMM=   60 NAOKFM=F Big=F
 Integral buffers will be    131072 words long.
 Raffenetti 2 integral format.
 Two-electron integral symmetry is turned on.
 One-electron integrals computed using PRISM.
 NBasis=    95 RedAO= T EigKep=  1.42D-03  NBF=    95
 NBsUse=    95 1.00D-06 EigRej= -1.00D+00 NBFU=    95
 Initial guess from the checkpoint file:  "/srv/scratch/z5358697/gauss/Gau-387754.chk"
 B after Tr=     0.000000    0.000000    0.000000
         Rot=    0.843897    0.483095   -0.112202   -0.204617 Ang=  64.89 deg.
 Keep R1 ints in memory in canonical form, NReq=11361353.
 Requested convergence on RMS density matrix=1.00D-08 within 128 cycles.
 Requested convergence on MAX density matrix=1.00D-06.
 Requested convergence on             energy=1.00D-06.
 No special actions if energy rises.
 SCF Done:  E(RM062X) =  -437.361075518     A.U. after    8 cycles
            NFock=  8  Conv=0.22D-08     -V/T= 2.0071
 Calling FoFJK, ICntrl=      2127 FMM=F ISym2X=0 I1Cent= 0 IOpClX= 0 NMat=1 NMatS=1 NMatT=0.
 ***** Axes restored to original set *****
 -------------------------------------------------------------------
 Center     Atomic                   Forces (Hartrees/Bohr)
 Number     Number              X              Y              Z
 -------------------------------------------------------------------
      1        6           0.000195482   -0.000152694   -0.000394135
      2        9           0.000079731    0.000136709   -0.000070394
      3        9          -0.000066039   -0.000190966    0.000322330
      4        9          -0.000163597    0.000089856    0.000108819
      5        9          -0.000045578    0.000117095    0.000033380
 -------------------------------------------------------------------
 Cartesian Forces:  Max     0.000394135 RMS     0.000174199

 GradGradGradGradGradGradGradGradGradGradGradGradGradGradGradGradGradGrad
 Berny optimization.
 Using GEDIIS/GDIIS optimizer.
 FormGI is forming the generalized inverse of G from B-inverse, IUseBI=4.
 Internal  Forces:  Max     0.000283473 RMS     0.000135462
 Search for a local minimum.
 Step number   3 out of a maximum of   24
 All quantities printed in internal units (Hartrees-Bohrs-Radians)
 Mixed Optimization -- En-DIIS/RFO-DIIS
 Swapping is turned off.
 Update second derivatives using D2CorX and points    1    2    3
 DE= -4.06D-05 DEPred=-3.51D-06 R= 1.16D+01
 TightC=F SS=  1.41D+00  RLast= 4.01D-03 DXNew= 5.0454D-01 1.2035D-02
 Trust test= 1.16D+01 RLast= 4.01D-03 DXMaxT set to 3.00D-01
 The second derivative matrix:
                          R1        R2        R3        R4        A1
           R1           0.55750
           R2          -0.01079   0.55020
           R3           0.01017   0.00170   0.61305
           R4          -0.00043  -0.00610   0.02443   0.57289
           A1           0.01799   0.01731   0.02354   0.01993   0.24245
           A2          -0.01697  -0.01639  -0.02194  -0.01870   0.00746
           A3          -0.00251  -0.00159  -0.00697  -0.00414  -0.00142
           A4          -0.03829  -0.03395  -0.06287  -0.04714   0.00709
           A5           0.02612   0.02370   0.04055   0.03129  -0.00665
           A6           0.01364   0.01091   0.02766   0.01874   0.00109
           D1          -0.02202  -0.01907  -0.03827  -0.02788   0.00305
           D2           0.01137   0.00979   0.01970   0.01440  -0.00032
           D3           0.02200   0.01905   0.03805   0.02781  -0.00221
           D4           0.01064   0.00926   0.01835   0.01341  -0.00188
                          A2        A3        A4        A5        A6
           A2           0.24265
           A3           0.00130   0.25090
           A4          -0.00738   0.00547   0.25790
           A5           0.00675  -0.00329  -0.00093   0.24768
           A6          -0.00079  -0.00296  -0.01216   0.00645   0.25836
           D1          -0.00328   0.00356   0.00768  -0.00252  -0.00850
           D2           0.00048  -0.00179  -0.00576   0.00270   0.00469
           D3           0.00246  -0.00350  -0.00875   0.00339   0.00861
           D4           0.00198  -0.00170  -0.00300   0.00069   0.00391
                          D1        D2        D3        D4
           D1           0.02814
           D2          -0.00426   0.02428
           D3          -0.00694   0.00444   0.02916
           D4          -0.00269   0.00189   0.00299   0.02283
 ITU=  1  1  0
     Eigenvalues ---    0.09047   0.10855   0.12869   0.24715   0.25003
     Eigenvalues ---    0.54843   0.56413   0.56421   0.65943
 En-DIIS/RFO-DIIS IScMMF=        0 using points:     3    2
 RFO step:  Lambda=-6.19955121D-07.
 DidBck=F Rises=F RFO-DIIS coefs:    1.05848   -0.05848
 Iteration  1 RMS(Cart)=  0.00086047 RMS(Int)=  0.00000073
 Iteration  2 RMS(Cart)=  0.00000051 RMS(Int)=  0.00000042
 Variable       Old X    -DE/DX   Delta X   Delta X   Delta X     New X
                                 (Linear)    (Quad)   (Total)
    R1        2.49903   0.00012   0.00008   0.00044   0.00051   2.49954
    R2        2.49912   0.00016   0.00007   0.00049   0.00056   2.49968
    R3        2.49949  -0.00004   0.00011   0.00025   0.00036   2.49985
    R4        2.49908   0.00006   0.00009   0.00037   0.00046   2.49954
    A1        1.91014   0.00002  -0.00005   0.00026   0.00021   1.91035
    A2        1.91095   0.00001   0.00005   0.00002   0.00008   1.91103
    A3        1.91097   0.00005  -0.00002  -0.00041  -0.00043   1.91054
    A4        1.91008   0.00028   0.00002   0.00194   0.00196   1.91203
    A5        1.91087  -0.00015  -0.00003  -0.00087  -0.00090   1.90997
    A6        1.91079  -0.00020   0.00003  -0.00094  -0.00091   1.90988
    D1        2.09364   0.00020  -0.00002   0.00153   0.00151   2.09515
    D2       -2.09414   0.00004   0.00010   0.00046   0.00056  -2.09358
    D3        2.09509  -0.00008   0.00007  -0.00080  -0.00073   2.09436
    D4       -2.09395  -0.00013  -0.00002  -0.00126  -0.00129  -2.09524
         Item               Value     Threshold  Converged?
 Maximum Force            0.000283     0.000450     YES
 RMS     Force            0.000135     0.000300     YES
 Maximum Displacement     0.001690     0.001800     YES
 RMS     Displacement     0.000860     0.001200     YES
 Predicted change in Energy=-7.891432D-07
 Optimization completed.
    -- Stationary point found.
                           ----------------------------
                           !   Optimized Parameters   !
                           ! (Angstroms and Degrees)  !
 --------------------------                            --------------------------
 ! Name  Definition              Value          Derivative Info.                !
 --------------------------------------------------------------------------------
 ! R1    R(1,2)                  1.3224         -DE/DX =    0.0001              !
 ! R2    R(1,3)                  1.3225         -DE/DX =    0.0002              !
 ! R3    R(1,4)                  1.3227         -DE/DX =    0.0                 !
 ! R4    R(1,5)                  1.3225         -DE/DX =    0.0001              !
 ! A1    A(2,1,3)              109.4429         -DE/DX =    0.0                 !
 ! A2    A(2,1,4)              109.4895         -DE/DX =    0.0                 !
 ! A3    A(2,1,5)              109.4904         -DE/DX =    0.0                 !
 ! A4    A(3,1,4)              109.4392         -DE/DX =    0.0003              !
 ! A5    A(3,1,5)              109.485          -DE/DX =   -0.0002              !
 ! A6    A(4,1,5)              109.4802         -DE/DX =   -0.0002              !
 ! D1    D(2,1,4,3)            119.957          -DE/DX =    0.0002              !
 ! D2    D(2,1,5,3)           -119.9856         -DE/DX =    0.0                 !
 ! D3    D(2,1,5,4)            120.0397         -DE/DX =   -0.0001              !
 ! D4    D(3,1,5,4)           -119.9748         -DE/DX =   -0.0001              !
 --------------------------------------------------------------------------------
 GradGradGradGradGradGradGradGradGradGradGradGradGradGradGradGradGradGrad

                          Input orientation:                          
 ---------------------------------------------------------------------
 Center     Atomic      Atomic             Coordinates (Angstroms)
 Number     Number       Type             X           Y           Z
 ---------------------------------------------------------------------
      1          6           0       -0.000126    0.000160    0.000147
      2          9           0        0.926738    0.838112    0.433253
      3          9           0        0.481673   -1.231408    0.007732
      4          9           0       -0.350403    0.328225   -1.232387
      5          9           0       -1.057882    0.064911    0.791255
 ---------------------------------------------------------------------
                    Distance matrix (angstroms):
                    1          2          3          4          5
     1  C    0.000000
     2  F    1.322430   0.000000
     3  F    1.322477   2.159181   0.000000
     4  F    1.322672   2.159960   2.159329   0.000000
     5  F    1.322458   2.159797   2.159764   2.159858   0.000000
 Stoichiometry    CF4
 Framework group  C1[X(CF4)]
 Deg. of freedom     9
 Full point group                 C1      NOp   1
 Largest Abelian subgroup         C1      NOp   1
 Largest concise Abelian subgroup C1      NOp   1
                         Standard orientation:                         
 ---------------------------------------------------------------------
 Center     Atomic      Atomic             Coordinates (Angstroms)
 Number     Number       Type             X           Y           Z
 ---------------------------------------------------------------------
      1          6           0       -0.000201   -0.000128    0.000125
      2          9           0        0.610133   -0.888374    0.766500
      3          9           0        0.600810    0.052868   -1.176703
      4          9           0        0.052810    1.189683    0.575452
      5          9           0       -1.263620   -0.354091   -0.165333
 ---------------------------------------------------------------------
 Rotational constants (GHZ):      5.7042822      5.7042458      5.7016825

 **********************************************************************

            Population analysis using the SCF density.

 **********************************************************************

 Orbital symmetries:
       Occupied  (A) (A) (A) (A) (A) (A) (A) (A) (A) (A) (A) (A)
                 (A) (A) (A) (A) (A) (A) (A) (A) (A)
       Virtual   (A) (A) (A) (A) (A) (A) (A) (A) (A) (A) (A) (A)
                 (A) (A) (A) (A) (A) (A) (A) (A) (A) (A) (A) (A)
                 (A) (A) (A) (A) (A) (A) (A) (A) (A) (A) (A) (A)
                 (A) (A) (A) (A) (A) (A) (A) (A) (A) (A) (A) (A)
                 (A) (A) (A) (A) (A) (A) (A) (A) (A) (A) (A) (A)
                 (A) (A) (A) (A) (A) (A) (A) (A) (A) (A) (A) (A)
                 (A) (A)
 The electronic state is 1-A.
 Alpha  occ. eigenvalues --  -25.33994 -25.33994 -25.33992 -25.33989 -10.91300
 Alpha  occ. eigenvalues --   -1.54285  -1.42212  -1.42206  -1.42198  -0.85547
 Alpha  occ. eigenvalues --   -0.75395  -0.75393  -0.75390  -0.62255  -0.62250
 Alpha  occ. eigenvalues --   -0.58613  -0.58610  -0.58606  -0.54846  -0.54842
 Alpha  occ. eigenvalues --   -0.54839
 Alpha virt. eigenvalues --    0.01842   0.04944   0.04947   0.04947   0.19607
 Alpha virt. eigenvalues --    0.19617   0.19621   0.23730   0.24993   0.25005
 Alpha virt. eigenvalues --    0.27515   0.27532   0.27541   0.28178   0.33473
 Alpha virt. eigenvalues --    0.33476   0.33477   0.34041   0.34048   0.34050
 Alpha virt. eigenvalues --    0.37617   0.44335   0.44352   0.44361   0.76753
 Alpha virt. eigenvalues --    0.76771   0.76808   1.15752   1.15762   1.25828
 Alpha virt. eigenvalues --    1.52937   1.52942   1.52961   1.59033   1.59038
 Alpha virt. eigenvalues --    1.64121   1.64131   1.64134   1.65790   1.68352
 Alpha virt. eigenvalues --    1.68356   1.68362   1.84877   1.84889   1.84898
 Alpha virt. eigenvalues --    1.85425   1.85429   1.85443   1.87422   1.87438
 Alpha virt. eigenvalues --    2.03142   2.03150   2.03179   2.08022   2.08029
 Alpha virt. eigenvalues --    2.08057   2.08788   2.08816   2.08851   2.38583
 Alpha virt. eigenvalues --    2.66840   2.66896   2.66962   2.83589   2.83599
 Alpha virt. eigenvalues --    3.15221   3.15224   3.15274   3.35279   4.56749
 Alpha virt. eigenvalues --    5.39684   5.39704   5.39713   6.40862
          Condensed to atoms (all electrons):
               1          2          3          4          5
     1  C    3.750635   0.251698   0.251481   0.251106   0.251569
     2  F    0.251698   9.199268  -0.046798  -0.046785  -0.046694
     3  F    0.251481  -0.046798   9.199881  -0.046780  -0.046726
     4  F    0.251106  -0.046785  -0.046780   9.200328  -0.046830
     5  F    0.251569  -0.046694  -0.046726  -0.046830   9.199403
 Mulliken charges:
               1
     1  C    1.243510
     2  F   -0.310689
     3  F   -0.311060
     4  F   -0.311039
     5  F   -0.310723
 Sum of Mulliken charges =   0.00000
 Mulliken charges with hydrogens summed into heavy atoms:
               1
     1  C    1.243510
     2  F   -0.310689
     3  F   -0.311060
     4  F   -0.311039
     5  F   -0.310723
 Electronic spatial extent (au):  <R**2>=            282.2100
 Charge=              0.0000 electrons
 Dipole moment (field-independent basis, Debye):
    X=             -0.0006    Y=             -0.0009    Z=              0.0008  Tot=              0.0014
 Quadrupole moment (field-independent basis, Debye-Ang):
   XX=            -25.7149   YY=            -25.7165   ZZ=            -25.7166
   XY=              0.0005   XZ=              0.0004   YZ=             -0.0015
 Traceless Quadrupole moment (field-independent basis, Debye-Ang):
   XX=              0.0011   YY=             -0.0005   ZZ=             -0.0006
   XY=              0.0005   XZ=              0.0004   YZ=             -0.0015
 Octapole moment (field-independent basis, Debye-Ang**2):
  XXX=              0.9844  YYY=             -0.5878  ZZZ=              0.6215  XYY=             -0.2486
  XXY=              0.5452  XXZ=              0.2504  XZZ=             -0.7319  YZZ=              0.0407
  YYZ=             -0.8718  XYZ=              0.3060
 Hexadecapole moment (field-independent basis, Debye-Ang**3):
 XXXX=            -84.5837 YYYY=            -84.6149 ZZZZ=            -84.6016 XXXY=              0.0788
 XXXZ=              0.0391 YYYX=             -0.0418 YYYZ=              0.0632 ZZZX=             -0.1044
 ZZZY=             -0.0423 XXYY=            -28.2614 XXZZ=            -28.2120 YYZZ=            -28.1872
 XXYZ=             -0.0285 YYXZ=              0.0663 ZZXY=             -0.0359
 N-N= 2.055126235903D+02 E-N=-1.449558253492D+03  KE= 4.342589522513D+02
 1\1\GINC-KATANA1\FOpt\RM062X\6-31+G(d)\C1F4\Z5358697\13-Mar-2025\0\\#m
 062X/6-31+G(d) OPT Freq=noraman\\tetrafluoromethane\\0,1\C,-0.00012564
 67,0.0001596637,0.0001468328\F,0.9267379427,0.8381118784,0.4332525527\
 F,0.4816732589,-1.2314077112,0.0077323732\F,-0.3504033315,0.328224696,
 -1.2323868031\F,-1.0578822235,0.0649114731,0.7912550444\\Version=ES64L
 -G09RevD.01\State=1-A\HF=-437.3610755\RMSD=2.212e-09\RMSF=1.742e-04\Di
 pole=-0.0000782,0.0004173,0.000326\Quadrupole=0.0004652,-0.0000566,-0.
 0004086,0.0004825,-0.0007618,0.0009867\PG=C01 [X(C1F4)]\\@


 FAULTILY FAULTLESS, ICILY REGULAR, SPLENDIDLY NULL...
           MAUDE BY TENNYSON
 Job cpu time:       0 days  0 hours  0 minutes 17.1 seconds.
 File lengths (MBytes):  RWF=    132 Int=      0 D2E=      0 Chk=      2 Scr=      2
 Normal termination of Gaussian 09 at Thu Mar 13 15:33:11 2025.
 Link1:  Proceeding to internal job step number  2.
 ---------------------------------------------------------------------
 #N Geom=AllCheck Guess=TCheck SCRF=Check GenChk RM062X/6-31+G(d) Freq
 ---------------------------------------------------------------------
 1/10=4,29=7,30=1,38=1,40=1/1,3;
 2/12=2,40=1/2;
 3/5=1,6=6,7=11,11=2,14=-4,16=1,25=1,30=1,70=2,71=2,74=-55,116=1,140=1/1,2,3;
 4/5=101/1;
 5/5=2,98=1/2;
 8/6=4,10=90,11=11/1;
 11/6=1,8=1,9=11,15=111,16=1/1,2,10;
 10/6=1/2;
 6/7=2,8=2,9=2,10=2,18=1,28=1/1;
 7/8=1,10=1,25=1/1,2,3,16;
 1/10=4,30=1/3;
 99//99;
 Structure from the checkpoint file:  "/srv/scratch/z5358697/gauss/Gau-387754.chk"
 ------------------
 tetrafluoromethane
 ------------------
 Charge =  0 Multiplicity = 1
 Redundant internal coordinates found in file.
 C,0,-0.0001256467,0.0001596637,0.0001468328
 F,0,0.9267379427,0.8381118784,0.4332525527
 F,0,0.4816732589,-1.2314077112,0.0077323732
 F,0,-0.3504033315,0.328224696,-1.2323868031
 F,0,-1.0578822235,0.0649114731,0.7912550444
 Recover connectivity data from disk.

 GradGradGradGradGradGradGradGradGradGradGradGradGradGradGradGradGradGrad
 Berny optimization.
 Initialization pass.
                           ----------------------------
                           !    Initial Parameters    !
                           ! (Angstroms and Degrees)  !
 --------------------------                            --------------------------
 ! Name  Definition              Value          Derivative Info.                !
 --------------------------------------------------------------------------------
 ! R1    R(1,2)                  1.3224         calculate D2E/DX2 analytically  !
 ! R2    R(1,3)                  1.3225         calculate D2E/DX2 analytically  !
 ! R3    R(1,4)                  1.3227         calculate D2E/DX2 analytically  !
 ! R4    R(1,5)                  1.3225         calculate D2E/DX2 analytically  !
 ! A1    A(2,1,3)              109.4429         calculate D2E/DX2 analytically  !
 ! A2    A(2,1,4)              109.4895         calculate D2E/DX2 analytically  !
 ! A3    A(2,1,5)              109.4904         calculate D2E/DX2 analytically  !
 ! A4    A(3,1,4)              109.4392         calculate D2E/DX2 analytically  !
 ! A5    A(3,1,5)              109.485          calculate D2E/DX2 analytically  !
 ! A6    A(4,1,5)              109.4802         calculate D2E/DX2 analytically  !
 ! D1    D(2,1,4,3)            119.957          calculate D2E/DX2 analytically  !
 ! D2    D(2,1,5,3)           -119.9856         calculate D2E/DX2 analytically  !
 ! D3    D(2,1,5,4)            120.0397         calculate D2E/DX2 analytically  !
 ! D4    D(3,1,5,4)           -119.9748         calculate D2E/DX2 analytically  !
 --------------------------------------------------------------------------------
 Trust Radius=3.00D-01 FncErr=1.00D-07 GrdErr=1.00D-07
 Number of steps in this run=      2 maximum allowed number of steps=      2.
 GradGradGradGradGradGradGradGradGradGradGradGradGradGradGradGradGradGrad

                          Input orientation:                          
 ---------------------------------------------------------------------
 Center     Atomic      Atomic             Coordinates (Angstroms)
 Number     Number       Type             X           Y           Z
 ---------------------------------------------------------------------
      1          6           0       -0.000126    0.000160    0.000147
      2          9           0        0.926738    0.838112    0.433253
      3          9           0        0.481673   -1.231408    0.007732
      4          9           0       -0.350403    0.328225   -1.232387
      5          9           0       -1.057882    0.064911    0.791255
 ---------------------------------------------------------------------
                    Distance matrix (angstroms):
                    1          2          3          4          5
     1  C    0.000000
     2  F    1.322430   0.000000
     3  F    1.322477   2.159181   0.000000
     4  F    1.322672   2.159960   2.159329   0.000000
     5  F    1.322458   2.159797   2.159764   2.159858   0.000000
 Stoichiometry    CF4
 Framework group  C1[X(CF4)]
 Deg. of freedom     9
 Full point group                 C1      NOp   1
 Largest Abelian subgroup         C1      NOp   1
 Largest concise Abelian subgroup C1      NOp   1
                         Standard orientation:                         
 ---------------------------------------------------------------------
 Center     Atomic      Atomic             Coordinates (Angstroms)
 Number     Number       Type             X           Y           Z
 ---------------------------------------------------------------------
      1          6           0       -0.000201   -0.000128    0.000125
      2          9           0        0.610133   -0.888374    0.766500
      3          9           0        0.600810    0.052868   -1.176703
      4          9           0        0.052810    1.189683    0.575452
      5          9           0       -1.263620   -0.354091   -0.165333
 ---------------------------------------------------------------------
 Rotational constants (GHZ):      5.7042822      5.7042458      5.7016825
 Standard basis: 6-31+G(d) (6D, 7F)
 There are    95 symmetry adapted cartesian basis functions of A   symmetry.
 There are    95 symmetry adapted basis functions of A   symmetry.
    95 basis functions,   160 primitive gaussians,    95 cartesian basis functions
    21 alpha electrons       21 beta electrons
       nuclear repulsion energy       205.5126235903 Hartrees.
 NAtoms=    5 NActive=    5 NUniq=    5 SFac= 1.00D+00 NAtFMM=   60 NAOKFM=F Big=F
 Integral buffers will be    131072 words long.
 Raffenetti 2 integral format.
 Two-electron integral symmetry is turned on.
 One-electron integrals computed using PRISM.
 NBasis=    95 RedAO= T EigKep=  1.42D-03  NBF=    95
 NBsUse=    95 1.00D-06 EigRej= -1.00D+00 NBFU=    95
 Initial guess from the checkpoint file:  "/srv/scratch/z5358697/gauss/Gau-387754.chk"
 B after Tr=     0.000000    0.000000    0.000000
         Rot=    1.000000    0.000000    0.000000    0.000000 Ang=   0.00 deg.
 Keep R1 ints in memory in canonical form, NReq=11361353.
 Requested convergence on RMS density matrix=1.00D-08 within 128 cycles.
 Requested convergence on MAX density matrix=1.00D-06.
 Requested convergence on             energy=1.00D-06.
 No special actions if energy rises.
 SCF Done:  E(RM062X) =  -437.361075518     A.U. after    1 cycles
            NFock=  1  Conv=0.30D-09     -V/T= 2.0071
 DoSCS=F DFT=T ScalE2(SS,OS)=  1.000000  1.000000
 Range of M.O.s used for correlation:     1    95
 NBasis=    95 NAE=    21 NBE=    21 NFC=     0 NFV=     0
 NROrb=     95 NOA=    21 NOB=    21 NVA=    74 NVB=    74

 **** Warning!!: The largest alpha MO coefficient is  0.11701915D+02

 Symmetrizing basis deriv contribution to polar:
 IMax=3 JMax=2 DiffMx= 0.00D+00
 G2DrvN: will do     6 centers at a time, making    1 passes.
 Calling FoFCou, ICntrl=  3107 FMM=F I1Cent=   0 AccDes= 0.00D+00.
 End of G2Drv F.D. properties file   721 does not exist.
 End of G2Drv F.D. properties file   722 does not exist.
 End of G2Drv F.D. properties file   788 does not exist.
          IDoAtm=11111
          Differentiating once with respect to electric field.
                with respect to dipole field.
          Differentiating once with respect to nuclear coordinates.
 Keep R1 ints in memory in canonical form, NReq=11314868.
          There are    18 degrees of freedom in the 1st order CPHF.  IDoFFX=6 NUNeed=     3.
     15 vectors produced by pass  0 Test12= 8.63D-15 5.56D-09 XBig12= 4.47D+00 6.13D-01.
 AX will form    15 AO Fock derivatives at one time.
     15 vectors produced by pass  1 Test12= 8.63D-15 5.56D-09 XBig12= 5.95D-01 1.93D-01.
     15 vectors produced by pass  2 Test12= 8.63D-15 5.56D-09 XBig12= 1.48D-02 3.29D-02.
     15 vectors produced by pass  3 Test12= 8.63D-15 5.56D-09 XBig12= 1.58D-04 3.33D-03.
     15 vectors produced by pass  4 Test12= 8.63D-15 5.56D-09 XBig12= 1.40D-06 2.44D-04.
     15 vectors produced by pass  5 Test12= 8.63D-15 5.56D-09 XBig12= 6.54D-09 1.44D-05.
     15 vectors produced by pass  6 Test12= 8.63D-15 5.56D-09 XBig12= 1.70D-11 1.02D-06.
      3 vectors produced by pass  7 Test12= 8.63D-15 5.56D-09 XBig12= 5.16D-14 3.77D-08.
 InvSVY:  IOpt=1 It=  1 EMax= 1.55D-15
 Solved reduced A of dimension   108 with    15 vectors.
 Isotropic polarizability for W=    0.000000       16.62 Bohr**3.
 End of Minotr F.D. properties file   721 does not exist.
 End of Minotr F.D. properties file   722 does not exist.
 End of Minotr F.D. properties file   788 does not exist.

 **********************************************************************

            Population analysis using the SCF density.

 **********************************************************************

 Orbital symmetries:
       Occupied  (A) (A) (A) (A) (A) (A) (A) (A) (A) (A) (A) (A)
                 (A) (A) (A) (A) (A) (A) (A) (A) (A)
       Virtual   (A) (A) (A) (A) (A) (A) (A) (A) (A) (A) (A) (A)
                 (A) (A) (A) (A) (A) (A) (A) (A) (A) (A) (A) (A)
                 (A) (A) (A) (A) (A) (A) (A) (A) (A) (A) (A) (A)
                 (A) (A) (A) (A) (A) (A) (A) (A) (A) (A) (A) (A)
                 (A) (A) (A) (A) (A) (A) (A) (A) (A) (A) (A) (A)
                 (A) (A) (A) (A) (A) (A) (A) (A) (A) (A) (A) (A)
                 (A) (A)
 The electronic state is 1-A.
 Alpha  occ. eigenvalues --  -25.33994 -25.33994 -25.33992 -25.33989 -10.91300
 Alpha  occ. eigenvalues --   -1.54285  -1.42212  -1.42206  -1.42198  -0.85547
 Alpha  occ. eigenvalues --   -0.75395  -0.75393  -0.75390  -0.62255  -0.62250
 Alpha  occ. eigenvalues --   -0.58613  -0.58610  -0.58606  -0.54846  -0.54842
 Alpha  occ. eigenvalues --   -0.54839
 Alpha virt. eigenvalues --    0.01842   0.04944   0.04947   0.04947   0.19607
 Alpha virt. eigenvalues --    0.19617   0.19621   0.23730   0.24993   0.25005
 Alpha virt. eigenvalues --    0.27515   0.27532   0.27541   0.28178   0.33473
 Alpha virt. eigenvalues --    0.33476   0.33477   0.34041   0.34048   0.34050
 Alpha virt. eigenvalues --    0.37617   0.44335   0.44352   0.44361   0.76753
 Alpha virt. eigenvalues --    0.76771   0.76808   1.15752   1.15762   1.25828
 Alpha virt. eigenvalues --    1.52937   1.52942   1.52961   1.59033   1.59038
 Alpha virt. eigenvalues --    1.64121   1.64131   1.64134   1.65790   1.68352
 Alpha virt. eigenvalues --    1.68356   1.68362   1.84877   1.84889   1.84898
 Alpha virt. eigenvalues --    1.85425   1.85429   1.85443   1.87422   1.87438
 Alpha virt. eigenvalues --    2.03142   2.03150   2.03179   2.08022   2.08029
 Alpha virt. eigenvalues --    2.08057   2.08788   2.08816   2.08851   2.38583
 Alpha virt. eigenvalues --    2.66840   2.66896   2.66962   2.83589   2.83599
 Alpha virt. eigenvalues --    3.15221   3.15224   3.15274   3.35279   4.56749
 Alpha virt. eigenvalues --    5.39684   5.39704   5.39713   6.40862
          Condensed to atoms (all electrons):
               1          2          3          4          5
     1  C    3.750635   0.251698   0.251481   0.251106   0.251569
     2  F    0.251698   9.199268  -0.046798  -0.046785  -0.046694
     3  F    0.251481  -0.046798   9.199881  -0.046780  -0.046726
     4  F    0.251106  -0.046785  -0.046780   9.200328  -0.046830
     5  F    0.251569  -0.046694  -0.046726  -0.046830   9.199403
 Mulliken charges:
               1
     1  C    1.243510
     2  F   -0.310689
     3  F   -0.311060
     4  F   -0.311039
     5  F   -0.310723
 Sum of Mulliken charges =   0.00000
 Mulliken charges with hydrogens summed into heavy atoms:
               1
     1  C    1.243510
     2  F   -0.310689
     3  F   -0.311060
     4  F   -0.311039
     5  F   -0.310723
 APT charges:
               1
     1  C    2.132049
     2  F   -0.533524
     3  F   -0.532075
     4  F   -0.532041
     5  F   -0.534408
 Sum of APT charges =   0.00000
 APT charges with hydrogens summed into heavy atoms:
               1
     1  C    2.132049
     2  F   -0.533524
     3  F   -0.532075
     4  F   -0.532041
     5  F   -0.534408
 Electronic spatial extent (au):  <R**2>=            282.2100
 Charge=              0.0000 electrons
 Dipole moment (field-independent basis, Debye):
    X=             -0.0006    Y=             -0.0009    Z=              0.0008  Tot=              0.0014
 Quadrupole moment (field-independent basis, Debye-Ang):
   XX=            -25.7149   YY=            -25.7165   ZZ=            -25.7166
   XY=              0.0005   XZ=              0.0004   YZ=             -0.0015
 Traceless Quadrupole moment (field-independent basis, Debye-Ang):
   XX=              0.0011   YY=             -0.0005   ZZ=             -0.0006
   XY=              0.0005   XZ=              0.0004   YZ=             -0.0015
 Octapole moment (field-independent basis, Debye-Ang**2):
  XXX=              0.9844  YYY=             -0.5878  ZZZ=              0.6215  XYY=             -0.2486
  XXY=              0.5452  XXZ=              0.2504  XZZ=             -0.7319  YZZ=              0.0407
  YYZ=             -0.8718  XYZ=              0.3060
 Hexadecapole moment (field-independent basis, Debye-Ang**3):
 XXXX=            -84.5837 YYYY=            -84.6149 ZZZZ=            -84.6016 XXXY=              0.0788
 XXXZ=              0.0391 YYYX=             -0.0418 YYYZ=              0.0632 ZZZX=             -0.1044
 ZZZY=             -0.0423 XXYY=            -28.2614 XXZZ=            -28.2120 YYZZ=            -28.1872
 XXYZ=             -0.0285 YYXZ=              0.0663 ZZXY=             -0.0359
 N-N= 2.055126235903D+02 E-N=-1.449558253352D+03  KE= 4.342589521542D+02
  Exact polarizability:  16.618  -0.001  16.612   0.002   0.008  16.626
 Approx polarizability:  18.128   0.000  18.127   0.001   0.000  18.120
 Calling FoFJK, ICntrl=    100127 FMM=F ISym2X=0 I1Cent= 0 IOpClX= 0 NMat=1 NMatS=1 NMatT=0.
 Full mass-weighted force constant matrix:
 Low frequencies ---   -0.0011    0.0011    0.0019   17.0772   37.8987   52.2034
 Low frequencies ---  435.6290  436.7050  630.8906
 Diagonal vibrational polarizability:
        7.0428527       7.0540672       7.0130850
 Harmonic frequencies (cm**-1), IR intensities (KM/Mole), Raman scattering
 activities (A**4/AMU), depolarization ratios for plane and unpolarized
 incident light, reduced masses (AMU), force constants (mDyne/A),
 and normal coordinates:
                      1                      2                      3
                      A                      A                      A
 Frequencies --    435.6248               436.6983               630.8901
 Red. masses --     18.9984                18.9984                18.1039
 Frc consts  --      2.1242                 2.1347                 4.2455
 IR Inten    --      0.0004                 0.0004                 6.6726
  Atom  AN      X      Y      Z        X      Y      Z        X      Y      Z
     1   6     0.00   0.00   0.00     0.00   0.00   0.00    -0.07  -0.25  -0.24
     2   9     0.04   0.34   0.36     0.44   0.15  -0.18     0.07   0.28   0.26
     3   9    -0.44  -0.07  -0.23     0.07  -0.50   0.01     0.29   0.29  -0.16
     4   9     0.31  -0.18   0.35    -0.39  -0.12   0.29     0.04  -0.56  -0.14
     5   9     0.09  -0.10  -0.48    -0.12   0.47  -0.11    -0.36   0.15   0.20
                      4                      5                      6
                      A                      A                      A
 Frequencies --    632.0747               632.5793               937.3981
 Red. masses --     18.1043                18.1138                18.9984
 Frc consts  --      4.2616                 4.2706                 9.8359
 IR Inten    --      6.6071                 6.3793                 0.0011
  Atom  AN      X      Y      Z        X      Y      Z        X      Y      Z
     1   6    -0.35   0.01   0.09     0.05  -0.25   0.25     0.00   0.00   0.00
     2   9     0.23   0.20  -0.28     0.37  -0.35   0.27     0.23  -0.34   0.29
     3   9     0.08  -0.04   0.48    -0.32   0.25   0.24     0.23   0.02  -0.45
     4   9     0.37   0.08  -0.05    -0.07  -0.02  -0.40     0.02   0.45   0.22
     5   9    -0.46  -0.25  -0.20    -0.02   0.28  -0.26    -0.48  -0.13  -0.06
                      7                      8                      9
                      A                      A                      A
 Frequencies --   1334.9609              1336.4735              1339.0014
 Red. masses --     13.0657                13.0614                13.0594
 Frc consts  --     13.7190                13.7455                13.7955
 IR Inten    --    438.5683               437.1530               438.0910
  Atom  AN      X      Y      Z        X      Y      Z        X      Y      Z
     1   6     0.52   0.76   0.04     0.65  -0.42  -0.51     0.40  -0.31   0.77
     2   9     0.00  -0.09   0.04    -0.08   0.08  -0.02    -0.14   0.19  -0.19
     3   9    -0.06  -0.05   0.06    -0.14   0.02   0.22     0.05   0.02  -0.18
     4   9    -0.04  -0.24  -0.10    -0.03   0.18   0.10    -0.02   0.00  -0.05
     5   9    -0.23  -0.10  -0.03    -0.16  -0.01   0.01    -0.14  -0.01  -0.06

 -------------------
 - Thermochemistry -
 -------------------
 Temperature   298.150 Kelvin.  Pressure   1.00000 Atm.
 Atom     1 has atomic number  6 and mass  12.00000
 Atom     2 has atomic number  9 and mass  18.99840
 Atom     3 has atomic number  9 and mass  18.99840
 Atom     4 has atomic number  9 and mass  18.99840
 Atom     5 has atomic number  9 and mass  18.99840
 Molecular mass:    87.99361 amu.
 Principal axes and moments of inertia in atomic units:
                           1         2         3
     Eigenvalues --   316.38358 316.38560 316.52784
           X            1.00000   0.00003   0.00000
           Y           -0.00003   1.00000   0.00000
           Z            0.00000   0.00000   1.00000
 This molecule is an asymmetric top.
 Rotational symmetry number  1.
 Rotational temperatures (Kelvin)      0.27376     0.27376     0.27364
 Rotational constants (GHZ):           5.70428     5.70425     5.70168
 Zero-point vibrational energy      46150.1 (Joules/Mol)
                                   11.03015 (Kcal/Mol)
 Warning -- explicit consideration of   2 degrees of freedom as
           vibrations may cause significant error
 Vibrational temperatures:    626.77   628.31   907.71   909.41   910.14
          (Kelvin)           1348.71  1920.71  1922.88  1926.52
 
 Zero-point correction=                           0.017578 (Hartree/Particle)
 Thermal correction to Energy=                    0.021467
 Thermal correction to Enthalpy=                  0.022412
 Thermal correction to Gibbs Free Energy=        -0.009595
 Sum of electronic and zero-point Energies=           -437.343498
 Sum of electronic and thermal Energies=              -437.339608
 Sum of electronic and thermal Enthalpies=            -437.338664
 Sum of electronic and thermal Free Energies=         -437.370670
 
                     E (Thermal)             CV                S
                      KCal/Mol        Cal/Mol-Kelvin    Cal/Mol-Kelvin
 Total                   13.471             12.484             67.363
 Electronic               0.000              0.000              0.000
 Translational            0.889              2.981             39.337
 Rotational               0.889              2.981             24.964
 Vibrational             11.694              6.522              3.062
 Vibration     1          0.796              1.393              0.840
 Vibration     2          0.797              1.390              0.837
                       Q            Log10(Q)             Ln(Q)
 Total Bot       0.258945D+05          4.413208         10.161787
 Total V=0       0.315031D+13         12.498354         28.778523
 Vib (Bot)       0.125259D-07         -7.902192        -18.195469
 Vib (Bot)    1  0.398213D+00         -0.399884         -0.920768
 Vib (Bot)    2  0.396898D+00         -0.401321         -0.924077
 Vib (V=0)       0.152389D+01          0.182954          0.421267
 Vib (V=0)    1  0.113920D+01          0.056599          0.130324
 Vib (V=0)    2  0.113838D+01          0.056287          0.129605
 Electronic      0.100000D+01          0.000000          0.000000
 Translational   0.324438D+08          7.511132         17.295020
 Rotational      0.637188D+05          4.804268         11.062235
 ***** Axes restored to original set *****
 -------------------------------------------------------------------
 Center     Atomic                   Forces (Hartrees/Bohr)
 Number     Number              X              Y              Z
 -------------------------------------------------------------------
      1        6           0.000195484   -0.000152694   -0.000394134
      2        9           0.000079730    0.000136708   -0.000070392
      3        9          -0.000066040   -0.000190964    0.000322331
      4        9          -0.000163598    0.000089856    0.000108814
      5        9          -0.000045576    0.000117094    0.000033380
 -------------------------------------------------------------------
 Cartesian Forces:  Max     0.000394134 RMS     0.000174199
 FormGI is forming the generalized inverse of G from B-inverse, IUseBI=4.

 GradGradGradGradGradGradGradGradGradGradGradGradGradGradGradGradGradGrad
 Berny optimization.
 Internal  Forces:  Max     0.000283473 RMS     0.000135462
 Search for a local minimum.
 Step number   1 out of a maximum of    2
 All quantities printed in internal units (Hartrees-Bohrs-Radians)
 Second derivative matrix not updated -- analytic derivatives used.
 The second derivative matrix:
                          R1        R2        R3        R4        A1
           R1           0.46850
           R2           0.05466   0.46759
           R3           0.05470   0.05464   0.46744
           R4           0.05430   0.05471   0.05444   0.46864
           A1           0.00975   0.00961  -0.00601  -0.01284   0.04627
           A2           0.01454  -0.00375   0.01681  -0.02763  -0.01502
           A3           0.02880  -0.02320  -0.02565   0.02007  -0.02859
           A4          -0.00379   0.01504   0.01679  -0.02750  -0.01513
           A5          -0.02333   0.02823  -0.02551   0.01964  -0.02845
           A6          -0.02598  -0.02590   0.02358   0.02823   0.04091
           D1           0.01851   0.01867   0.01319  -0.04943   0.03821
           D2          -0.01530  -0.01486   0.03871  -0.00860  -0.02173
           D3           0.01954  -0.03471   0.01933  -0.00423  -0.01084
           D4           0.03484  -0.01985  -0.01938   0.00437   0.01090
                          A2        A3        A4        A5        A6
           A2           0.09256
           A3          -0.05314   0.18128
           A4           0.00502   0.03863   0.09250
           A5           0.03835  -0.07884  -0.05280   0.18005
           A6          -0.06771  -0.05942  -0.06819  -0.05825   0.21258
           D1           0.04127  -0.04385   0.04115  -0.04369  -0.03303
           D2           0.02745  -0.02775   0.02722  -0.02717   0.02199
           D3           0.03929   0.00961  -0.01198  -0.03709   0.01099
           D4           0.01183   0.03736  -0.03920  -0.00991  -0.01101
                          D1        D2        D3        D4
           D1           0.09719
           D2           0.00683   0.06028
           D3           0.00342   0.03011   0.06077
           D4          -0.00341  -0.03016   0.03066   0.06082
 ITU=  0
     Eigenvalues ---    0.10841   0.12322   0.18596   0.28600   0.28776
     Eigenvalues ---    0.44061   0.44195   0.45079   0.63177
 Angle between quadratic step and forces=  25.26 degrees.
 Linear search not attempted -- first point.
 Iteration  1 RMS(Cart)=  0.00058981 RMS(Int)=  0.00000033
 Iteration  2 RMS(Cart)=  0.00000027 RMS(Int)=  0.00000015
 Variable       Old X    -DE/DX   Delta X   Delta X   Delta X     New X
                                 (Linear)    (Quad)   (Total)
    R1        2.49903   0.00012   0.00000   0.00026   0.00026   2.49929
    R2        2.49912   0.00016   0.00000   0.00010   0.00010   2.49922
    R3        2.49949  -0.00004   0.00000  -0.00027  -0.00027   2.49922
    R4        2.49908   0.00006   0.00000   0.00039   0.00039   2.49947
    A1        1.91014   0.00002   0.00000   0.00020   0.00020   1.91034
    A2        1.91095   0.00001   0.00000  -0.00020  -0.00020   1.91075
    A3        1.91097   0.00005   0.00000  -0.00015  -0.00015   1.91082
    A4        1.91008   0.00028   0.00000   0.00145   0.00145   1.91152
    A5        1.91087  -0.00015   0.00000  -0.00063  -0.00063   1.91025
    A6        1.91079  -0.00020   0.00000  -0.00067  -0.00067   1.91012
    D1        2.09364   0.00020   0.00000   0.00101   0.00101   2.09465
    D2       -2.09414   0.00004   0.00000   0.00023   0.00023  -2.09391
    D3        2.09509  -0.00008   0.00000  -0.00075  -0.00075   2.09434
    D4       -2.09395  -0.00013   0.00000  -0.00098  -0.00098  -2.09494
         Item               Value     Threshold  Converged?
 Maximum Force            0.000283     0.000450     YES
 RMS     Force            0.000135     0.000300     YES
 Maximum Displacement     0.001163     0.001800     YES
 RMS     Displacement     0.000590     0.001200     YES
 Predicted change in Energy=-5.588900D-07
 Optimization completed.
    -- Stationary point found.
                           ----------------------------
                           !   Optimized Parameters   !
                           ! (Angstroms and Degrees)  !
 --------------------------                            --------------------------
 ! Name  Definition              Value          Derivative Info.                !
 --------------------------------------------------------------------------------
 ! R1    R(1,2)                  1.3224         -DE/DX =    0.0001              !
 ! R2    R(1,3)                  1.3225         -DE/DX =    0.0002              !
 ! R3    R(1,4)                  1.3227         -DE/DX =    0.0                 !
 ! R4    R(1,5)                  1.3225         -DE/DX =    0.0001              !
 ! A1    A(2,1,3)              109.4429         -DE/DX =    0.0                 !
 ! A2    A(2,1,4)              109.4895         -DE/DX =    0.0                 !
 ! A3    A(2,1,5)              109.4904         -DE/DX =    0.0                 !
 ! A4    A(3,1,4)              109.4392         -DE/DX =    0.0003              !
 ! A5    A(3,1,5)              109.485          -DE/DX =   -0.0002              !
 ! A6    A(4,1,5)              109.4802         -DE/DX =   -0.0002              !
 ! D1    D(2,1,4,3)            119.957          -DE/DX =    0.0002              !
 ! D2    D(2,1,5,3)           -119.9856         -DE/DX =    0.0                 !
 ! D3    D(2,1,5,4)            120.0397         -DE/DX =   -0.0001              !
 ! D4    D(3,1,5,4)           -119.9748         -DE/DX =   -0.0001              !
 --------------------------------------------------------------------------------
 GradGradGradGradGradGradGradGradGradGradGradGradGradGradGradGradGradGrad

 1\1\GINC-KATANA1\Freq\RM062X\6-31+G(d)\C1F4\Z5358697\13-Mar-2025\0\\#N
  Geom=AllCheck Guess=TCheck SCRF=Check GenChk RM062X/6-31+G(d) Freq\\t
 etrafluoromethane\\0,1\C,-0.0001256467,0.0001596637,0.0001468328\F,0.9
 267379427,0.8381118784,0.4332525527\F,0.4816732589,-1.2314077112,0.007
 7323732\F,-0.3504033315,0.328224696,-1.2323868031\F,-1.0578822235,0.06
 49114731,0.7912550444\\Version=ES64L-G09RevD.01\State=1-A\HF=-437.3610
 755\RMSD=2.961e-10\RMSF=1.742e-04\ZeroPoint=0.0175777\Thermal=0.021467
 4\Dipole=-0.0000782,0.0004173,0.000326\DipoleDeriv=2.1311127,0.0001785
 ,-0.0010502,0.0008207,2.1315682,-0.0003435,-0.0006085,0.0012249,2.1334
 665,-0.6294913,-0.2711954,-0.1398006,-0.2693491,-0.5761173,-0.125629,-
 0.13984,-0.1257496,-0.3949643,-0.4092937,0.2063109,-0.0011523,0.205134
 3,-0.8568713,0.002308,-0.0011368,0.0021134,-0.3300608,-0.371834,0.0399
 274,-0.1495848,0.0398932,-0.3656934,0.1410368,-0.1495629,0.1398934,-0.
 8585963,-0.7204936,0.0247786,0.2915879,0.0235008,-0.3328863,-0.0173723
 ,0.2911481,-0.0174821,-0.549845\Polar=16.6174703,-0.0010766,16.6216651
 ,-0.0014704,-0.0102819,16.6167677\PG=C01 [X(C1F4)]\NImag=0\\0.64798961
 ,0.00125454,0.64942100,0.00056076,-0.00018705,0.64567338,-0.19852927,-
 0.10327389,-0.05314323,0.27271420,-0.10327644,-0.17871362,-0.04791337,
 0.17058676,0.23953726,-0.05326128,-0.04793384,-0.10917238,0.08782124,0
 .07971083,0.12525348,-0.11512941,0.07829187,-0.00105369,0.01452972,-0.
 02982804,-0.00412191,0.13521681,0.07816195,-0.28587699,0.00187950,-0.0
 1212379,-0.07702460,-0.01650282,-0.12946524,0.41713640,-0.00098462,0.0
 0149336,-0.08338990,-0.00184874,-0.02254417,0.01220235,0.00150809,-0.0
 0232727,0.08322207,-0.10081536,0.01559789,-0.05759401,-0.01936067,-0.0
 0950684,-0.05245912,0.00061514,0.02630154,-0.02614868,0.11176250,0.015
 55440,-0.09905302,0.05341145,-0.01631446,0.01218506,-0.02672576,0.0293
 7911,-0.03586260,0.05264640,-0.02548475,0.10839021,-0.05758057,0.05357
 510,-0.28523336,-0.04112816,-0.01335733,-0.04358962,-0.01933804,0.0351
 5847,-0.01535461,0.09491092,-0.08843160,0.41673223,-0.23351557,0.00812
 959,0.11123017,-0.06935398,-0.02797543,0.02202108,-0.03523227,0.037125
 54,0.02747396,0.00779838,-0.00313430,0.02313585,0.33030343,0.00830555,
 -0.08577737,-0.00719054,-0.03887462,0.00401590,0.01145159,0.05162231,-
 0.01837221,-0.02926831,-0.00690784,0.01434035,0.01305536,-0.01414540,0
 .08579334,0.11126572,-0.00694758,-0.16787774,0.00829889,0.00410405,0.0
 1530616,0.02300555,-0.01820789,0.00332008,0.04129089,0.00909951,-0.072
 55464,-0.18386106,0.01195191,0.22180614\\-0.00019548,0.00015269,0.0003
 9413,-0.00007973,-0.00013671,0.00007039,0.00006604,0.00019096,-0.00032
 233,0.00016360,-0.00008986,-0.00010881,0.00004558,-0.00011709,-0.00003
 338\\\@


 SILVERMAN'S PARADOX - IF MURPHY'S LAW CAN GO WRONG, IT WILL.
 Job cpu time:       0 days  0 hours  0 minutes 26.3 seconds.
 File lengths (MBytes):  RWF=    132 Int=      0 D2E=      0 Chk=      2 Scr=      2
 Normal termination of Gaussian 09 at Thu Mar 13 15:33:38 2025.
