 Entering Gaussian System, Link 0=g09
 Initial command:
 /apps/z_install_tree/linux-rocky8-ivybridge/gcc-12.2.0/gaussian-09-D.01-wczn3gur5lpur3omlkzwa2l5ecyxp5ef/g09/l1.exe "/srv/scratch/z5358697/gauss/Gau-1931915.inp" -scrdir="/srv/scratch/z5358697/gauss/"
 Entering Link 1 = /apps/z_install_tree/linux-rocky8-ivybridge/gcc-12.2.0/gaussian-09-D.01-wczn3gur5lpur3omlkzwa2l5ecyxp5ef/g09/l1.exe PID=   1931917.
  
 Copyright (c) 1988,1990,1992,1993,1995,1998,2003,2009,2013,
            Gaussian, Inc.  All Rights Reserved.
  
 This is part of the Gaussian(R) 09 program.  It is based on
 the Gaussian(R) 03 system (copyright 2003, Gaussian, Inc.),
 the Gaussian(R) 98 system (copyright 1998, Gaussian, Inc.),
 the Gaussian(R) 94 system (copyright 1995, Gaussian, Inc.),
 the Gaussian 92(TM) system (copyright 1992, Gaussian, Inc.),
 the Gaussian 90(TM) system (copyright 1990, Gaussian, Inc.),
 the Gaussian 88(TM) system (copyright 1988, Gaussian, Inc.),
 the Gaussian 86(TM) system (copyright 1986, Carnegie Mellon
 University), and the Gaussian 82(TM) system (copyright 1983,
 Carnegie Mellon University). Gaussian is a federally registered
 trademark of Gaussian, Inc.
  
 This software contains proprietary and confidential information,
 including trade secrets, belonging to Gaussian, Inc.
  
 This software is provided under written license and may be
 used, copied, transmitted, or stored only in accord with that
 written license.
  
 The following legend is applicable only to US Government
 contracts under FAR:
  
                    RESTRICTED RIGHTS LEGEND
  
 Use, reproduction and disclosure by the US Government is
 subject to restrictions as set forth in subparagraphs (a)
 and (c) of the Commercial Computer Software - Restricted
 Rights clause in FAR 52.227-19.
  
 Gaussian, Inc.
 340 Quinnipiac St., Bldg. 40, Wallingford CT 06492
  
  
 ---------------------------------------------------------------
 Warning -- This program may not be used in any manner that
 competes with the business of Gaussian, Inc. or will provide
 assistance to any competitor of Gaussian, Inc.  The licensee
 of this program is prohibited from giving any competitor of
 Gaussian, Inc. access to this program.  By using this program,
 the user acknowledges that Gaussian, Inc. is engaged in the
 business of creating and licensing software in the field of
 computational chemistry and represents and warrants to the
 licensee that it is not a competitor of Gaussian, Inc. and that
 it will not use this program in any manner prohibited above.
 ---------------------------------------------------------------
  

 Cite this work as:
 Gaussian 09, Revision D.01,
 M. J. Frisch, G. W. Trucks, H. B. Schlegel, G. E. Scuseria, 
 M. A. Robb, J. R. Cheeseman, G. Scalmani, V. Barone, B. Mennucci, 
 G. A. Petersson, H. Nakatsuji, M. Caricato, X. Li, H. P. Hratchian, 
 A. F. Izmaylov, J. Bloino, G. Zheng, J. L. Sonnenberg, M. Hada, 
 M. Ehara, K. Toyota, R. Fukuda, J. Hasegawa, M. Ishida, T. Nakajima, 
 Y. Honda, O. Kitao, H. Nakai, T. Vreven, J. A. Montgomery, Jr., 
 J. E. Peralta, F. Ogliaro, M. Bearpark, J. J. Heyd, E. Brothers, 
 K. N. Kudin, V. N. Staroverov, T. Keith, R. Kobayashi, J. Normand, 
 K. Raghavachari, A. Rendell, J. C. Burant, S. S. Iyengar, J. Tomasi, 
 M. Cossi, N. Rega, J. M. Millam, M. Klene, J. E. Knox, J. B. Cross, 
 V. Bakken, C. Adamo, J. Jaramillo, R. Gomperts, R. E. Stratmann, 
 O. Yazyev, A. J. Austin, R. Cammi, C. Pomelli, J. W. Ochterski, 
 R. L. Martin, K. Morokuma, V. G. Zakrzewski, G. A. Voth, 
 P. Salvador, J. J. Dannenberg, S. Dapprich, A. D. Daniels, 
 O. Farkas, J. B. Foresman, J. V. Ortiz, J. Cioslowski, 
 and D. J. Fox, Gaussian, Inc., Wallingford CT, 2013.
 
 ******************************************
 Gaussian 09:  ES64L-G09RevD.01 24-Apr-2013
                16-Mar-2025 
 ******************************************
 ---------------------------------
 #m062X/6-31+G(d) OPT Freq=noraman
 ---------------------------------
 1/14=-1,18=20,19=15,26=3,38=1/1,3;
 2/9=110,12=2,17=6,18=5,40=1/2;
 3/5=1,6=6,7=11,11=2,16=1,25=1,30=1,71=1,74=-55/1,2,3;
 4//1;
 5/5=2,38=5/2;
 6/7=2,8=2,9=2,10=2,28=1/1;
 7//1,2,3,16;
 1/14=-1,18=20,19=15,26=3/3(2);
 2/9=110/2;
 99//99;
 2/9=110/2;
 3/5=1,6=6,7=11,11=2,16=1,25=1,30=1,71=1,74=-55/1,2,3;
 4/5=5,16=3,69=1/1;
 5/5=2,38=5/2;
 7//1,2,3,16;
 1/14=-1,18=20,19=15,26=3/3(-5);
 2/9=110/2;
 6/7=2,8=2,9=2,10=2,19=2,28=1/1;
 99/9=1/99;
 ------------------
 1,4-dibromobenzene
 ------------------
 Symbolic Z-matrix:
 Charge =  0 Multiplicity = 1
 C                     1.8851   -1.0363   -0.1124 
 C                     2.921    -1.6309    0.6081 
 C                     2.8783   -1.652     2.0022 
 C                     1.7997   -1.0786    2.6757 
 C                     0.7638   -0.4841    1.9551 
 C                     0.8066   -0.463     0.561 
 Br                   -0.5965    0.343    -0.4154 
 Br                    4.2818   -2.4575    2.9784 
 H                     1.933    -1.0282   -1.1982 
 H                     3.7545   -2.0731    0.0687 
 H                     1.7516   -1.0871    3.7615 
 H                    -0.0695   -0.0417    2.4944 
 

 GradGradGradGradGradGradGradGradGradGradGradGradGradGradGradGradGradGrad
 Berny optimization.
 Initialization pass.
                           ----------------------------
                           !    Initial Parameters    !
                           ! (Angstroms and Degrees)  !
 --------------------------                            --------------------------
 ! Name  Definition              Value          Derivative Info.                !
 --------------------------------------------------------------------------------
 ! R1    R(1,2)                  1.3949         estimate D2E/DX2                !
 ! R2    R(1,6)                  1.3947         estimate D2E/DX2                !
 ! R3    R(1,9)                  1.0869         estimate D2E/DX2                !
 ! R4    R(2,3)                  1.3949         estimate D2E/DX2                !
 ! R5    R(2,10)                 1.0868         estimate D2E/DX2                !
 ! R6    R(3,4)                  1.3949         estimate D2E/DX2                !
 ! R7    R(3,8)                  1.8899         estimate D2E/DX2                !
 ! R8    R(4,5)                  1.3949         estimate D2E/DX2                !
 ! R9    R(4,11)                 1.0869         estimate D2E/DX2                !
 ! R10   R(5,6)                  1.3949         estimate D2E/DX2                !
 ! R11   R(5,12)                 1.0867         estimate D2E/DX2                !
 ! R12   R(6,7)                  1.8899         estimate D2E/DX2                !
 ! A1    A(2,1,6)              120.0052         estimate D2E/DX2                !
 ! A2    A(2,1,9)              119.1078         estimate D2E/DX2                !
 ! A3    A(6,1,9)              120.887          estimate D2E/DX2                !
 ! A4    A(1,2,3)              119.9958         estimate D2E/DX2                !
 ! A5    A(1,2,10)             119.118          estimate D2E/DX2                !
 ! A6    A(3,2,10)             120.8862         estimate D2E/DX2                !
 ! A7    A(2,3,4)              119.9999         estimate D2E/DX2                !
 ! A8    A(2,3,8)              119.9971         estimate D2E/DX2                !
 ! A9    A(4,3,8)              120.003          estimate D2E/DX2                !
 ! A10   A(3,4,5)              119.9999         estimate D2E/DX2                !
 ! A11   A(3,4,11)             120.8869         estimate D2E/DX2                !
 ! A12   A(5,4,11)             119.1133         estimate D2E/DX2                !
 ! A13   A(4,5,6)              119.9967         estimate D2E/DX2                !
 ! A14   A(4,5,12)             119.1164         estimate D2E/DX2                !
 ! A15   A(6,5,12)             120.8869         estimate D2E/DX2                !
 ! A16   A(1,6,5)              120.0026         estimate D2E/DX2                !
 ! A17   A(1,6,7)              119.9965         estimate D2E/DX2                !
 ! A18   A(5,6,7)              120.0009         estimate D2E/DX2                !
 ! D1    D(6,1,2,3)             -0.0063         estimate D2E/DX2                !
 ! D2    D(6,1,2,10)          -179.9865         estimate D2E/DX2                !
 ! D3    D(9,1,2,3)           -179.9865         estimate D2E/DX2                !
 ! D4    D(9,1,2,10)             0.0332         estimate D2E/DX2                !
 ! D5    D(2,1,6,5)              0.004          estimate D2E/DX2                !
 ! D6    D(2,1,6,7)            179.9812         estimate D2E/DX2                !
 ! D7    D(9,1,6,5)            179.9839         estimate D2E/DX2                !
 ! D8    D(9,1,6,7)             -0.0389         estimate D2E/DX2                !
 ! D9    D(1,2,3,4)              0.0043         estimate D2E/DX2                !
 ! D10   D(1,2,3,8)           -179.9969         estimate D2E/DX2                !
 ! D11   D(10,2,3,4)           179.9842         estimate D2E/DX2                !
 ! D12   D(10,2,3,8)            -0.017          estimate D2E/DX2                !
 ! D13   D(2,3,4,5)              0.0            estimate D2E/DX2                !
 ! D14   D(2,3,4,11)           179.9864         estimate D2E/DX2                !
 ! D15   D(8,3,4,5)           -179.9988         estimate D2E/DX2                !
 ! D16   D(8,3,4,11)            -0.0124         estimate D2E/DX2                !
 ! D17   D(3,4,5,6)             -0.0023         estimate D2E/DX2                !
 ! D18   D(3,4,5,12)          -179.9993         estimate D2E/DX2                !
 ! D19   D(11,4,5,6)          -179.9889         estimate D2E/DX2                !
 ! D20   D(11,4,5,12)            0.0141         estimate D2E/DX2                !
 ! D21   D(4,5,6,1)              0.0003         estimate D2E/DX2                !
 ! D22   D(4,5,6,7)           -179.9769         estimate D2E/DX2                !
 ! D23   D(12,5,6,1)           179.9973         estimate D2E/DX2                !
 ! D24   D(12,5,6,7)             0.0201         estimate D2E/DX2                !
 --------------------------------------------------------------------------------
 Trust Radius=3.00D-01 FncErr=1.00D-07 GrdErr=1.00D-06
 Number of steps in this run=     64 maximum allowed number of steps=    100.
 GradGradGradGradGradGradGradGradGradGradGradGradGradGradGradGradGradGrad

                          Input orientation:                          
 ---------------------------------------------------------------------
 Center     Atomic      Atomic             Coordinates (Angstroms)
 Number     Number       Type             X           Y           Z
 ---------------------------------------------------------------------
      1          6           0        1.885100   -1.036300   -0.112400
      2          6           0        2.921000   -1.630900    0.608100
      3          6           0        2.878300   -1.652000    2.002200
      4          6           0        1.799700   -1.078600    2.675700
      5          6           0        0.763800   -0.484100    1.955100
      6          6           0        0.806600   -0.463000    0.561000
      7         35           0       -0.596500    0.343000   -0.415400
      8         35           0        4.281800   -2.457500    2.978400
      9          1           0        1.933000   -1.028200   -1.198200
     10          1           0        3.754500   -2.073100    0.068700
     11          1           0        1.751600   -1.087100    3.761500
     12          1           0       -0.069500   -0.041700    2.494400
 ---------------------------------------------------------------------
                    Distance matrix (angstroms):
                    1          2          3          4          5
     1  C    0.000000
     2  C    1.394904   0.000000
     3  C    2.416002   1.394913   0.000000
     4  C    2.789728   2.416054   1.394908   0.000000
     5  C    2.415946   2.789816   2.416054   1.394913   0.000000
     6  C    1.394741   2.415967   2.789753   2.416023   1.394916
     7  Br   2.855279   4.161327   4.679642   4.161444   2.855483
     8  Br   4.161373   2.855410   1.889870   2.855488   4.161463
     9  H    1.086886   2.145253   3.394890   3.876520   3.406813
    10  H    2.145322   1.086837   2.164134   3.406864   3.876559
    11  H    3.876532   3.406926   2.164186   1.086898   2.145330
    12  H    3.406625   3.876438   3.394827   2.145213   1.086716
                    6          7          8          9         10
     6  C    0.000000
     7  Br   1.889890   0.000000
     8  Br   4.679623   6.569512   0.000000
     9  H    2.164027   2.981834   5.000375   0.000000
    10  H    3.394834   5.000309   2.981973   2.452491   0.000000
    11  H    3.394956   5.000525   2.982139   4.963366   4.315157
    12  H    2.164043   2.982056   5.000416   4.314914   4.963223
                   11         12
    11  H    0.000000
    12  H    2.452511   0.000000
 Stoichiometry    C6H4Br2
 Framework group  C1[X(C6H4Br2)]
 Deg. of freedom    30
 Full point group                 C1      NOp   1
 Largest Abelian subgroup         C1      NOp   1
 Largest concise Abelian subgroup C1      NOp   1
                         Standard orientation:                         
 ---------------------------------------------------------------------
 Center     Atomic      Atomic             Coordinates (Angstroms)
 Number     Number       Type             X           Y           Z
 ---------------------------------------------------------------------
      1          6           0       -0.697491   -1.207821    0.000237
      2          6           0        0.697413   -1.207947    0.000177
      3          6           0        1.394891    0.000071    0.000071
      4          6           0        0.697455    1.208107    0.000115
      5          6           0       -0.697458    1.208125    0.000265
      6          6           0       -1.394862    0.000060    0.000323
      7         35           0       -3.284751   -0.000054   -0.000132
      8         35           0        3.284761   -0.000058   -0.000099
      9          1           0       -1.226298   -2.157392    0.000543
     10          1           0        1.226193   -2.157477   -0.000113
     11          1           0        1.226285    2.157679    0.000256
     12          1           0       -1.226226    2.157522    0.000287
 ---------------------------------------------------------------------
 Rotational constants (GHZ):      5.6905695      0.2840635      0.2705578
 Standard basis: 6-31+G(d) (6D, 7F)
 There are   190 symmetry adapted cartesian basis functions of A   symmetry.
 There are   190 symmetry adapted basis functions of A   symmetry.
   190 basis functions,   382 primitive gaussians,   190 cartesian basis functions
    55 alpha electrons       55 beta electrons
       nuclear repulsion energy       750.7696319696 Hartrees.
 NAtoms=   12 NActive=   12 NUniq=   12 SFac= 1.00D+00 NAtFMM=   60 NAOKFM=F Big=F
 Integral buffers will be    131072 words long.
 Raffenetti 2 integral format.
 Two-electron integral symmetry is turned on.
 One-electron integrals computed using PRISM.
 NBasis=   190 RedAO= T EigKep=  4.34D-06  NBF=   190
 NBsUse=   190 1.00D-06 EigRej= -1.00D+00 NBFU=   190
 ExpMin= 3.50D-02 ExpMax= 5.74D+05 ExpMxC= 5.74D+03 IAcc=3 IRadAn=         5 AccDes= 0.00D+00
 Harris functional with IExCor= 1009 and IRadAn=       5 diagonalized for initial guess.
 HarFok:  IExCor= 1009 AccDes= 0.00D+00 IRadAn=         5 IDoV= 1 UseB2=F ITyADJ=14
 ICtDFT=  3500011 ScaDFX=  1.000000  1.000000  1.000000  1.000000
 FoFCou: FMM=F IPFlag=           0 FMFlag=      100000 FMFlg1=           0
         NFxFlg=           0 DoJE=T BraDBF=F KetDBF=T FulRan=T
         wScrn=  0.000000 ICntrl=     500 IOpCl=  0 I1Cent=   200000004 NGrid=           0
         NMat0=    1 NMatS0=      1 NMatT0=    0 NMatD0=    1 NMtDS0=    0 NMtDT0=    0
 Petite list used in FoFCou.
 Requested convergence on RMS density matrix=1.00D-08 within 128 cycles.
 Requested convergence on MAX density matrix=1.00D-06.
 Requested convergence on             energy=1.00D-06.
 No special actions if energy rises.
 SCF Done:  E(RM062X) =  -5374.55233770     A.U. after   12 cycles
            NFock= 12  Conv=0.66D-08     -V/T= 2.0070

 **********************************************************************

            Population analysis using the SCF density.

 **********************************************************************

 Orbital symmetries:
       Occupied  (A) (A) (A) (A) (A) (A) (A) (A) (A) (A) (A) (A)
                 (A) (A) (A) (A) (A) (A) (A) (A) (A) (A) (A) (A)
                 (A) (A) (A) (A) (A) (A) (A) (A) (A) (A) (A) (A)
                 (A) (A) (A) (A) (A) (A) (A) (A) (A) (A) (A) (A)
                 (A) (A) (A) (A) (A) (A) (A)
       Virtual   (A) (A) (A) (A) (A) (A) (A) (A) (A) (A) (A) (A)
                 (A) (A) (A) (A) (A) (A) (A) (A) (A) (A) (A) (A)
                 (A) (A) (A) (A) (A) (A) (A) (A) (A) (A) (A) (A)
                 (A) (A) (A) (A) (A) (A) (A) (A) (A) (A) (A) (A)
                 (A) (A) (A) (A) (A) (A) (A) (A) (A) (A) (A) (A)
                 (A) (A) (A) (A) (A) (A) (A) (A) (A) (A) (A) (A)
                 (A) (A) (A) (A) (A) (A) (A) (A) (A) (A) (A) (A)
                 (A) (A) (A) (A) (A) (A) (A) (A) (A) (A) (A) (A)
                 (A) (A) (A) (A) (A) (A) (A) (A) (A) (A) (A) (A)
                 (A) (A) (A) (A) (A) (A) (A) (A) (A) (A) (A) (A)
                 (A) (A) (A) (A) (A) (A) (A) (A) (A) (A) (A) (A)
                 (A) (A) (A)
 The electronic state is 1-A.
 Alpha  occ. eigenvalues -- -485.49414-485.49398 -62.77557 -62.77368 -57.30605
 Alpha  occ. eigenvalues --  -57.30583 -57.30333 -57.30314 -57.30290 -57.30286
 Alpha  occ. eigenvalues --  -10.63137 -10.63135 -10.58860 -10.58858 -10.58783
 Alpha  occ. eigenvalues --  -10.58783  -8.94563  -8.94512  -6.89944  -6.89943
 Alpha  occ. eigenvalues --   -6.88903  -6.88903  -6.88887  -6.88886  -2.92799
 Alpha  occ. eigenvalues --   -2.92798  -2.92428  -2.92428  -2.92417  -2.92417
 Alpha  occ. eigenvalues --   -2.91492  -2.91492  -2.91491  -2.91491  -1.00661
 Alpha  occ. eigenvalues --   -0.93659  -0.87795  -0.87739  -0.80457  -0.72582
 Alpha  occ. eigenvalues --   -0.69075  -0.59558  -0.56193  -0.55121  -0.51957
 Alpha  occ. eigenvalues --   -0.48684  -0.48580  -0.44450  -0.42707  -0.41522
 Alpha  occ. eigenvalues --   -0.36241  -0.36075  -0.35683  -0.33722  -0.29778
 Alpha virt. eigenvalues --   -0.01135  -0.00835  -0.00143   0.01281   0.01657
 Alpha virt. eigenvalues --    0.02558   0.02950   0.04379   0.05171   0.05274
 Alpha virt. eigenvalues --    0.05370   0.06407   0.06920   0.08123   0.08933
 Alpha virt. eigenvalues --    0.09783   0.09974   0.10409   0.12481   0.13242
 Alpha virt. eigenvalues --    0.13615   0.15175   0.15589   0.16030   0.16406
 Alpha virt. eigenvalues --    0.16466   0.17273   0.17712   0.19445   0.19707
 Alpha virt. eigenvalues --    0.20314   0.21808   0.23356   0.23599   0.23858
 Alpha virt. eigenvalues --    0.25492   0.26456   0.26903   0.27235   0.30072
 Alpha virt. eigenvalues --    0.31774   0.34037   0.34041   0.35244   0.38394
 Alpha virt. eigenvalues --    0.50514   0.50714   0.51680   0.52226   0.52363
 Alpha virt. eigenvalues --    0.53351   0.54825   0.56212   0.57292   0.58094
 Alpha virt. eigenvalues --    0.61259   0.63302   0.64989   0.66219   0.68098
 Alpha virt. eigenvalues --    0.68699   0.69888   0.70348   0.72614   0.74157
 Alpha virt. eigenvalues --    0.76068   0.77406   0.78856   0.79514   0.79555
 Alpha virt. eigenvalues --    0.80217   0.82083   0.89077   0.89834   0.91921
 Alpha virt. eigenvalues --    0.92798   0.96040   0.97507   1.00122   1.03608
 Alpha virt. eigenvalues --    1.04261   1.07754   1.08593   1.10967   1.15092
 Alpha virt. eigenvalues --    1.19326   1.23294   1.26940   1.27646   1.33226
 Alpha virt. eigenvalues --    1.34794   1.44880   1.45802   1.46756   1.49441
 Alpha virt. eigenvalues --    1.52846   1.56523   1.59243   1.78493   1.79510
 Alpha virt. eigenvalues --    1.84452   1.86337   1.96189   1.99258   2.00607
 Alpha virt. eigenvalues --    2.02414   2.11141   2.12324   2.15084   2.15743
 Alpha virt. eigenvalues --    2.17171   2.19733   2.29009   2.30362   2.32605
 Alpha virt. eigenvalues --    2.51084   2.62900   2.63232   2.64205   2.72411
 Alpha virt. eigenvalues --    2.73958   2.74568   2.82861   3.02107   3.32965
 Alpha virt. eigenvalues --    4.22309   4.24417   4.24958   4.36661   4.39165
 Alpha virt. eigenvalues --    4.66982   9.00369   9.10648  79.69446  81.84249
          Condensed to atoms (all electrons):
               1          2          3          4          5          6
     1  C    8.726479  -2.168563   0.857362  -0.960029   0.245448  -0.720383
     2  C   -2.168563   8.725141  -0.719291   0.245806  -0.960440   0.857721
     3  C    0.857362  -0.719291   6.131038  -0.719530   0.857430  -0.627490
     4  C   -0.960029   0.245806  -0.719530   8.724677  -2.167707   0.857194
     5  C    0.245448  -0.960440   0.857430  -2.167707   8.725142  -0.719319
     6  C   -0.720383   0.857721  -0.627490   0.857194  -0.719319   6.131659
     7  Br   0.012889   0.005452   0.022758   0.005483   0.012870   0.056569
     8  Br   0.005428   0.012829   0.056630   0.012844   0.005498   0.022782
     9  H    0.218950   0.019426  -0.014484  -0.014647   0.038616   0.065124
    10  H    0.019430   0.219017   0.065072   0.038626  -0.014644  -0.014506
    11  H   -0.014658   0.038636   0.065122   0.218968   0.019398  -0.014475
    12  H    0.038671  -0.014647  -0.014484   0.019357   0.219042   0.065061
               7          8          9         10         11         12
     1  C    0.012889   0.005428   0.218950   0.019430  -0.014658   0.038671
     2  C    0.005452   0.012829   0.019426   0.219017   0.038636  -0.014647
     3  C    0.022758   0.056630  -0.014484   0.065072   0.065122  -0.014484
     4  C    0.005483   0.012844  -0.014647   0.038626   0.218968   0.019357
     5  C    0.012870   0.005498   0.038616  -0.014644   0.019398   0.219042
     6  C    0.056569   0.022782   0.065124  -0.014506  -0.014475   0.065061
     7  Br  34.900566  -0.013465  -0.005577  -0.000820  -0.000820  -0.005574
     8  Br  -0.013465  34.900553  -0.000820  -0.005573  -0.005572  -0.000821
     9  H   -0.005577  -0.000820   0.461430  -0.004213   0.000010  -0.000116
    10  H   -0.000820  -0.005573  -0.004213   0.461413  -0.000116   0.000010
    11  H   -0.000820  -0.005572   0.000010  -0.000116   0.461414  -0.004212
    12  H   -0.005574  -0.000821  -0.000116   0.000010  -0.004212   0.461418
 Mulliken charges:
               1
     1  C   -0.261024
     2  C   -0.261086
     3  C    0.039867
     4  C   -0.261043
     5  C   -0.261335
     6  C    0.040061
     7  Br   0.009669
     8  Br   0.009688
     9  H    0.236300
    10  H    0.236304
    11  H    0.236304
    12  H    0.236295
 Sum of Mulliken charges =   0.00000
 Mulliken charges with hydrogens summed into heavy atoms:
               1
     1  C   -0.024724
     2  C   -0.024782
     3  C    0.039867
     4  C   -0.024739
     5  C   -0.025039
     6  C    0.040061
     7  Br   0.009669
     8  Br   0.009688
 Electronic spatial extent (au):  <R**2>=           3196.4090
 Charge=              0.0000 electrons
 Dipole moment (field-independent basis, Debye):
    X=              0.0002    Y=              0.0001    Z=              0.0002  Tot=              0.0003
 Quadrupole moment (field-independent basis, Debye-Ang):
   XX=            -76.3037   YY=            -64.8788   ZZ=            -75.5990
   XY=             -0.0002   XZ=              0.0000   YZ=              0.0003
 Traceless Quadrupole moment (field-independent basis, Debye-Ang):
   XX=             -4.0432   YY=              7.3817   ZZ=             -3.3385
   XY=             -0.0002   XZ=              0.0000   YZ=              0.0003
 Octapole moment (field-independent basis, Debye-Ang**2):
  XXX=              0.0030  YYY=             -0.0016  ZZZ=             -0.0098  XYY=              0.0008
  XXY=             -0.0032  XXZ=             -0.0078  XZZ=             -0.0002  YZZ=             -0.0017
  YYZ=             -0.0002  XYZ=              0.0020
 Hexadecapole moment (field-independent basis, Debye-Ang**3):
 XXXX=          -2591.0118 YYYY=           -299.5368 ZZZZ=            -92.1993 XXXY=             -0.0015
 XXXZ=              0.0220 YYYX=             -0.0017 YYYZ=              0.0018 ZZZX=              0.0051
 ZZZY=              0.0004 XXYY=           -504.5911 XXZZ=           -480.3389 YYZZ=            -78.6169
 XXYZ=              0.0006 YYXZ=             -0.0023 ZZXY=             -0.0006
 N-N= 7.507696319696D+02 E-N=-1.429805921381D+04  KE= 5.337327215133D+03
 Calling FoFJK, ICntrl=      2127 FMM=F ISym2X=0 I1Cent= 0 IOpClX= 0 NMat=1 NMatS=1 NMatT=0.
 ***** Axes restored to original set *****
 -------------------------------------------------------------------
 Center     Atomic                   Forces (Hartrees/Bohr)
 Number     Number              X              Y              Z
 -------------------------------------------------------------------
      1        6          -0.000459999    0.000188890    0.000523786
      2        6          -0.000246919    0.000143016    0.000877632
      3        6          -0.002877936    0.001641224   -0.002025782
      4        6           0.000517047   -0.000293835   -0.000604507
      5        6           0.000334793   -0.000156508   -0.000876416
      6        6           0.002810296   -0.001552321    0.002063413
      7       35           0.003479875   -0.002025827    0.002437299
      8       35          -0.003496668    0.002009142   -0.002425710
      9        1          -0.001552826    0.000837620    0.001220754
     10        1          -0.000242980    0.000048979    0.002107991
     11        1           0.001565448   -0.000812002   -0.001230427
     12        1           0.000169869   -0.000028379   -0.002068033
 -------------------------------------------------------------------
 Cartesian Forces:  Max     0.003496668 RMS     0.001624312

 GradGradGradGradGradGradGradGradGradGradGradGradGradGradGradGradGradGrad
 Berny optimization.
 FormGI is forming the generalized inverse of G from B-inverse, IUseBI=4.
 Internal  Forces:  Max     0.004706734 RMS     0.002079716
 Search for a local minimum.
 Step number   1 out of a maximum of   64
 All quantities printed in internal units (Hartrees-Bohrs-Radians)
 Mixed Optimization -- RFO/linear search
 Second derivative matrix not updated -- first step.
 ITU=  0
     Eigenvalues ---    0.02156   0.02156   0.02156   0.02156   0.02156
     Eigenvalues ---    0.02156   0.02157   0.02157   0.02158   0.16000
     Eigenvalues ---    0.16000   0.16000   0.16000   0.18754   0.18755
     Eigenvalues ---    0.22000   0.22982   0.24000   0.25000   0.25000
     Eigenvalues ---    0.35174   0.35175   0.35181   0.35195   0.42131
     Eigenvalues ---    0.42508   0.46474   0.46474   0.46475   0.46494
 RFO step:  Lambda=-8.57776001D-04 EMin= 2.15602056D-02
 Linear search not attempted -- first point.
 Iteration  1 RMS(Cart)=  0.01300817 RMS(Int)=  0.00006469
 Iteration  2 RMS(Cart)=  0.00008655 RMS(Int)=  0.00000137
 Iteration  3 RMS(Cart)=  0.00000000 RMS(Int)=  0.00000137
 Variable       Old X    -DE/DX   Delta X   Delta X   Delta X     New X
                                 (Linear)    (Quad)   (Total)
    R1        2.63599  -0.00320   0.00000  -0.00687  -0.00687   2.62912
    R2        2.63568  -0.00444   0.00000  -0.00952  -0.00952   2.62616
    R3        2.05392  -0.00128   0.00000  -0.00363  -0.00363   2.05028
    R4        2.63600  -0.00458   0.00000  -0.00983  -0.00983   2.62617
    R5        2.05382  -0.00125   0.00000  -0.00355  -0.00355   2.05027
    R6        2.63599  -0.00456   0.00000  -0.00980  -0.00980   2.62619
    R7        3.57134  -0.00471   0.00000  -0.02498  -0.02498   3.54636
    R8        2.63600  -0.00322   0.00000  -0.00693  -0.00693   2.62908
    R9        2.05394  -0.00129   0.00000  -0.00366  -0.00366   2.05028
   R10        2.63601  -0.00457   0.00000  -0.00981  -0.00981   2.62620
   R11        2.05360  -0.00117   0.00000  -0.00331  -0.00331   2.05028
   R12        3.57137  -0.00471   0.00000  -0.02498  -0.02498   3.54639
    A1        2.09449  -0.00178   0.00000  -0.00735  -0.00735   2.08713
    A2        2.07882   0.00266   0.00000   0.01466   0.01466   2.09348
    A3        2.10988  -0.00088   0.00000  -0.00731  -0.00731   2.10257
    A4        2.09432  -0.00174   0.00000  -0.00723  -0.00723   2.08709
    A5        2.07900   0.00263   0.00000   0.01455   0.01455   2.09355
    A6        2.10986  -0.00089   0.00000  -0.00732  -0.00733   2.10254
    A7        2.09439   0.00351   0.00000   0.01456   0.01456   2.10895
    A8        2.09434  -0.00175   0.00000  -0.00724  -0.00724   2.08711
    A9        2.09445  -0.00177   0.00000  -0.00732  -0.00732   2.08713
   A10        2.09439  -0.00174   0.00000  -0.00725  -0.00725   2.08714
   A11        2.10987  -0.00090   0.00000  -0.00735  -0.00735   2.10253
   A12        2.07892   0.00263   0.00000   0.01460   0.01460   2.09352
   A13        2.09434  -0.00175   0.00000  -0.00725  -0.00725   2.08709
   A14        2.07897   0.00263   0.00000   0.01457   0.01457   2.09355
   A15        2.10987  -0.00089   0.00000  -0.00732  -0.00732   2.10255
   A16        2.09444   0.00349   0.00000   0.01452   0.01452   2.10896
   A17        2.09433  -0.00173   0.00000  -0.00721  -0.00721   2.08713
   A18        2.09441  -0.00176   0.00000  -0.00731  -0.00731   2.08710
    D1       -0.00011   0.00001   0.00000   0.00031   0.00030   0.00019
    D2       -3.14136   0.00000   0.00000  -0.00011  -0.00012  -3.14147
    D3       -3.14136   0.00000   0.00000   0.00001   0.00001  -3.14135
    D4        0.00058  -0.00001   0.00000  -0.00040  -0.00041   0.00017
    D5        0.00007  -0.00001   0.00000  -0.00031  -0.00031  -0.00024
    D6        3.14126   0.00002   0.00000   0.00068   0.00068  -3.14124
    D7        3.14131   0.00000   0.00000  -0.00001  -0.00001   3.14130
    D8       -0.00068   0.00002   0.00000   0.00098   0.00098   0.00030
    D9        0.00007   0.00000   0.00000  -0.00013  -0.00013  -0.00006
   D10       -3.14154   0.00000   0.00000  -0.00006  -0.00006   3.14159
   D11        3.14132   0.00001   0.00000   0.00030   0.00029  -3.14158
   D12       -0.00030   0.00001   0.00000   0.00037   0.00037   0.00007
   D13        0.00000   0.00000   0.00000  -0.00003  -0.00003  -0.00003
   D14        3.14135   0.00000   0.00000   0.00019   0.00018   3.14154
   D15       -3.14157   0.00000   0.00000  -0.00011  -0.00011   3.14151
   D16       -0.00022   0.00000   0.00000   0.00011   0.00011  -0.00011
   D17       -0.00004   0.00000   0.00000   0.00003   0.00003  -0.00001
   D18       -3.14158   0.00000   0.00000  -0.00013  -0.00013   3.14148
   D19       -3.14140   0.00000   0.00000  -0.00018  -0.00018  -3.14158
   D20        0.00025  -0.00001   0.00000  -0.00034  -0.00034  -0.00009
   D21        0.00001   0.00000   0.00000   0.00014   0.00014   0.00015
   D22       -3.14119  -0.00002   0.00000  -0.00085  -0.00085   3.14115
   D23        3.14155   0.00001   0.00000   0.00030   0.00030  -3.14134
   D24        0.00035  -0.00002   0.00000  -0.00069  -0.00069  -0.00034
         Item               Value     Threshold  Converged?
 Maximum Force            0.004707     0.000450     NO 
 RMS     Force            0.002080     0.000300     NO 
 Maximum Displacement     0.037341     0.001800     NO 
 RMS     Displacement     0.013008     0.001200     NO 
 Predicted change in Energy=-4.304702D-04
 GradGradGradGradGradGradGradGradGradGradGradGradGradGradGradGradGradGrad

                          Input orientation:                          
 ---------------------------------------------------------------------
 Center     Atomic      Atomic             Coordinates (Angstroms)
 Number     Number       Type             X           Y           Z
 ---------------------------------------------------------------------
      1          6           0        1.886838   -1.037110   -0.111999
      2          6           0        2.919976   -1.630174    0.606704
      3          6           0        2.868481   -1.646442    1.995364
      4          6           0        1.798085   -1.077735    2.675177
      5          6           0        0.765014   -0.484581    1.956493
      6          6           0        0.816538   -0.468269    0.567818
      7         35           0       -0.577324    0.331200   -0.401658
      8         35           0        4.262040   -2.446414    2.964827
      9          1           0        1.920861   -1.021262   -1.196312
     10          1           0        3.758513   -2.075964    0.082050
     11          1           0        1.763959   -1.093850    3.759479
     12          1           0       -0.073580   -0.038899    2.481158
 ---------------------------------------------------------------------
                    Distance matrix (angstroms):
                    1          2          3          4          5
     1  C    0.000000
     2  C    1.391270   0.000000
     3  C    2.403307   1.389709   0.000000
     4  C    2.788884   2.417108   1.389720   0.000000
     5  C    2.417113   2.788938   2.403331   1.391248   0.000000
     6  C    1.389703   2.403329   2.763412   2.403298   1.389726
     7  Br   2.833420   4.134597   4.640081   4.134559   2.833417
     8  Br   4.134559   2.833395   1.876652   2.833418   4.134575
     9  H    1.084963   2.149389   3.387569   3.873847   3.400616
    10  H    2.149427   1.084958   2.153466   3.400595   3.873896
    11  H    3.873843   3.400590   2.153469   1.084959   2.149385
    12  H    3.400607   3.873901   3.387611   2.149407   1.084964
                    6          7          8          9         10
     6  C    0.000000
     7  Br   1.876669   0.000000
     8  Br   4.640064   6.516733   0.000000
     9  H    2.153483   2.949841   4.982696   0.000000
    10  H    3.387605   4.982760   2.949776   2.474584   0.000000
    11  H    3.387574   4.982714   2.949798   4.958806   4.297241
    12  H    2.153494   2.949807   4.982737   4.297280   4.958859
                   11         12
    11  H    0.000000
    12  H    2.474587   0.000000
 Stoichiometry    C6H4Br2
 Framework group  C1[X(C6H4Br2)]
 Deg. of freedom    30
 Full point group                 C1      NOp   1
 Largest Abelian subgroup         C1      NOp   1
 Largest concise Abelian subgroup C1      NOp   1
                         Standard orientation:                         
 ---------------------------------------------------------------------
 Center     Atomic      Atomic             Coordinates (Angstroms)
 Number     Number       Type             X           Y           Z
 ---------------------------------------------------------------------
      1          6           0       -0.695619   -1.208548   -0.000182
      2          6           0        0.695651   -1.208562   -0.000119
      3          6           0        1.381712   -0.000003   -0.000024
      4          6           0        0.695615    1.208546   -0.000062
      5          6           0       -0.695633    1.208565   -0.000237
      6          6           0       -1.381700   -0.000009   -0.000385
      7         35           0       -3.258369   -0.000002    0.000108
      8         35           0        3.258364    0.000004    0.000071
      9          1           0       -1.237254   -2.148642   -0.000023
     10          1           0        1.237331   -2.148624   -0.000073
     11          1           0        1.237282    2.148617    0.000062
     12          1           0       -1.237305    2.148639   -0.000161
 ---------------------------------------------------------------------
 Rotational constants (GHZ):      5.6963350      0.2886294      0.2747100
 Standard basis: 6-31+G(d) (6D, 7F)
 There are   190 symmetry adapted cartesian basis functions of A   symmetry.
 There are   190 symmetry adapted basis functions of A   symmetry.
   190 basis functions,   382 primitive gaussians,   190 cartesian basis functions
    55 alpha electrons       55 beta electrons
       nuclear repulsion energy       755.5829742812 Hartrees.
 NAtoms=   12 NActive=   12 NUniq=   12 SFac= 1.00D+00 NAtFMM=   60 NAOKFM=F Big=F
 Integral buffers will be    131072 words long.
 Raffenetti 2 integral format.
 Two-electron integral symmetry is turned on.
 One-electron integrals computed using PRISM.
 NBasis=   190 RedAO= T EigKep=  4.28D-06  NBF=   190
 NBsUse=   190 1.00D-06 EigRej= -1.00D+00 NBFU=   190
 Initial guess from the checkpoint file:  "/srv/scratch/z5358697/gauss/Gau-1931917.chk"
 B after Tr=     0.000000    0.000000    0.000000
         Rot=    1.000000    0.000000    0.000000   -0.000002 Ang=   0.00 deg.
 ExpMin= 3.50D-02 ExpMax= 5.74D+05 ExpMxC= 5.74D+03 IAcc=3 IRadAn=         5 AccDes= 0.00D+00
 Harris functional with IExCor= 1009 and IRadAn=       5 diagonalized for initial guess.
 HarFok:  IExCor= 1009 AccDes= 0.00D+00 IRadAn=         5 IDoV= 1 UseB2=F ITyADJ=14
 ICtDFT=  3500011 ScaDFX=  1.000000  1.000000  1.000000  1.000000
 FoFCou: FMM=F IPFlag=           0 FMFlag=      100000 FMFlg1=           0
         NFxFlg=           0 DoJE=T BraDBF=F KetDBF=T FulRan=T
         wScrn=  0.000000 ICntrl=     500 IOpCl=  0 I1Cent=   200000004 NGrid=           0
         NMat0=    1 NMatS0=      1 NMatT0=    0 NMatD0=    1 NMtDS0=    0 NMtDT0=    0
 Petite list used in FoFCou.
 Requested convergence on RMS density matrix=1.00D-08 within 128 cycles.
 Requested convergence on MAX density matrix=1.00D-06.
 Requested convergence on             energy=1.00D-06.
 No special actions if energy rises.
 SCF Done:  E(RM062X) =  -5374.55272702     A.U. after   12 cycles
            NFock= 12  Conv=0.23D-08     -V/T= 2.0070
 Calling FoFJK, ICntrl=      2127 FMM=F ISym2X=0 I1Cent= 0 IOpClX= 0 NMat=1 NMatS=1 NMatT=0.
 ***** Axes restored to original set *****
 -------------------------------------------------------------------
 Center     Atomic                   Forces (Hartrees/Bohr)
 Number     Number              X              Y              Z
 -------------------------------------------------------------------
      1        6           0.000975825   -0.000486701   -0.000834676
      2        6           0.000208445   -0.000082359   -0.001333662
      3        6          -0.000687300    0.000428653   -0.000486934
      4        6          -0.000946023    0.000495439    0.000837587
      5        6          -0.000216816    0.000091718    0.001322742
      6        6           0.000648066   -0.000470423    0.000491724
      7       35          -0.001546602    0.000919782   -0.001085939
      8       35           0.001561751   -0.000903736    0.001090186
      9        1          -0.000537858    0.000304106    0.000006423
     10        1           0.000237605   -0.000151455    0.000542400
     11        1           0.000537559   -0.000296851   -0.000003407
     12        1          -0.000234651    0.000151826   -0.000546443
 -------------------------------------------------------------------
 Cartesian Forces:  Max     0.001561751 RMS     0.000736146

 GradGradGradGradGradGradGradGradGradGradGradGradGradGradGradGradGradGrad
 Berny optimization.
 Using GEDIIS/GDIIS optimizer.
 FormGI is forming the generalized inverse of G from B-inverse, IUseBI=4.
 Internal  Forces:  Max     0.002108143 RMS     0.000576280
 Search for a local minimum.
 Step number   2 out of a maximum of   64
 All quantities printed in internal units (Hartrees-Bohrs-Radians)
 Mixed Optimization -- En-DIIS/RFO-DIIS
 Update second derivatives using D2CorX and points    1    2
 DE= -3.89D-04 DEPred=-4.30D-04 R= 9.04D-01
 TightC=F SS=  1.41D+00  RLast= 6.07D-02 DXNew= 5.0454D-01 1.8222D-01
 Trust test= 9.04D-01 RLast= 6.07D-02 DXMaxT set to 3.00D-01
 ITU=  1  0
 Use linear search instead of GDIIS.
     Eigenvalues ---    0.02156   0.02156   0.02156   0.02156   0.02156
     Eigenvalues ---    0.02156   0.02157   0.02157   0.02158   0.13706
     Eigenvalues ---    0.16000   0.16000   0.16000   0.18754   0.21512
     Eigenvalues ---    0.22000   0.22990   0.24134   0.25000   0.25000
     Eigenvalues ---    0.35128   0.35174   0.35179   0.35192   0.42164
     Eigenvalues ---    0.42432   0.46465   0.46475   0.46486   0.52044
 RFO step:  Lambda=-5.95005624D-05 EMin= 2.15602001D-02
 Quartic linear search produced a step of -0.08952.
 Iteration  1 RMS(Cart)=  0.00298247 RMS(Int)=  0.00000670
 Iteration  2 RMS(Cart)=  0.00000678 RMS(Int)=  0.00000028
 Iteration  3 RMS(Cart)=  0.00000000 RMS(Int)=  0.00000028
 Variable       Old X    -DE/DX   Delta X   Delta X   Delta X     New X
                                 (Linear)    (Quad)   (Total)
    R1        2.62912   0.00061   0.00061   0.00009   0.00071   2.62983
    R2        2.62616   0.00111   0.00085   0.00065   0.00151   2.62766
    R3        2.05028  -0.00002   0.00033  -0.00063  -0.00031   2.04998
    R4        2.62617   0.00111   0.00088   0.00060   0.00149   2.62766
    R5        2.05027  -0.00002   0.00032  -0.00061  -0.00029   2.04998
    R6        2.62619   0.00110   0.00088   0.00060   0.00148   2.62767
    R7        3.54636   0.00211   0.00224   0.00620   0.00843   3.55479
    R8        2.62908   0.00062   0.00062   0.00011   0.00073   2.62981
    R9        2.05028  -0.00002   0.00033  -0.00063  -0.00030   2.04998
   R10        2.62620   0.00110   0.00088   0.00059   0.00147   2.62767
   R11        2.05028  -0.00002   0.00030  -0.00058  -0.00029   2.05000
   R12        3.54639   0.00210   0.00224   0.00617   0.00840   3.55479
    A1        2.08713  -0.00012   0.00066  -0.00164  -0.00098   2.08615
    A2        2.09348   0.00069  -0.00131   0.00620   0.00489   2.09837
    A3        2.10257  -0.00057   0.00065  -0.00456  -0.00391   2.09866
    A4        2.08709  -0.00011   0.00065  -0.00158  -0.00094   2.08616
    A5        2.09355   0.00068  -0.00130   0.00613   0.00482   2.09838
    A6        2.10254  -0.00057   0.00066  -0.00454  -0.00389   2.09865
    A7        2.10895   0.00023  -0.00130   0.00322   0.00192   2.11087
    A8        2.08711  -0.00011   0.00065  -0.00159  -0.00095   2.08616
    A9        2.08713  -0.00012   0.00066  -0.00163  -0.00097   2.08615
   A10        2.08714  -0.00012   0.00065  -0.00163  -0.00098   2.08616
   A11        2.10253  -0.00057   0.00066  -0.00454  -0.00389   2.09864
   A12        2.09352   0.00069  -0.00131   0.00617   0.00486   2.09838
   A13        2.08709  -0.00011   0.00065  -0.00159  -0.00094   2.08615
   A14        2.09355   0.00068  -0.00130   0.00614   0.00484   2.09839
   A15        2.10255  -0.00057   0.00066  -0.00456  -0.00390   2.09865
   A16        2.10896   0.00023  -0.00130   0.00321   0.00191   2.11087
   A17        2.08713  -0.00012   0.00065  -0.00161  -0.00096   2.08617
   A18        2.08710  -0.00011   0.00065  -0.00161  -0.00095   2.08615
    D1        0.00019  -0.00001  -0.00003  -0.00034  -0.00037  -0.00018
    D2       -3.14147   0.00000   0.00001  -0.00023  -0.00022   3.14150
    D3       -3.14135  -0.00001   0.00000  -0.00047  -0.00047   3.14137
    D4        0.00017  -0.00001   0.00004  -0.00036  -0.00032  -0.00015
    D5       -0.00024   0.00001   0.00003   0.00045   0.00048   0.00024
    D6       -3.14124  -0.00002  -0.00006  -0.00080  -0.00086   3.14109
    D7        3.14130   0.00001   0.00000   0.00058   0.00058  -3.14130
    D8        0.00030  -0.00002  -0.00009  -0.00067  -0.00076  -0.00045
    D9       -0.00006   0.00000   0.00001   0.00014   0.00016   0.00010
   D10        3.14159   0.00000   0.00001  -0.00008  -0.00007   3.14151
   D11       -3.14158   0.00000  -0.00003   0.00003   0.00000  -3.14158
   D12        0.00007  -0.00001  -0.00003  -0.00020  -0.00023  -0.00016
   D13       -0.00003   0.00000   0.00000  -0.00005  -0.00004  -0.00008
   D14        3.14154   0.00000  -0.00002   0.00007   0.00005   3.14159
   D15        3.14151   0.00000   0.00001   0.00018   0.00019  -3.14149
   D16       -0.00011   0.00001  -0.00001   0.00029   0.00028   0.00018
   D17       -0.00001   0.00000   0.00000   0.00015   0.00015   0.00014
   D18        3.14148   0.00001   0.00001   0.00031   0.00032  -3.14138
   D19       -3.14158   0.00000   0.00002   0.00004   0.00005  -3.14153
   D20       -0.00009   0.00001   0.00003   0.00020   0.00023   0.00014
   D21        0.00015  -0.00001  -0.00001  -0.00036  -0.00037  -0.00022
   D22        3.14115   0.00002   0.00008   0.00089   0.00097  -3.14107
   D23       -3.14134  -0.00001  -0.00003  -0.00052  -0.00055   3.14130
   D24       -0.00034   0.00002   0.00006   0.00073   0.00079   0.00045
         Item               Value     Threshold  Converged?
 Maximum Force            0.002108     0.000450     NO 
 RMS     Force            0.000576     0.000300     NO 
 Maximum Displacement     0.007985     0.001800     NO 
 RMS     Displacement     0.002981     0.001200     NO 
 Predicted change in Energy=-3.353320D-05
 GradGradGradGradGradGradGradGradGradGradGradGradGradGradGradGradGradGrad

                          Input orientation:                          
 ---------------------------------------------------------------------
 Center     Atomic      Atomic             Coordinates (Angstroms)
 Number     Number       Type             X           Y           Z
 ---------------------------------------------------------------------
      1          6           0        1.887226   -1.037519   -0.113263
      2          6           0        2.920696   -1.630622    0.605656
      3          6           0        2.868103   -1.646090    1.995071
      4          6           0        1.797604   -1.077520    2.676431
      5          6           0        0.764128   -0.484441    1.957524
      6          6           0        0.816683   -0.469036    0.568100
      7         35           0       -0.579890    0.333402   -0.403636
      8         35           0        4.264997   -2.447913    2.966853
      9          1           0        1.916763   -1.018860   -1.197501
     10          1           0        3.761312   -2.077596    0.085680
     11          1           0        1.768185   -1.096002    3.760675
     12          1           0       -0.076408   -0.037303    2.477510
 ---------------------------------------------------------------------
                    Distance matrix (angstroms):
                    1          2          3          4          5
     1  C    0.000000
     2  C    1.391645   0.000000
     3  C    2.403654   1.390495   0.000000
     4  C    2.791420   2.419786   1.390501   0.000000
     5  C    2.419794   2.791427   2.403654   1.391634   0.000000
     6  C    1.390500   2.403656   2.762251   2.403647   1.390503
     7  Br   2.837323   4.138860   4.643366   4.138840   2.837310
     8  Br   4.138855   2.837316   1.881115   2.837314   4.138847
     9  H    1.084801   2.152559   3.389835   3.876209   3.401229
    10  H    2.152566   1.084803   2.151695   3.401219   3.876217
    11  H    3.876208   3.401212   2.151692   1.084800   2.152554
    12  H    3.401234   3.876226   3.389851   2.152567   1.084812
                    6          7          8          9         10
     6  C    0.000000
     7  Br   1.881115   0.000000
     8  Br   4.643366   6.524480   0.000000
     9  H    2.151704   2.948239   4.989814   0.000000
    10  H    3.389843   4.989828   2.948218   2.483916   0.000000
    11  H    3.389835   4.989804   2.948201   4.961002   4.294377
    12  H    2.151709   2.948206   4.989819   4.294402   4.961022
                   11         12
    11  H    0.000000
    12  H    2.483924   0.000000
 Stoichiometry    C6H4Br2
 Framework group  C1[X(C6H4Br2)]
 Deg. of freedom    30
 Full point group                 C1      NOp   1
 Largest Abelian subgroup         C1      NOp   1
 Largest concise Abelian subgroup C1      NOp   1
                         Standard orientation:                         
 ---------------------------------------------------------------------
 Center     Atomic      Atomic             Coordinates (Angstroms)
 Number     Number       Type             X           Y           Z
 ---------------------------------------------------------------------
      1          6           0       -0.695819   -1.209907    0.000266
      2          6           0        0.695826   -1.209902    0.000118
      3          6           0        1.381125   -0.000009   -0.000018
      4          6           0        0.695813    1.209884    0.000107
      5          6           0       -0.695820    1.209888    0.000280
      6          6           0       -1.381125   -0.000011    0.000489
      7         35           0       -3.262240    0.000005   -0.000138
      8         35           0        3.262240    0.000006   -0.000086
      9          1           0       -1.241948   -2.147210    0.000160
     10          1           0        1.241968   -2.147200    0.000033
     11          1           0        1.241957    2.147177    0.000001
     12          1           0       -1.241968    2.147193    0.000181
 ---------------------------------------------------------------------
 Rotational constants (GHZ):      5.6879562      0.2879703      0.2740934
 Standard basis: 6-31+G(d) (6D, 7F)
 There are   190 symmetry adapted cartesian basis functions of A   symmetry.
 There are   190 symmetry adapted basis functions of A   symmetry.
   190 basis functions,   382 primitive gaussians,   190 cartesian basis functions
    55 alpha electrons       55 beta electrons
       nuclear repulsion energy       754.7373885468 Hartrees.
 NAtoms=   12 NActive=   12 NUniq=   12 SFac= 1.00D+00 NAtFMM=   60 NAOKFM=F Big=F
 Integral buffers will be    131072 words long.
 Raffenetti 2 integral format.
 Two-electron integral symmetry is turned on.
 One-electron integrals computed using PRISM.
 NBasis=   190 RedAO= T EigKep=  4.31D-06  NBF=   190
 NBsUse=   190 1.00D-06 EigRej= -1.00D+00 NBFU=   190
 Initial guess from the checkpoint file:  "/srv/scratch/z5358697/gauss/Gau-1931917.chk"
 B after Tr=     0.000000    0.000000    0.000000
         Rot=    1.000000    0.000000    0.000000    0.000000 Ang=   0.00 deg.
 Requested convergence on RMS density matrix=1.00D-08 within 128 cycles.
 Requested convergence on MAX density matrix=1.00D-06.
 Requested convergence on             energy=1.00D-06.
 No special actions if energy rises.
 SCF Done:  E(RM062X) =  -5374.55276649     A.U. after    9 cycles
            NFock=  9  Conv=0.62D-08     -V/T= 2.0070
 Calling FoFJK, ICntrl=      2127 FMM=F ISym2X=0 I1Cent= 0 IOpClX= 0 NMat=1 NMatS=1 NMatT=0.
 ***** Axes restored to original set *****
 -------------------------------------------------------------------
 Center     Atomic                   Forces (Hartrees/Bohr)
 Number     Number              X              Y              Z
 -------------------------------------------------------------------
      1        6           0.000219806   -0.000144262   -0.000221425
      2        6           0.000076468   -0.000016884   -0.000338157
      3        6          -0.000228784    0.000070071   -0.000140719
      4        6          -0.000222614    0.000127993    0.000227465
      5        6          -0.000090004    0.000012258    0.000332299
      6        6           0.000256490   -0.000019018    0.000144921
      7       35          -0.000208222    0.000077513   -0.000134830
      8       35           0.000196907   -0.000099316    0.000133002
      9        1          -0.000100494    0.000051631   -0.000075674
     10        1           0.000103268   -0.000056620    0.000064102
     11        1           0.000097114   -0.000054381    0.000076395
     12        1          -0.000099935    0.000051014   -0.000067379
 -------------------------------------------------------------------
 Cartesian Forces:  Max     0.000338157 RMS     0.000153197

 GradGradGradGradGradGradGradGradGradGradGradGradGradGradGradGradGradGrad
 Berny optimization.
 Using GEDIIS/GDIIS optimizer.
 FormGI is forming the generalized inverse of G from B-inverse, IUseBI=4.
 Internal  Forces:  Max     0.000288248 RMS     0.000127330
 Search for a local minimum.
 Step number   3 out of a maximum of   64
 All quantities printed in internal units (Hartrees-Bohrs-Radians)
 Mixed Optimization -- En-DIIS/RFO-DIIS
 Swapping is turned off.
 Update second derivatives using D2CorX and points    1    2    3
 DE= -3.95D-05 DEPred=-3.35D-05 R= 1.18D+00
 TightC=F SS=  1.41D+00  RLast= 1.81D-02 DXNew= 5.0454D-01 5.4191D-02
 Trust test= 1.18D+00 RLast= 1.81D-02 DXMaxT set to 3.00D-01
 ITU=  1  1  0
     Eigenvalues ---    0.02156   0.02156   0.02156   0.02156   0.02156
     Eigenvalues ---    0.02156   0.02157   0.02157   0.02169   0.11649
     Eigenvalues ---    0.16000   0.16000   0.16000   0.18754   0.19865
     Eigenvalues ---    0.22000   0.22991   0.25000   0.25000   0.25333
     Eigenvalues ---    0.35174   0.35178   0.35190   0.35266   0.42176
     Eigenvalues ---    0.42427   0.46423   0.46475   0.46486   0.49969
 En-DIIS/RFO-DIIS IScMMF=        0 using points:     3    2
 RFO step:  Lambda=-1.94658200D-06.
 DidBck=F Rises=F RFO-DIIS coefs:    1.21863   -0.21863
 Iteration  1 RMS(Cart)=  0.00108893 RMS(Int)=  0.00000124
 Iteration  2 RMS(Cart)=  0.00000137 RMS(Int)=  0.00000031
 Iteration  3 RMS(Cart)=  0.00000000 RMS(Int)=  0.00000031
 Variable       Old X    -DE/DX   Delta X   Delta X   Delta X     New X
                                 (Linear)    (Quad)   (Total)
    R1        2.62983   0.00002   0.00015  -0.00022  -0.00006   2.62976
    R2        2.62766   0.00028   0.00033   0.00029   0.00062   2.62829
    R3        2.04998   0.00007  -0.00007   0.00025   0.00018   2.05016
    R4        2.62766   0.00029   0.00032   0.00031   0.00063   2.62829
    R5        2.04998   0.00007  -0.00006   0.00024   0.00018   2.05016
    R6        2.62767   0.00029   0.00032   0.00030   0.00063   2.62829
    R7        3.55479   0.00026   0.00184  -0.00034   0.00150   3.55629
    R8        2.62981   0.00002   0.00016  -0.00021  -0.00005   2.62976
    R9        2.04998   0.00007  -0.00007   0.00025   0.00018   2.05016
   R10        2.62767   0.00028   0.00032   0.00030   0.00062   2.62829
   R11        2.05000   0.00007  -0.00006   0.00022   0.00016   2.05016
   R12        3.55479   0.00026   0.00184  -0.00034   0.00150   3.55629
    A1        2.08615  -0.00012  -0.00021  -0.00061  -0.00083   2.08533
    A2        2.09837   0.00018   0.00107   0.00062   0.00169   2.10006
    A3        2.09866  -0.00005  -0.00085  -0.00001  -0.00087   2.09779
    A4        2.08616  -0.00013  -0.00020  -0.00062  -0.00082   2.08533
    A5        2.09838   0.00018   0.00105   0.00062   0.00168   2.10006
    A6        2.09865  -0.00005  -0.00085  -0.00001  -0.00085   2.09780
    A7        2.11087   0.00025   0.00042   0.00123   0.00165   2.11252
    A8        2.08616  -0.00013  -0.00021  -0.00062  -0.00083   2.08533
    A9        2.08615  -0.00012  -0.00021  -0.00061  -0.00083   2.08533
   A10        2.08616  -0.00013  -0.00021  -0.00062  -0.00084   2.08533
   A11        2.09864  -0.00005  -0.00085   0.00000  -0.00085   2.09779
   A12        2.09838   0.00018   0.00106   0.00062   0.00168   2.10007
   A13        2.08615  -0.00012  -0.00020  -0.00061  -0.00082   2.08533
   A14        2.09839   0.00018   0.00106   0.00062   0.00168   2.10006
   A15        2.09865  -0.00005  -0.00085  -0.00001  -0.00086   2.09779
   A16        2.11087   0.00025   0.00042   0.00123   0.00165   2.11252
   A17        2.08617  -0.00013  -0.00021  -0.00062  -0.00083   2.08533
   A18        2.08615  -0.00012  -0.00021  -0.00061  -0.00082   2.08533
    D1       -0.00018   0.00001  -0.00008   0.00067   0.00059   0.00041
    D2        3.14150   0.00001  -0.00005   0.00036   0.00031  -3.14138
    D3        3.14137   0.00001  -0.00010   0.00082   0.00071  -3.14111
    D4       -0.00015   0.00001  -0.00007   0.00050   0.00043   0.00029
    D5        0.00024  -0.00001   0.00011  -0.00089  -0.00079  -0.00055
    D6        3.14109   0.00003  -0.00019   0.00187   0.00168  -3.14042
    D7       -3.14130  -0.00002   0.00013  -0.00104  -0.00091   3.14097
    D8       -0.00045   0.00003  -0.00017   0.00172   0.00155   0.00110
    D9        0.00010  -0.00001   0.00003  -0.00040  -0.00036  -0.00027
   D10        3.14151   0.00001  -0.00002   0.00039   0.00038  -3.14130
   D11       -3.14158   0.00000   0.00000  -0.00009  -0.00009   3.14152
   D12       -0.00016   0.00001  -0.00005   0.00071   0.00065   0.00049
   D13       -0.00008   0.00001  -0.00001   0.00033   0.00032   0.00025
   D14        3.14159   0.00000   0.00001   0.00008   0.00009  -3.14151
   D15       -3.14149  -0.00001   0.00004  -0.00046  -0.00042   3.14128
   D16        0.00018  -0.00001   0.00006  -0.00071  -0.00065  -0.00048
   D17        0.00014  -0.00001   0.00003  -0.00054  -0.00051  -0.00037
   D18       -3.14138  -0.00001   0.00007  -0.00077  -0.00069   3.14111
   D19       -3.14153   0.00000   0.00001  -0.00028  -0.00027   3.14138
   D20        0.00014  -0.00001   0.00005  -0.00051  -0.00046  -0.00032
   D21       -0.00022   0.00001  -0.00008   0.00083   0.00075   0.00053
   D22       -3.14107  -0.00003   0.00021  -0.00193  -0.00172   3.14040
   D23        3.14130   0.00002  -0.00012   0.00105   0.00093  -3.14095
   D24        0.00045  -0.00003   0.00017  -0.00171  -0.00153  -0.00108
         Item               Value     Threshold  Converged?
 Maximum Force            0.000288     0.000450     YES
 RMS     Force            0.000127     0.000300     YES
 Maximum Displacement     0.002206     0.001800     NO 
 RMS     Displacement     0.001089     0.001200     YES
 Predicted change in Energy=-2.437305D-06
 GradGradGradGradGradGradGradGradGradGradGradGradGradGradGradGradGradGrad

                          Input orientation:                          
 ---------------------------------------------------------------------
 Center     Atomic      Atomic             Coordinates (Angstroms)
 Number     Number       Type             X           Y           Z
 ---------------------------------------------------------------------
      1          6           0        1.887832   -1.037360   -0.113972
      2          6           0        2.921102   -1.630765    0.604920
      3          6           0        2.867299   -1.646036    1.994624
      4          6           0        1.797213   -1.077293    2.677164
      5          6           0        0.763956   -0.483869    1.958273
      6          6           0        0.817833   -0.468462    0.568571
      7         35           0       -0.580416    0.332329   -0.403652
      8         35           0        4.264851   -2.448085    2.966814
      9          1           0        1.915596   -1.018118   -1.198342
     10          1           0        3.762424   -2.078435    0.086490
     11          1           0        1.769269   -1.096866    3.761524
     12          1           0       -0.077557   -0.036539    2.476686
 ---------------------------------------------------------------------
                    Distance matrix (angstroms):
                    1          2          3          4          5
     1  C    0.000000
     2  C    1.391611   0.000000
     3  C    2.403335   1.390829   0.000000
     4  C    2.792892   2.421498   1.390832   0.000000
     5  C    2.421498   2.792887   2.403333   1.391609   0.000000
     6  C    1.390830   2.403333   2.760548   2.403336   1.390832
     7  Br   2.837642   4.139032   4.642456   4.139031   2.837641
     8  Br   4.139034   2.837643   1.881910   2.837640   4.139030
     9  H    1.084896   2.153632   3.390436   3.877765   3.402340
    10  H    2.153629   1.084897   2.151556   3.402341   3.877760
    11  H    3.877766   3.402340   2.151556   1.084896   2.153632
    12  H    3.402339   3.877760   3.390434   2.153630   1.084896
                    6          7          8          9         10
     6  C    0.000000
     7  Br   1.881910   0.000000
     8  Br   4.642457   6.524366   0.000000
     9  H    2.151555   2.947086   4.991225   0.000000
    10  H    3.390433   4.991221   2.947090   2.487135   0.000000
    11  H    3.390438   4.991223   2.947081   4.962648   4.294416
    12  H    2.151554   2.947080   4.991221   4.294414   4.962643
                   11         12
    11  H    0.000000
    12  H    2.487141   0.000000
 Stoichiometry    C6H4Br2
 Framework group  C1[X(C6H4Br2)]
 Deg. of freedom    30
 Full point group                 C1      NOp   1
 Largest Abelian subgroup         C1      NOp   1
 Largest concise Abelian subgroup C1      NOp   1
                         Standard orientation:                         
 ---------------------------------------------------------------------
 Center     Atomic      Atomic             Coordinates (Angstroms)
 Number     Number       Type             X           Y           Z
 ---------------------------------------------------------------------
      1          6           0       -0.695806   -1.210752   -0.000594
      2          6           0        0.695804   -1.210750   -0.000212
      3          6           0        1.380273   -0.000003    0.000140
      4          6           0        0.695806    1.210748   -0.000201
      5          6           0       -0.695804    1.210746   -0.000606
      6          6           0       -1.380274   -0.000003   -0.001113
      7         35           0       -3.262183    0.000001    0.000298
      8         35           0        3.262183    0.000001    0.000169
      9          1           0       -1.243570   -2.147210   -0.000417
     10          1           0        1.243565   -2.147211   -0.000005
     11          1           0        1.243571    2.147206    0.000000
     12          1           0       -1.243569    2.147204   -0.000422
 ---------------------------------------------------------------------
 Rotational constants (GHZ):      5.6815968      0.2879867      0.2740935
 Standard basis: 6-31+G(d) (6D, 7F)
 There are   190 symmetry adapted cartesian basis functions of A   symmetry.
 There are   190 symmetry adapted basis functions of A   symmetry.
   190 basis functions,   382 primitive gaussians,   190 cartesian basis functions
    55 alpha electrons       55 beta electrons
       nuclear repulsion energy       754.6517629093 Hartrees.
 NAtoms=   12 NActive=   12 NUniq=   12 SFac= 1.00D+00 NAtFMM=   60 NAOKFM=F Big=F
 Integral buffers will be    131072 words long.
 Raffenetti 2 integral format.
 Two-electron integral symmetry is turned on.
 One-electron integrals computed using PRISM.
 NBasis=   190 RedAO= T EigKep=  4.32D-06  NBF=   190
 NBsUse=   190 1.00D-06 EigRej= -1.00D+00 NBFU=   190
 Initial guess from the checkpoint file:  "/srv/scratch/z5358697/gauss/Gau-1931917.chk"
 B after Tr=     0.000000    0.000000    0.000000
         Rot=    1.000000    0.000000    0.000000    0.000000 Ang=   0.00 deg.
 Requested convergence on RMS density matrix=1.00D-08 within 128 cycles.
 Requested convergence on MAX density matrix=1.00D-06.
 Requested convergence on             energy=1.00D-06.
 No special actions if energy rises.
 SCF Done:  E(RM062X) =  -5374.55276847     A.U. after    9 cycles
            NFock=  9  Conv=0.85D-08     -V/T= 2.0070
 Calling FoFJK, ICntrl=      2127 FMM=F ISym2X=0 I1Cent= 0 IOpClX= 0 NMat=1 NMatS=1 NMatT=0.
 ***** Axes restored to original set *****
 -------------------------------------------------------------------
 Center     Atomic                   Forces (Hartrees/Bohr)
 Number     Number              X              Y              Z
 -------------------------------------------------------------------
      1        6          -0.000034459    0.000090688    0.000010486
      2        6           0.000006251   -0.000046448    0.000066178
      3        6           0.000027933    0.000149889   -0.000023057
      4        6           0.000050334   -0.000063571   -0.000009426
      5        6           0.000004593    0.000066793   -0.000067483
      6        6          -0.000085834   -0.000254051    0.000021678
      7       35           0.000033252    0.000079415   -0.000003283
      8       35          -0.000008688   -0.000034868    0.000004267
      9        1           0.000007149    0.000008074    0.000010075
     10        1          -0.000010531    0.000001258    0.000003027
     11        1          -0.000004289   -0.000002709   -0.000010316
     12        1           0.000014289    0.000005528   -0.000002146
 -------------------------------------------------------------------
 Cartesian Forces:  Max     0.000254051 RMS     0.000061779

 GradGradGradGradGradGradGradGradGradGradGradGradGradGradGradGradGradGrad
 Berny optimization.
 Using GEDIIS/GDIIS optimizer.
 FormGI is forming the generalized inverse of G from B-inverse, IUseBI=4.
 Internal  Forces:  Max     0.000068900 RMS     0.000028929
 Search for a local minimum.
 Step number   4 out of a maximum of   64
 All quantities printed in internal units (Hartrees-Bohrs-Radians)
 Mixed Optimization -- En-DIIS/RFO-DIIS
 Swapping is turned off.
 Update second derivatives using D2CorX and points    1    2    3    4
 DE= -1.98D-06 DEPred=-2.44D-06 R= 8.12D-01
 TightC=F SS=  1.41D+00  RLast= 6.96D-03 DXNew= 5.0454D-01 2.0873D-02
 Trust test= 8.12D-01 RLast= 6.96D-03 DXMaxT set to 3.00D-01
 ITU=  1  1  1  0
     Eigenvalues ---    0.02156   0.02156   0.02156   0.02156   0.02156
     Eigenvalues ---    0.02156   0.02157   0.02157   0.02572   0.10995
     Eigenvalues ---    0.16000   0.16000   0.16000   0.18754   0.19329
     Eigenvalues ---    0.22000   0.22992   0.25000   0.25000   0.25089
     Eigenvalues ---    0.35174   0.35178   0.35191   0.35365   0.42184
     Eigenvalues ---    0.42421   0.46474   0.46486   0.46948   0.50832
 En-DIIS/RFO-DIIS IScMMF=        0 using points:     4    3    2
 RFO step:  Lambda=-1.94298091D-07.
 DidBck=T Rises=F RFO-DIIS coefs:    0.62422    0.48056   -0.10478
 Iteration  1 RMS(Cart)=  0.00049525 RMS(Int)=  0.00000045
 Iteration  2 RMS(Cart)=  0.00000042 RMS(Int)=  0.00000018
 Variable       Old X    -DE/DX   Delta X   Delta X   Delta X     New X
                                 (Linear)    (Quad)   (Total)
    R1        2.62976   0.00003   0.00010  -0.00007   0.00003   2.62979
    R2        2.62829  -0.00006  -0.00008   0.00004  -0.00003   2.62826
    R3        2.05016  -0.00001  -0.00010   0.00010   0.00000   2.05015
    R4        2.62829  -0.00006  -0.00008   0.00005  -0.00003   2.62826
    R5        2.05016  -0.00001  -0.00010   0.00009   0.00000   2.05015
    R6        2.62829  -0.00006  -0.00008   0.00005  -0.00003   2.62826
    R7        3.55629   0.00001   0.00032  -0.00020   0.00012   3.55641
    R8        2.62976   0.00003   0.00009  -0.00006   0.00003   2.62979
    R9        2.05016  -0.00001  -0.00010   0.00010   0.00000   2.05015
   R10        2.62829  -0.00006  -0.00008   0.00005  -0.00003   2.62826
   R11        2.05016  -0.00001  -0.00009   0.00009   0.00000   2.05015
   R12        3.55629   0.00001   0.00032  -0.00020   0.00012   3.55641
    A1        2.08533   0.00000   0.00021  -0.00026  -0.00005   2.08528
    A2        2.10006   0.00000  -0.00012   0.00022   0.00010   2.10016
    A3        2.09779   0.00000  -0.00008   0.00003  -0.00005   2.09774
    A4        2.08533   0.00000   0.00021  -0.00026  -0.00005   2.08528
    A5        2.10006   0.00000  -0.00013   0.00023   0.00010   2.10016
    A6        2.09780   0.00000  -0.00009   0.00004  -0.00005   2.09775
    A7        2.11252  -0.00001  -0.00042   0.00052   0.00010   2.11263
    A8        2.08533   0.00000   0.00021  -0.00026  -0.00005   2.08528
    A9        2.08533   0.00000   0.00021  -0.00026  -0.00005   2.08528
   A10        2.08533   0.00000   0.00021  -0.00026  -0.00005   2.08528
   A11        2.09779   0.00000  -0.00009   0.00004  -0.00005   2.09774
   A12        2.10007  -0.00001  -0.00012   0.00022   0.00010   2.10016
   A13        2.08533   0.00000   0.00021  -0.00026  -0.00005   2.08528
   A14        2.10006   0.00000  -0.00012   0.00022   0.00010   2.10016
   A15        2.09779   0.00000  -0.00009   0.00004  -0.00005   2.09774
   A16        2.11252  -0.00001  -0.00042   0.00052   0.00010   2.11263
   A17        2.08533   0.00000   0.00021  -0.00026  -0.00005   2.08528
   A18        2.08533   0.00000   0.00021  -0.00026  -0.00005   2.08528
    D1        0.00041  -0.00002  -0.00026  -0.00040  -0.00066  -0.00025
    D2       -3.14138  -0.00001  -0.00014  -0.00024  -0.00038   3.14143
    D3       -3.14111  -0.00003  -0.00032  -0.00045  -0.00077   3.14131
    D4        0.00029  -0.00002  -0.00020  -0.00029  -0.00049  -0.00020
    D5       -0.00055   0.00003   0.00035   0.00051   0.00086   0.00031
    D6       -3.14042  -0.00007  -0.00072  -0.00110  -0.00183   3.14094
    D7        3.14097   0.00004   0.00040   0.00056   0.00097  -3.14125
    D8        0.00110  -0.00006  -0.00066  -0.00105  -0.00171  -0.00061
    D9       -0.00027   0.00002   0.00015   0.00031   0.00046   0.00020
   D10       -3.14130  -0.00002  -0.00015  -0.00044  -0.00059   3.14130
   D11        3.14152   0.00001   0.00003   0.00015   0.00018  -3.14148
   D12        0.00049  -0.00003  -0.00027  -0.00060  -0.00087  -0.00037
   D13        0.00025  -0.00002  -0.00013  -0.00032  -0.00045  -0.00020
   D14       -3.14151  -0.00001  -0.00003  -0.00017  -0.00020   3.14148
   D15        3.14128   0.00002   0.00018   0.00043   0.00060  -3.14130
   D16       -0.00048   0.00003   0.00027   0.00058   0.00085   0.00038
   D17       -0.00037   0.00002   0.00021   0.00042   0.00062   0.00025
   D18        3.14111   0.00003   0.00029   0.00047   0.00076  -3.14131
   D19        3.14138   0.00001   0.00011   0.00027   0.00037  -3.14143
   D20       -0.00032   0.00002   0.00020   0.00032   0.00051   0.00019
   D21        0.00053  -0.00003  -0.00032  -0.00052  -0.00084  -0.00031
   D22        3.14040   0.00007   0.00075   0.00109   0.00184  -3.14095
   D23       -3.14095  -0.00004  -0.00041  -0.00057  -0.00098   3.14125
   D24       -0.00108   0.00006   0.00066   0.00104   0.00170   0.00062
         Item               Value     Threshold  Converged?
 Maximum Force            0.000069     0.000450     YES
 RMS     Force            0.000029     0.000300     YES
 Maximum Displacement     0.002054     0.001800     NO 
 RMS     Displacement     0.000495     0.001200     YES
 Predicted change in Energy=-4.967577D-07
 GradGradGradGradGradGradGradGradGradGradGradGradGradGradGradGradGradGrad

                          Input orientation:                          
 ---------------------------------------------------------------------
 Center     Atomic      Atomic             Coordinates (Angstroms)
 Number     Number       Type             X           Y           Z
 ---------------------------------------------------------------------
      1          6           0        1.887624   -1.037744   -0.114005
      2          6           0        2.921115   -1.630778    0.604906
      3          6           0        2.867489   -1.645583    1.994606
      4          6           0        1.797213   -1.077287    2.677185
      5          6           0        0.763724   -0.484251    1.958274
      6          6           0        0.817316   -0.469507    0.568571
      7         35           0       -0.579817    0.333416   -0.403619
      8         35           0        4.264905   -2.447990    2.966815
      9          1           0        1.915452   -1.018158   -1.198366
     10          1           0        3.762584   -2.078288    0.086580
     11          1           0        1.769465   -1.096728    3.761551
     12          1           0       -0.077670   -0.036602    2.476601
 ---------------------------------------------------------------------
                    Distance matrix (angstroms):
                    1          2          3          4          5
     1  C    0.000000
     2  C    1.391627   0.000000
     3  C    2.403299   1.390813   0.000000
     4  C    2.792934   2.421538   1.390814   0.000000
     5  C    2.421538   2.792931   2.403297   1.391627   0.000000
     6  C    1.390813   2.403297   2.760423   2.403299   1.390814
     7  Br   2.837643   4.139046   4.642395   4.139047   2.837643
     8  Br   4.139047   2.837643   1.881972   2.837642   4.139045
     9  H    1.084895   2.153706   3.390443   3.877805   3.402339
    10  H    2.153704   1.084895   2.151509   3.402340   3.877802
    11  H    3.877806   3.402339   2.151510   1.084895   2.153707
    12  H    3.402337   3.877801   3.390442   2.153705   1.084894
                    6          7          8          9         10
     6  C    0.000000
     7  Br   1.881972   0.000000
     8  Br   4.642395   6.524367   0.000000
     9  H    2.151508   2.946989   4.991300   0.000000
    10  H    3.390441   4.991297   2.946992   2.487339   0.000000
    11  H    3.390445   4.991300   2.946987   4.962687   4.294344
    12  H    2.151507   2.946987   4.991298   4.294341   4.962683
                   11         12
    11  H    0.000000
    12  H    2.487342   0.000000
 Stoichiometry    C6H4Br2
 Framework group  C1[X(C6H4Br2)]
 Deg. of freedom    30
 Full point group                 C1      NOp   1
 Largest Abelian subgroup         C1      NOp   1
 Largest concise Abelian subgroup C1      NOp   1
                         Standard orientation:                         
 ---------------------------------------------------------------------
 Center     Atomic      Atomic             Coordinates (Angstroms)
 Number     Number       Type             X           Y           Z
 ---------------------------------------------------------------------
      1          6           0       -0.695814   -1.210770    0.000288
      2          6           0        0.695813   -1.210769    0.000041
      3          6           0        1.380212   -0.000001   -0.000196
      4          6           0        0.695814    1.210769    0.000043
      5          6           0       -0.695813    1.210768    0.000287
      6          6           0       -1.380212   -0.000001    0.000594
      7         35           0       -3.262184    0.000001   -0.000136
      8         35           0        3.262184    0.000000   -0.000055
      9          1           0       -1.243671   -2.147172    0.000211
     10          1           0        1.243667   -2.147173   -0.000044
     11          1           0        1.243672    2.147171   -0.000045
     12          1           0       -1.243670    2.147169    0.000213
 ---------------------------------------------------------------------
 Rotational constants (GHZ):      5.6814900      0.2879870      0.2740936
 Standard basis: 6-31+G(d) (6D, 7F)
 There are   190 symmetry adapted cartesian basis functions of A   symmetry.
 There are   190 symmetry adapted basis functions of A   symmetry.
   190 basis functions,   382 primitive gaussians,   190 cartesian basis functions
    55 alpha electrons       55 beta electrons
       nuclear repulsion energy       754.6491461045 Hartrees.
 NAtoms=   12 NActive=   12 NUniq=   12 SFac= 1.00D+00 NAtFMM=   60 NAOKFM=F Big=F
 Integral buffers will be    131072 words long.
 Raffenetti 2 integral format.
 Two-electron integral symmetry is turned on.
 One-electron integrals computed using PRISM.
 NBasis=   190 RedAO= T EigKep=  4.32D-06  NBF=   190
 NBsUse=   190 1.00D-06 EigRej= -1.00D+00 NBFU=   190
 Initial guess from the checkpoint file:  "/srv/scratch/z5358697/gauss/Gau-1931917.chk"
 B after Tr=     0.000000    0.000000    0.000000
         Rot=    1.000000    0.000000    0.000000    0.000000 Ang=   0.00 deg.
 Requested convergence on RMS density matrix=1.00D-08 within 128 cycles.
 Requested convergence on MAX density matrix=1.00D-06.
 Requested convergence on             energy=1.00D-06.
 No special actions if energy rises.
 SCF Done:  E(RM062X) =  -5374.55276862     A.U. after    8 cycles
            NFock=  8  Conv=0.78D-08     -V/T= 2.0070
 Calling FoFJK, ICntrl=      2127 FMM=F ISym2X=0 I1Cent= 0 IOpClX= 0 NMat=1 NMatS=1 NMatT=0.
 ***** Axes restored to original set *****
 -------------------------------------------------------------------
 Center     Atomic                   Forces (Hartrees/Bohr)
 Number     Number              X              Y              Z
 -------------------------------------------------------------------
      1        6          -0.000064672   -0.000005196    0.000013765
      2        6           0.000022175    0.000014138    0.000054218
      3        6          -0.000058332   -0.000087392   -0.000007085
      4        6           0.000060068   -0.000003763   -0.000014437
      5        6          -0.000027474   -0.000024456   -0.000055705
      6        6           0.000081391    0.000130029    0.000009683
      7       35          -0.000017943   -0.000045287    0.000002369
      8       35           0.000007999    0.000027079   -0.000003064
      9        1           0.000006265   -0.000011385    0.000009935
     10        1          -0.000010438    0.000010006   -0.000004493
     11        1          -0.000007811    0.000008490   -0.000010242
     12        1           0.000008771   -0.000012262    0.000005057
 -------------------------------------------------------------------
 Cartesian Forces:  Max     0.000130029 RMS     0.000039160

 GradGradGradGradGradGradGradGradGradGradGradGradGradGradGradGradGradGrad
 Berny optimization.
 Using GEDIIS/GDIIS optimizer.
 FormGI is forming the generalized inverse of G from B-inverse, IUseBI=4.
 Internal  Forces:  Max     0.000042394 RMS     0.000020138
 Search for a local minimum.
 Step number   5 out of a maximum of   64
 All quantities printed in internal units (Hartrees-Bohrs-Radians)
 Mixed Optimization -- En-DIIS/RFO-DIIS
 Swapping is turned off.
 Update second derivatives using D2CorX and points    1    2    3    4    5
 DE= -1.57D-07 DEPred=-4.97D-07 R= 3.16D-01
 Trust test= 3.16D-01 RLast= 4.63D-03 DXMaxT set to 3.00D-01
 ITU=  0  1  1  1  0
     Eigenvalues ---    0.02152   0.02156   0.02156   0.02156   0.02156
     Eigenvalues ---    0.02156   0.02157   0.02157   0.05967   0.10975
     Eigenvalues ---    0.16000   0.16000   0.16000   0.18754   0.19268
     Eigenvalues ---    0.22000   0.22992   0.25000   0.25000   0.25038
     Eigenvalues ---    0.35174   0.35178   0.35191   0.35343   0.42185
     Eigenvalues ---    0.42420   0.46474   0.46486   0.46870   0.51776
 En-DIIS/RFO-DIIS IScMMF=        0 using points:     5    4    3    2
 RFO step:  Lambda=-6.38244182D-08.
 DidBck=T Rises=F RFO-DIIS coefs:    0.54396    0.36271    0.10455   -0.01122
 Iteration  1 RMS(Cart)=  0.00018589 RMS(Int)=  0.00000008
 Iteration  2 RMS(Cart)=  0.00000005 RMS(Int)=  0.00000006
 Variable       Old X    -DE/DX   Delta X   Delta X   Delta X     New X
                                 (Linear)    (Quad)   (Total)
    R1        2.62979   0.00002   0.00000   0.00003   0.00003   2.62983
    R2        2.62826  -0.00004  -0.00003  -0.00005  -0.00008   2.62818
    R3        2.05015  -0.00001  -0.00002   0.00000  -0.00002   2.05013
    R4        2.62826  -0.00004  -0.00003  -0.00005  -0.00008   2.62818
    R5        2.05015  -0.00001  -0.00002   0.00000  -0.00002   2.05013
    R6        2.62826  -0.00004  -0.00003  -0.00005  -0.00008   2.62818
    R7        3.55641  -0.00001  -0.00010   0.00004  -0.00006   3.55635
    R8        2.62979   0.00002   0.00000   0.00003   0.00003   2.62982
    R9        2.05015  -0.00001  -0.00002   0.00000  -0.00002   2.05013
   R10        2.62826  -0.00004  -0.00003  -0.00005  -0.00008   2.62818
   R11        2.05015  -0.00001  -0.00002   0.00000  -0.00002   2.05013
   R12        3.55641  -0.00001  -0.00010   0.00004  -0.00006   3.55635
    A1        2.08528   0.00001   0.00009  -0.00002   0.00007   2.08535
    A2        2.10016  -0.00002  -0.00015   0.00001  -0.00014   2.10002
    A3        2.09774   0.00001   0.00006   0.00001   0.00007   2.09782
    A4        2.08528   0.00001   0.00009  -0.00002   0.00007   2.08535
[...]
    R1        2.62979   0.00002   0.00000   0.00004   0.00004   2.62984
    R2        2.62826  -0.00004   0.00000  -0.00008  -0.00008   2.62817
    R3        2.05015  -0.00001   0.00000  -0.00002  -0.00002   2.05013
    R4        2.62826  -0.00004   0.00000  -0.00008  -0.00008   2.62817
    R5        2.05015  -0.00001   0.00000  -0.00002  -0.00002   2.05013
    R6        2.62826  -0.00004   0.00000  -0.00009  -0.00009   2.62817
    R7        3.55641  -0.00001   0.00000  -0.00005  -0.00005   3.55636
    R8        2.62979   0.00002   0.00000   0.00004   0.00004   2.62984
    R9        2.05015  -0.00001   0.00000  -0.00002  -0.00002   2.05013
   R10        2.62826  -0.00004   0.00000  -0.00009  -0.00009   2.62817
   R11        2.05015  -0.00001   0.00000  -0.00002  -0.00002   2.05013
   R12        3.55641  -0.00001   0.00000  -0.00005  -0.00005   3.55636
    A1        2.08528   0.00001   0.00000   0.00006   0.00006   2.08534
    A2        2.10016  -0.00002   0.00000  -0.00016  -0.00016   2.10001
    A3        2.09774   0.00001   0.00000   0.00010   0.00010   2.09784
    A4        2.08528   0.00001   0.00000   0.00006   0.00006   2.08534
    A5        2.10016  -0.00002   0.00000  -0.00015  -0.00015   2.10001
    A6        2.09775   0.00001   0.00000   0.00009   0.00009   2.09784
    A7        2.11263  -0.00002   0.00000  -0.00012  -0.00012   2.11251
    A8        2.08528   0.00001   0.00000   0.00006   0.00006   2.08534
    A9        2.08528   0.00001   0.00000   0.00006   0.00006   2.08534
   A10        2.08528   0.00001   0.00000   0.00006   0.00006   2.08534
   A11        2.09774   0.00001   0.00000   0.00010   0.00010   2.09784
   A12        2.10016  -0.00002   0.00000  -0.00016  -0.00016   2.10001
   A13        2.08528   0.00001   0.00000   0.00006   0.00006   2.08534
   A14        2.10016  -0.00002   0.00000  -0.00016  -0.00016   2.10001
   A15        2.09774   0.00001   0.00000   0.00010   0.00010   2.09784
   A16        2.11263  -0.00002   0.00000  -0.00012  -0.00012   2.11251
   A17        2.08528   0.00001   0.00000   0.00006   0.00006   2.08534
   A18        2.08528   0.00001   0.00000   0.00006   0.00006   2.08534
    D1       -0.00025   0.00002   0.00000   0.00025   0.00025   0.00000
    D2        3.14143   0.00001   0.00000   0.00017   0.00017  -3.14159
    D3        3.14131   0.00002   0.00000   0.00028   0.00028  -3.14159
    D4       -0.00020   0.00001   0.00000   0.00020   0.00020   0.00000
    D5        0.00031  -0.00002   0.00000  -0.00032  -0.00032  -0.00001
    D6        3.14094   0.00004   0.00000   0.00063   0.00063   3.14158
    D7       -3.14125  -0.00002   0.00000  -0.00035  -0.00035   3.14159
    D8       -0.00061   0.00004   0.00000   0.00060   0.00060  -0.00002
    D9        0.00020  -0.00001   0.00000  -0.00019  -0.00019   0.00000
   D10        3.14130   0.00002   0.00000   0.00029   0.00029   3.14159
   D11       -3.14148  -0.00001   0.00000  -0.00011  -0.00011  -3.14159
   D12       -0.00037   0.00002   0.00000   0.00037   0.00037   0.00000
   D13       -0.00020   0.00001   0.00000   0.00020   0.00020   0.00000
   D14        3.14148   0.00001   0.00000   0.00011   0.00011   3.14159
   D15       -3.14130  -0.00002   0.00000  -0.00029  -0.00029  -3.14159
   D16        0.00038  -0.00002   0.00000  -0.00037  -0.00037   0.00000
   D17        0.00025  -0.00002   0.00000  -0.00025  -0.00025   0.00000
   D18       -3.14131  -0.00002   0.00000  -0.00028  -0.00028   3.14159
   D19       -3.14143  -0.00001   0.00000  -0.00017  -0.00017   3.14159
   D20        0.00019  -0.00001   0.00000  -0.00019  -0.00019   0.00000
   D21       -0.00031   0.00002   0.00000   0.00032   0.00032   0.00001
   D22       -3.14095  -0.00004   0.00000  -0.00063  -0.00063  -3.14158
   D23        3.14125   0.00002   0.00000   0.00034   0.00034  -3.14159
   D24        0.00062  -0.00004   0.00000  -0.00060  -0.00060   0.00002
         Item               Value     Threshold  Converged?
 Maximum Force            0.000042     0.000450     YES
 RMS     Force            0.000020     0.000300     YES
 Maximum Displacement     0.000736     0.001800     YES
 RMS     Displacement     0.000190     0.001200     YES
 Predicted change in Energy=-1.088399D-07
 Optimization completed.
    -- Stationary point found.
                           ----------------------------
                           !   Optimized Parameters   !
                           ! (Angstroms and Degrees)  !
 --------------------------                            --------------------------
 ! Name  Definition              Value          Derivative Info.                !
 --------------------------------------------------------------------------------
 ! R1    R(1,2)                  1.3916         -DE/DX =    0.0                 !
 ! R2    R(1,6)                  1.3908         -DE/DX =    0.0                 !
 ! R3    R(1,9)                  1.0849         -DE/DX =    0.0                 !
 ! R4    R(2,3)                  1.3908         -DE/DX =    0.0                 !
 ! R5    R(2,10)                 1.0849         -DE/DX =    0.0                 !
 ! R6    R(3,4)                  1.3908         -DE/DX =    0.0                 !
 ! R7    R(3,8)                  1.882          -DE/DX =    0.0                 !
 ! R8    R(4,5)                  1.3916         -DE/DX =    0.0                 !
 ! R9    R(4,11)                 1.0849         -DE/DX =    0.0                 !
 ! R10   R(5,6)                  1.3908         -DE/DX =    0.0                 !
 ! R11   R(5,12)                 1.0849         -DE/DX =    0.0                 !
 ! R12   R(6,7)                  1.882          -DE/DX =    0.0                 !
 ! A1    A(2,1,6)              119.4776         -DE/DX =    0.0                 !
 ! A2    A(2,1,9)              120.3305         -DE/DX =    0.0                 !
 ! A3    A(6,1,9)              120.1919         -DE/DX =    0.0                 !
 ! A4    A(1,2,3)              119.4778         -DE/DX =    0.0                 !
 ! A5    A(1,2,10)             120.3302         -DE/DX =    0.0                 !
 ! A6    A(3,2,10)             120.192          -DE/DX =    0.0                 !
 ! A7    A(2,3,4)              121.0446         -DE/DX =    0.0                 !
 ! A8    A(2,3,8)              119.4778         -DE/DX =    0.0                 !
 ! A9    A(4,3,8)              119.4776         -DE/DX =    0.0                 !
 ! A10   A(3,4,5)              119.4776         -DE/DX =    0.0                 !
 ! A11   A(3,4,11)             120.1919         -DE/DX =    0.0                 !
 ! A12   A(5,4,11)             120.3305         -DE/DX =    0.0                 !
 ! A13   A(4,5,6)              119.4778         -DE/DX =    0.0                 !
 ! A14   A(4,5,12)             120.3304         -DE/DX =    0.0                 !
 ! A15   A(6,5,12)             120.1918         -DE/DX =    0.0                 !
 ! A16   A(1,6,5)              121.0446         -DE/DX =    0.0                 !
 ! A17   A(1,6,7)              119.4777         -DE/DX =    0.0                 !
 ! A18   A(5,6,7)              119.4777         -DE/DX =    0.0                 !
 ! D1    D(6,1,2,3)             -0.0142         -DE/DX =    0.0                 !
 ! D2    D(6,1,2,10)          -180.0095         -DE/DX =    0.0                 !
 ! D3    D(9,1,2,3)           -180.0162         -DE/DX =    0.0                 !
 ! D4    D(9,1,2,10)            -0.0114         -DE/DX =    0.0                 !
 ! D5    D(2,1,6,5)              0.0178         -DE/DX =    0.0                 !
 ! D6    D(2,1,6,7)            179.9628         -DE/DX =    0.0                 !
 ! D7    D(9,1,6,5)            180.0198         -DE/DX =    0.0                 !
 ! D8    D(9,1,6,7)             -0.0352         -DE/DX =    0.0                 !
 ! D9    D(1,2,3,4)              0.0113         -DE/DX =    0.0                 !
 ! D10   D(1,2,3,8)            179.9834         -DE/DX =    0.0                 !
 ! D11   D(10,2,3,4)          -179.9935         -DE/DX =    0.0                 !
 ! D12   D(10,2,3,8)            -0.0214         -DE/DX =    0.0                 !
 ! D13   D(2,3,4,5)             -0.0114         -DE/DX =    0.0                 !
 ! D14   D(2,3,4,11)           179.9937         -DE/DX =    0.0                 !
 ! D15   D(8,3,4,5)           -179.9835         -DE/DX =    0.0                 !
 ! D16   D(8,3,4,11)             0.0216         -DE/DX =    0.0                 !
 ! D17   D(3,4,5,6)              0.0145         -DE/DX =    0.0                 !
 ! D18   D(3,4,5,12)           180.016          -DE/DX =    0.0                 !
 ! D19   D(11,4,5,6)           180.0094         -DE/DX =    0.0                 !
 ! D20   D(11,4,5,12)            0.0109         -DE/DX =    0.0                 !
 ! D21   D(4,5,6,1)             -0.0179         -DE/DX =    0.0                 !
 ! D22   D(4,5,6,7)           -179.9629         -DE/DX =    0.0                 !
 ! D23   D(12,5,6,1)          -180.0194         -DE/DX =    0.0                 !
 ! D24   D(12,5,6,7)             0.0356         -DE/DX =    0.0                 !
 --------------------------------------------------------------------------------
 GradGradGradGradGradGradGradGradGradGradGradGradGradGradGradGradGradGrad

 1\1\GINC-KATANA1\Freq\RM062X\6-31+G(d)\C6H4Br2\Z5358697\16-Mar-2025\0\
 \#N Geom=AllCheck Guess=TCheck SCRF=Check GenChk RM062X/6-31+G(d) Freq
 \\1,4-dibromobenzene\\0,1\C,1.8876238751,-1.0377437193,-0.114004939\C,
 2.921114853,-1.6307777408,0.6049064281\C,2.8674888012,-1.6455827133,1.
 9946060502\C,1.7972129482,-1.0772873407,2.6771853068\C,0.7637237805,-0
 .4842511741,1.9582738194\C,0.8173164208,-0.4695070051,0.5685711185\Br,
 -0.5798165023,0.3334158469,-0.403619021\Br,4.264904594,-2.4479901411,2
 .9668151635\H,1.9154523228,-1.0181582796,-1.1983658295\H,3.7625837043,
 -2.0782876107,0.0865801644\H,1.7694647427,-1.096728012,3.7615511337\H,
 -0.0776695405,-0.0366021101,2.476600605\\Version=ES64L-G09RevD.01\Stat
 e=1-A\HF=-5374.5527686\RMSD=3.400e-09\RMSF=3.916e-05\ZeroPoint=0.08264
 24\Thermal=0.0893992\Dipole=0.000027,0.0000492,0.0000008\DipoleDeriv=-
 0.2020833,0.067115,-0.0352668,0.069944,-0.1210244,0.0168355,-0.1448213
 ,0.0785098,-0.0181751,-0.1260013,0.0290135,-0.1821275,0.0289299,-0.101
 7832,0.1028742,-0.0758743,0.0422921,-0.1096877,0.59645,-0.3790537,0.44
 25745,-0.3838315,0.1510652,-0.2569768,0.4463331,-0.2574465,0.2793669,-
 0.2010528,0.0662802,-0.0346858,0.0698471,-0.1210602,0.0168523,-0.14262
 8,0.0768451,-0.0169529,-0.1307443,0.0329499,-0.1849034,0.0301194,-0.10
 25961,0.1035138,-0.0764717,0.0428686,-0.1100563,0.6019231,-0.3846248,0
 .4462022,-0.3860429,0.1532769,-0.2584942,0.4436058,-0.255206,0.2777174
 ,-0.3813547,0.1986086,-0.231078,0.2002534,-0.1507099,0.1344331,-0.2296
 876,0.1321145,-0.2131648,-0.3810186,0.1975029,-0.2305123,0.1984903,-0.
 1487121,0.1331002,-0.2308997,0.1327358,-0.2137044,0.085595,0.0274845,-
 0.0206286,0.0271529,0.1186747,0.0159965,-0.0081073,0.0089752,-0.006699
 1,0.0262796,0.0584554,0.0256064,0.0590435,0.1021674,-0.012074,0.01351,
 -0.0051399,0.0689647,0.0854907,0.0276424,-0.0207361,0.0270219,0.118761
 1,0.0159066,-0.0081159,0.0085765,-0.0065022,0.0265167,0.058626,0.02555
 55,0.059072,0.1019408,-0.0119672,0.013157,-0.0051252,0.0688935\Polar=1
 22.8244639,-35.3230526,80.2986602,24.8054354,-15.3704965,112.0907898\P
 G=C01 [X(C6H4Br2)]\NImag=0\\0.56832035,-0.22150323,0.28906664,-0.00535
 236,-0.01632851,0.76685879,-0.24793684,0.09235884,-0.12632949,0.617231
 42,0.08996463,-0.13977577,0.07294700,-0.24758033,0.30288984,-0.0515956
 1,0.03176962,-0.19109435,-0.03335919,0.00120187,0.70413767,0.03952260,
 -0.00696852,-0.01932815,-0.10957285,0.00929841,-0.01331904,0.47806257,
 -0.00503555,0.02817584,0.01234770,0.00707919,-0.09791435,0.01551731,-0
 .15193102,0.28166041,-0.07947089,0.04547883,-0.02623868,0.05523839,-0.
 02227104,-0.34940454,-0.06964092,0.02434057,0.63708635,-0.06516318,0.0
 2655623,0.00051344,0.03266668,-0.00702300,0.07414157,-0.24061002,0.079
 12479,0.06192643,0.56833743,0.02656322,-0.03159236,-0.00071528,-0.0053
 9814,0.02844935,-0.03945602,0.07694891,-0.13492759,-0.03133619,-0.2215
 1306,0.28907216,0.00054567,-0.00072113,-0.00384607,0.02301193,-0.01124
 916,-0.02074845,0.13044861,-0.06912920,-0.18136719,-0.00532484,-0.0163
 0511,0.76682736,0.03263732,-0.00536574,0.02303961,-0.01832027,0.001569
 60,-0.02638172,-0.03884583,0.03484073,0.02565438,-0.24796730,0.0923557
 8,-0.12628745,0.61718803,-0.00701919,0.02843648,-0.01125526,0.00159674
 ,-0.01834862,0.01605845,0.03673229,0.00601993,-0.01569714,0.08999515,-
 0.13978426,0.07295857,-0.24760464,0.30292755,0.07412300,-0.03945540,-0
 .02076601,-0.02634076,0.01605058,-0.06395344,-0.03447909,0.01744817,0.
 07431220,-0.05158964,0.03176483,-0.19106995,-0.03339078,0.00122886,0.7
 0412601,-0.24059714,0.07691982,0.13044942,-0.03886468,0.03675915,-0.03
 445853,-0.03179422,-0.00977723,0.03557700,0.03953397,-0.00695652,-0.01
 935421,-0.10957523,0.00927896,-0.01329542,0.47812308,0.07913065,-0.134
 91717,-0.06913241,0.03482273,0.00602197,0.01744317,-0.00977064,-0.0415
 0753,-0.01893859,-0.00504720,0.02817356,0.01233476,0.00708981,-0.09790
 637,0.01551756,-0.15195347,0.28166268,0.06191867,-0.03133431,-0.181350
 40,0.02564311,-0.01569382,0.07429529,0.03556544,-0.01893452,-0.0682333
 3,-0.07948261,0.04549927,-0.02623607,0.05523444,-0.02230270,-0.3494168
 0,-0.06963464,0.02434430,0.63708718,-0.02517746,0.01842222,-0.01986645
 ,0.00078917,0.00190091,0.00500414,0.00107593,0.00292833,-0.00115748,0.
 00286471,0.00091654,-0.00034262,-0.00866741,0.00893574,-0.00781444,-0.
 10230194,0.03396882,-0.04662114,0.13346446,0.01774068,-0.00307254,0.01
 109282,0.00202497,0.00345157,-0.00259701,0.00294811,0.00471726,0.00080
 844,0.00078737,0.00404083,0.00042839,0.00962085,0.00159564,0.00513507,
 0.03396939,-0.06311191,0.02644582,-0.06488772,0.05727431,0.00166796,-0
 .00077800,0.00276141,0.00086588,-0.00031691,-0.00026859,-0.00116287,0.
 00079874,0.00094361,0.00382010,-0.00185743,-0.00294936,-0.02935038,0.0
 1700897,-0.01839601,-0.04661525,0.02644300,-0.06543312,0.07217692,-0.0
 4185141,0.08267328,0.00285275,0.00093348,-0.00031292,-0.00870767,0.008
 92542,-0.00783813,-0.10224639,0.03395458,-0.04662216,-0.02520247,0.018
 43382,-0.01985580,0.00079304,0.00188480,0.00498704,0.00108715,0.002939
 82,-0.00112803,-0.00091754,-0.00045902,-0.00041987,0.13347491,0.000785
 34,0.00403488,0.00041018,0.00964946,0.00159846,0.00514021,0.03391332,-
 0.06309066,0.02643439,0.01774836,-0.00307673,0.01109332,0.00201442,0.0
 0346387,-0.00259532,0.00293787,0.00471444,0.00078788,-0.00044227,-0.00
 150152,0.00018660,-0.06486899,0.05724779,0.00380445,-0.00184090,-0.002
 93138,-0.02937108,0.01699184,-0.01841703,-0.04657506,0.02643105,-0.065
 42955,0.00165200,-0.00076707,0.00277780,0.00086130,-0.00032611,-0.0002
 8738,-0.00116319,0.00081079,0.00096089,-0.00040262,0.00016511,-0.00023
 462,0.07217436,-0.04183331,0.08266511,-0.05364205,0.00727153,0.0061301
 4,0.00490635,0.00102804,-0.02407461,-0.00059122,0.00470391,-0.00174605
 ,-0.00103949,0.00032283,-0.00024831,-0.00259377,0.00442144,0.00212254,
 0.00217594,-0.00041571,0.02511740,-0.00002416,-0.00107661,0.00073232,-
 0.00050986,0.00018275,-0.00098217,0.05159615,0.00717666,-0.04426559,0.
 00660526,0.00018497,0.00481775,0.01376462,0.00471213,0.00520632,0.0011
 9139,0.00031779,-0.00064797,0.00009899,0.00441159,0.00314869,-0.001017
 67,0.00046135,0.00306182,-0.01339590,-0.00103430,-0.00134959,-0.000496
 14,0.00015335,-0.00033794,0.00054684,-0.01364120,0.03407838,0.00938554
 ,0.00480806,-0.35013626,0.00191254,-0.00055586,-0.01005738,-0.00187806
 ,0.00125813,0.00085669,-0.00000646,-0.00003610,0.00074457,0.00245187,-
 0.00118922,0.00057098,-0.00230672,0.00171220,-0.01092170,-0.00063740,0
 .00026454,0.00084900,-0.00012892,0.00007796,-0.00043845,-0.00864971,-0
 .00624338,0.36839398,-0.01220098,0.00931753,0.01173832,-0.22968469,0.1
 0101539,0.11040382,0.00234170,0.00039163,-0.00238075,0.00241168,0.0017
 4592,-0.00042163,0.00008306,-0.00028857,-0.00065980,0.00049602,0.00413
 927,-0.00247798,-0.00080959,0.00030479,0.00003793,0.00020925,-0.001158
 29,-0.00077751,-0.00040289,-0.00230999,-0.00006583,0.23752771,0.010137
 26,-0.00001403,-0.00668013,0.10113235,-0.09400606,-0.05819027,-0.00049
 172,0.00309363,0.00175340,0.00174880,0.00456446,0.00059987,-0.00027312
 ,-0.00032900,0.00037307,0.00412911,0.00550681,0.00163226,0.00034224,-0
 .00041946,-0.00002798,-0.00120321,-0.00128168,0.00034864,-0.00232081,-
 0.00330771,-0.00013291,-0.11277555,0.08662331,-0.01425369,0.00764545,0
 .01184876,0.10718519,-0.05640647,-0.12435789,0.02500703,-0.01335866,-0
 .01107442,-0.00074503,0.00077209,-0.00587033,-0.00089723,0.00050738,-0
 .00067874,-0.00236825,0.00156579,-0.00054941,-0.00080977,0.00045118,-0
 .00004132,0.00059910,-0.00040877,0.00054275,0.00031491,-0.00034035,0.0
 0063951,-0.11537112,0.06031939,0.12991559,-0.00103984,0.00032137,-0.00
 025230,-0.00258668,0.00442116,0.00212524,0.00216649,-0.00041110,0.0251
 1714,-0.05364065,0.00727160,0.00610885,0.00490065,0.00102634,-0.024074
 15,-0.00058700,0.00470151,-0.00175042,-0.00050989,0.00018582,-0.000979
 81,-0.00002168,-0.00107820,0.00073313,-0.00011177,-0.00036442,-0.00001
 743,0.00023704,-0.00011177,0.00130088,0.05159614,0.00031782,-0.0006467
 9,0.00010292,0.00440471,0.00314918,-0.00101876,0.00047112,0.00305780,-
 0.01340276,0.00717322,-0.04426163,0.00656372,0.00019267,0.00481752,0.0
 1376406,0.00470492,0.00520938,0.00119633,0.00015531,-0.00034188,0.0005
 4533,-0.00103535,-0.00134785,-0.00049423,-0.00036492,-0.00057318,-0.00
 001366,-0.00006794,0.00016951,-0.00070018,-0.01364161,0.03407575,-0.00
 001517,-0.00002374,0.00076065,0.00243238,-0.00119672,0.00055674,-0.002
 26537,0.00170640,-0.01091820,0.00935282,0.00477974,-0.35012847,0.00191
 137,-0.00056529,-0.01006907,-0.00187330,0.00126585,0.00087353,-0.00012
 407,0.00006452,-0.00044532,-0.00064773,0.00026784,0.00084070,-0.000017
 85,-0.00001421,-0.00006028,-0.00006369,0.00005232,-0.00043773,-0.00862
 558,-0.00620259,0.36838864,0.00242446,0.00173647,-0.00042926,0.0000800
 5,-0.00027938,-0.00064795,0.00049125,0.00413175,-0.00249508,-0.0121913
 6,0.00930909,0.01171982,-0.22963228,0.10104093,0.11041150,0.00230403,0
 .00039441,-0.00238426,0.00021373,-0.00115863,-0.00077293,-0.00081149,0
 .00031622,0.00004638,0.00023676,-0.00006792,-0.00005941,-0.00020830,-0
 .00031357,0.00003798,-0.00040279,-0.00230995,-0.00006381,0.23749593,0.
 00174171,0.00457040,0.00060571,-0.00027549,-0.00033332,0.00036681,0.00
 413761,0.00550893,0.00163870,0.01013154,-0.00000982,-0.00667303,0.1011
 4805,-0.09404143,-0.05821381,-0.00047333,0.00309233,0.00175539,-0.0012
 0582,-0.00128270,0.00034525,0.00034129,-0.00042309,-0.00003263,-0.0001
 1126,0.00016900,0.00005026,-0.00031419,-0.00059979,-0.00004685,-0.0023
 2071,-0.00330781,-0.00013413,-0.11279940,0.08665731,-0.00075756,0.0007
 8003,-0.00586645,-0.00088890,0.00049870,-0.00068802,-0.00237252,0.0015
 7433,-0.00053295,-0.01425779,0.00765728,0.01186616,0.10715461,-0.05642
 650,-0.12437181,0.02504309,-0.01336643,-0.01107607,0.00059493,-0.00040
 745,0.00054104,-0.00080696,0.00043902,-0.00004884,0.00130139,-0.000699
 45,-0.00044065,0.00003824,-0.00004766,0.00006322,0.00031446,-0.0003401
 9,0.00063881,-0.11536300,0.06033833,0.12991556\\0.00006466,0.00000520,
 -0.00001375,-0.00002218,-0.00001413,-0.00005426,0.00005835,0.00008739,
 0.00000710,-0.00006010,0.00000378,0.00001445,0.00002748,0.00002445,0.0
 0005569,-0.00008139,-0.00013003,-0.00000968,0.00001794,0.00004529,-0.0
 0000237,-0.00000799,-0.00002709,0.00000307,-0.00000626,0.00001139,-0.0
 0000993,0.00001044,-0.00001001,0.00000450,0.00000781,-0.00000849,0.000
 01024,-0.00000877,0.00001226,-0.00000506\\\@


 UNLESS WE CHANGE DIRECTIONS, WE WILL WIND UP WHERE WE ARE HEADED.
     -- CONFUCIUS
 Job cpu time:       0 days  0 hours  5 minutes 39.5 seconds.
 File lengths (MBytes):  RWF=    199 Int=      0 D2E=      0 Chk=      4 Scr=      2
 Normal termination of Gaussian 09 at Sun Mar 16 22:41:39 2025.
