 Entering Gaussian System, Link 0=g09
 Initial command:
 /apps/z_install_tree/linux-rocky8-ivybridge/gcc-12.2.0/gaussian-09-D.01-wczn3gur5lpur3omlkzwa2l5ecyxp5ef/g09/l1.exe "/srv/scratch/z5358697/gauss/Gau-1802767.inp" -scrdir="/srv/scratch/z5358697/gauss/"
 Entering Link 1 = /apps/z_install_tree/linux-rocky8-ivybridge/gcc-12.2.0/gaussian-09-D.01-wczn3gur5lpur3omlkzwa2l5ecyxp5ef/g09/l1.exe PID=   1802768.
  
 Copyright (c) 1988,1990,1992,1993,1995,1998,2003,2009,2013,
            Gaussian, Inc.  All Rights Reserved.
  
 This is part of the Gaussian(R) 09 program.  It is based on
 the Gaussian(R) 03 system (copyright 2003, Gaussian, Inc.),
 the Gaussian(R) 98 system (copyright 1998, Gaussian, Inc.),
 the Gaussian(R) 94 system (copyright 1995, Gaussian, Inc.),
 the Gaussian 92(TM) system (copyright 1992, Gaussian, Inc.),
 the Gaussian 90(TM) system (copyright 1990, Gaussian, Inc.),
 the Gaussian 88(TM) system (copyright 1988, Gaussian, Inc.),
 the Gaussian 86(TM) system (copyright 1986, Carnegie Mellon
 University), and the Gaussian 82(TM) system (copyright 1983,
 Carnegie Mellon University). Gaussian is a federally registered
 trademark of Gaussian, Inc.
  
 This software contains proprietary and confidential information,
 including trade secrets, belonging to Gaussian, Inc.
  
 This software is provided under written license and may be
 used, copied, transmitted, or stored only in accord with that
 written license.
  
 The following legend is applicable only to US Government
 contracts under FAR:
  
                    RESTRICTED RIGHTS LEGEND
  
 Use, reproduction and disclosure by the US Government is
 subject to restrictions as set forth in subparagraphs (a)
 and (c) of the Commercial Computer Software - Restricted
 Rights clause in FAR 52.227-19.
  
 Gaussian, Inc.
 340 Quinnipiac St., Bldg. 40, Wallingford CT 06492
  
  
 ---------------------------------------------------------------
 Warning -- This program may not be used in any manner that
 competes with the business of Gaussian, Inc. or will provide
 assistance to any competitor of Gaussian, Inc.  The licensee
 of this program is prohibited from giving any competitor of
 Gaussian, Inc. access to this program.  By using this program,
 the user acknowledges that Gaussian, Inc. is engaged in the
 business of creating and licensing software in the field of
 computational chemistry and represents and warrants to the
 licensee that it is not a competitor of Gaussian, Inc. and that
 it will not use this program in any manner prohibited above.
 ---------------------------------------------------------------
  

 Cite this work as:
 Gaussian 09, Revision D.01,
 M. J. Frisch, G. W. Trucks, H. B. Schlegel, G. E. Scuseria, 
 M. A. Robb, J. R. Cheeseman, G. Scalmani, V. Barone, B. Mennucci, 
 G. A. Petersson, H. Nakatsuji, M. Caricato, X. Li, H. P. Hratchian, 
 A. F. Izmaylov, J. Bloino, G. Zheng, J. L. Sonnenberg, M. Hada, 
 M. Ehara, K. Toyota, R. Fukuda, J. Hasegawa, M. Ishida, T. Nakajima, 
 Y. Honda, O. Kitao, H. Nakai, T. Vreven, J. A. Montgomery, Jr., 
 J. E. Peralta, F. Ogliaro, M. Bearpark, J. J. Heyd, E. Brothers, 
 K. N. Kudin, V. N. Staroverov, T. Keith, R. Kobayashi, J. Normand, 
 K. Raghavachari, A. Rendell, J. C. Burant, S. S. Iyengar, J. Tomasi, 
 M. Cossi, N. Rega, J. M. Millam, M. Klene, J. E. Knox, J. B. Cross, 
 V. Bakken, C. Adamo, J. Jaramillo, R. Gomperts, R. E. Stratmann, 
 O. Yazyev, A. J. Austin, R. Cammi, C. Pomelli, J. W. Ochterski, 
 R. L. Martin, K. Morokuma, V. G. Zakrzewski, G. A. Voth, 
 P. Salvador, J. J. Dannenberg, S. Dapprich, A. D. Daniels, 
 O. Farkas, J. B. Foresman, J. V. Ortiz, J. Cioslowski, 
 and D. J. Fox, Gaussian, Inc., Wallingford CT, 2013.
 
 ******************************************
 Gaussian 09:  ES64L-G09RevD.01 24-Apr-2013
                13-Mar-2025 
 ******************************************
 ---------------------------------
 #m062X/6-31+G(d) OPT Freq=noraman
 ---------------------------------
 1/14=-1,18=20,19=15,26=3,38=1/1,3;
 2/9=110,12=2,17=6,18=5,40=1/2;
 3/5=1,6=6,7=11,11=2,16=1,25=1,30=1,71=1,74=-55/1,2,3;
 4//1;
 5/5=2,38=5/2;
 6/7=2,8=2,9=2,10=2,28=1/1;
 7//1,2,3,16;
 1/14=-1,18=20,19=15,26=3/3(2);
 2/9=110/2;
 99//99;
 2/9=110/2;
 3/5=1,6=6,7=11,11=2,16=1,25=1,30=1,71=1,74=-55/1,2,3;
 4/5=5,16=3,69=1/1;
 5/5=2,38=5/2;
 7//1,2,3,16;
 1/14=-1,18=20,19=15,26=3/3(-5);
 2/9=110/2;
 6/7=2,8=2,9=2,10=2,19=2,28=1/1;
 99/9=1/99;
 ---------
 bromoform
 ---------
 Symbolic Z-matrix:
 Charge =  0 Multiplicity = 1
 C                    -0.1053    0.014    -0.0443 
 Br                    0.1792   -1.9017    0.125 
 Br                   -0.1068    0.9104    1.6807 
 Br                    1.1377    0.832    -1.2955 
 H                    -1.1047    0.1453   -0.4659 
 

 GradGradGradGradGradGradGradGradGradGradGradGradGradGradGradGradGradGrad
 Berny optimization.
 Initialization pass.
                           ----------------------------
                           !    Initial Parameters    !
                           ! (Angstroms and Degrees)  !
 --------------------------                            --------------------------
 ! Name  Definition              Value          Derivative Info.                !
 --------------------------------------------------------------------------------
 ! R1    R(1,2)                  1.9441         estimate D2E/DX2                !
 ! R2    R(1,3)                  1.944          estimate D2E/DX2                !
 ! R3    R(1,4)                  1.9441         estimate D2E/DX2                !
 ! R4    R(1,5)                  1.0926         estimate D2E/DX2                !
 ! A1    A(2,1,3)              112.1612         estimate D2E/DX2                !
 ! A2    A(2,1,4)              112.1534         estimate D2E/DX2                !
 ! A3    A(2,1,5)              106.6112         estimate D2E/DX2                !
 ! A4    A(3,1,4)              112.1822         estimate D2E/DX2                !
 ! A5    A(3,1,5)              106.6353         estimate D2E/DX2                !
 ! A6    A(4,1,5)              106.6139         estimate D2E/DX2                !
 ! D1    D(2,1,4,3)           -127.2892         estimate D2E/DX2                !
 ! D2    D(2,1,5,3)            119.9981         estimate D2E/DX2                !
 ! D3    D(2,1,5,4)           -119.978          estimate D2E/DX2                !
 ! D4    D(3,1,5,4)            120.0239         estimate D2E/DX2                !
 --------------------------------------------------------------------------------
 Trust Radius=3.00D-01 FncErr=1.00D-07 GrdErr=1.00D-06
 Number of steps in this run=     24 maximum allowed number of steps=    100.
 GradGradGradGradGradGradGradGradGradGradGradGradGradGradGradGradGradGrad

                          Input orientation:                          
 ---------------------------------------------------------------------
 Center     Atomic      Atomic             Coordinates (Angstroms)
 Number     Number       Type             X           Y           Z
 ---------------------------------------------------------------------
      1          6           0       -0.105300    0.014000   -0.044300
      2         35           0        0.179200   -1.901700    0.125000
      3         35           0       -0.106800    0.910400    1.680700
      4         35           0        1.137700    0.832000   -1.295500
      5          1           0       -1.104700    0.145300   -0.465900
 ---------------------------------------------------------------------
                    Distance matrix (angstroms):
                    1          2          3          4          5
     1  C    0.000000
     2  Br   1.944096   0.000000
     3  Br   1.944006   3.226438   0.000000
     4  Br   1.944138   3.226400   3.226871   0.000000
     5  H    1.092605   2.487523   2.487785   2.487599   0.000000
 Stoichiometry    CHBr3
 Framework group  C1[X(CHBr3)]
 Deg. of freedom     9
 Full point group                 C1      NOp   1
 Largest Abelian subgroup         C1      NOp   1
 Largest concise Abelian subgroup C1      NOp   1
                         Standard orientation:                         
 ---------------------------------------------------------------------
 Center     Atomic      Atomic             Coordinates (Angstroms)
 Number     Number       Type             X           Y           Z
 ---------------------------------------------------------------------
      1          6           0       -0.000095   -0.000178    0.511546
      2         35           0        0.068223    1.861448   -0.044502
      3         35           0       -1.646459   -0.871640   -0.044513
      4         35           0        1.578248   -0.989777   -0.044511
      5          1           0        0.000133   -0.000023    1.604152
 ---------------------------------------------------------------------
 Rotational constants (GHZ):      1.2122470      1.2118005      0.6151162
 Standard basis: 6-31+G(d) (6D, 7F)
 There are   123 symmetry adapted cartesian basis functions of A   symmetry.
 There are   123 symmetry adapted basis functions of A   symmetry.
   123 basis functions,   297 primitive gaussians,   123 cartesian basis functions
    56 alpha electrons       56 beta electrons
       nuclear repulsion energy       799.4499293220 Hartrees.
 NAtoms=    5 NActive=    5 NUniq=    5 SFac= 1.00D+00 NAtFMM=   60 NAOKFM=F Big=F
 Integral buffers will be    131072 words long.
 Raffenetti 2 integral format.
 Two-electron integral symmetry is turned on.
 One-electron integrals computed using PRISM.
 NBasis=   123 RedAO= T EigKep=  6.06D-04  NBF=   123
 NBsUse=   123 1.00D-06 EigRej= -1.00D+00 NBFU=   123
 ExpMin= 3.50D-02 ExpMax= 5.74D+05 ExpMxC= 5.74D+03 IAcc=3 IRadAn=         5 AccDes= 0.00D+00
 Harris functional with IExCor= 1009 and IRadAn=       5 diagonalized for initial guess.
 HarFok:  IExCor= 1009 AccDes= 0.00D+00 IRadAn=         5 IDoV= 1 UseB2=F ITyADJ=14
 ICtDFT=  3500011 ScaDFX=  1.000000  1.000000  1.000000  1.000000
 FoFCou: FMM=F IPFlag=           0 FMFlag=      100000 FMFlg1=           0
         NFxFlg=           0 DoJE=T BraDBF=F KetDBF=T FulRan=T
         wScrn=  0.000000 ICntrl=     500 IOpCl=  0 I1Cent=   200000004 NGrid=           0
         NMat0=    1 NMatS0=      1 NMatT0=    0 NMatD0=    1 NMtDS0=    0 NMtDT0=    0
 Petite list used in FoFCou.
 Keep R1 ints in memory in canonical form, NReq=30190967.
 Requested convergence on RMS density matrix=1.00D-08 within 128 cycles.
 Requested convergence on MAX density matrix=1.00D-06.
 Requested convergence on             energy=1.00D-06.
 No special actions if energy rises.
 SCF Done:  E(RM062X) =  -7754.04963686     A.U. after   11 cycles
            NFock= 11  Conv=0.54D-08     -V/T= 2.0068

 **********************************************************************

            Population analysis using the SCF density.

 **********************************************************************

 Orbital symmetries:
       Occupied  (A) (A) (A) (A) (A) (A) (A) (A) (A) (A) (A) (A)
                 (A) (A) (A) (A) (A) (A) (A) (A) (A) (A) (A) (A)
                 (A) (A) (A) (A) (A) (A) (A) (A) (A) (A) (A) (A)
                 (A) (A) (A) (A) (A) (A) (A) (A) (A) (A) (A) (A)
                 (A) (A) (A) (A) (A) (A) (A) (A)
       Virtual   (A) (A) (A) (A) (A) (A) (A) (A) (A) (A) (A) (A)
                 (A) (A) (A) (A) (A) (A) (A) (A) (A) (A) (A) (A)
                 (A) (A) (A) (A) (A) (A) (A) (A) (A) (A) (A) (A)
                 (A) (A) (A) (A) (A) (A) (A) (A) (A) (A) (A) (A)
                 (A) (A) (A) (A) (A) (A) (A) (A) (A) (A) (A) (A)
                 (A) (A) (A) (A) (A) (A) (A)
 The electronic state is 1-A.
 Alpha  occ. eigenvalues -- -485.50397-485.50388-485.50381 -62.78653 -62.78560
 Alpha  occ. eigenvalues --  -62.78553 -57.31857 -57.31850 -57.31839 -57.31563
 Alpha  occ. eigenvalues --  -57.31554 -57.31553 -57.31543 -57.31540 -57.31534
 Alpha  occ. eigenvalues --  -10.72966  -8.95921  -8.95895  -8.95889  -6.91432
 Alpha  occ. eigenvalues --   -6.91426  -6.91420  -6.90268  -6.90262  -6.90262
 Alpha  occ. eigenvalues --   -6.90257  -6.90256  -6.90251  -2.94270  -2.94265
 Alpha  occ. eigenvalues --   -2.94257  -2.93872  -2.93867  -2.93866  -2.93862
 Alpha  occ. eigenvalues --   -2.93861  -2.93856  -2.92838  -2.92838  -2.92833
 Alpha  occ. eigenvalues --   -2.92832  -2.92827  -2.92827  -0.98207  -0.87392
 Alpha  occ. eigenvalues --   -0.87391  -0.72499  -0.55402  -0.50683  -0.50682
 Alpha  occ. eigenvalues --   -0.38819  -0.38817  -0.36470  -0.36274  -0.36272
 Alpha  occ. eigenvalues --   -0.34572
 Alpha virt. eigenvalues --   -0.05115   0.00501   0.00505   0.01035   0.03802
 Alpha virt. eigenvalues --    0.03949   0.03955   0.06936   0.06939   0.07347
 Alpha virt. eigenvalues --    0.08060   0.08063   0.09721   0.10862   0.11484
 Alpha virt. eigenvalues --    0.11490   0.14729   0.14736   0.15264   0.27005
 Alpha virt. eigenvalues --    0.38277   0.38291   0.43432   0.47579   0.47587
 Alpha virt. eigenvalues --    0.48273   0.48283   0.48670   0.50927   0.51127
 Alpha virt. eigenvalues --    0.51138   0.51966   0.51973   0.54317   0.55092
 Alpha virt. eigenvalues --    0.60111   0.60683   0.60689   0.63191   0.64413
 Alpha virt. eigenvalues --    0.64419   0.71705   0.71713   0.79375   0.80627
 Alpha virt. eigenvalues --    0.84831   0.84845   0.98730   0.98743   0.99963
 Alpha virt. eigenvalues --    1.08395   1.48889   1.74105   1.74116   1.75780
 Alpha virt. eigenvalues --    1.75789   1.83912   2.07934   2.07947   2.21339
 Alpha virt. eigenvalues --    4.11201   8.91059   8.91059   8.97558  78.20817
 Alpha virt. eigenvalues --   78.20915  78.96424
          Condensed to atoms (all electrons):
               1          2          3          4          5
     1  C    5.176054   0.283961   0.283957   0.283478   0.378247
     2  Br   0.283961  35.055258  -0.157713  -0.157618  -0.055916
     3  Br   0.283957  -0.157713  35.054922  -0.157092  -0.055959
     4  Br   0.283478  -0.157618  -0.157092  35.055570  -0.056022
     5  H    0.378247  -0.055916  -0.055959  -0.056022   0.479549
 Mulliken charges:
               1
     1  C   -0.405697
     2  Br   0.032029
     3  Br   0.031885
     4  Br   0.031683
     5  H    0.310101
 Sum of Mulliken charges =   0.00000
 Mulliken charges with hydrogens summed into heavy atoms:
               1
     1  C   -0.095597
     2  Br   0.032029
     3  Br   0.031885
     4  Br   0.031683
 Electronic spatial extent (au):  <R**2>=           1452.5394
 Charge=              0.0000 electrons
 Dipole moment (field-independent basis, Debye):
    X=              0.0011    Y=              0.0016    Z=              0.9870  Tot=              0.9870
 Quadrupole moment (field-independent basis, Debye-Ang):
   XX=            -61.1865   YY=            -61.1904   ZZ=            -60.2638
   XY=              0.0020   XZ=             -0.0004   YZ=              0.0019
 Traceless Quadrupole moment (field-independent basis, Debye-Ang):
   XX=             -0.3062   YY=             -0.3102   ZZ=              0.6164
   XY=              0.0020   XZ=             -0.0004   YZ=              0.0019
 Octapole moment (field-independent basis, Debye-Ang**2):
  XXX=             -0.8500  YYY=              7.7326  ZZZ=              0.3233  XYY=              0.8586
  XXY=             -7.7154  XXZ=             -5.5182  XZZ=              0.0011  YZZ=              0.0011
  YYZ=             -5.5136  XYZ=              0.0008
 Hexadecapole moment (field-independent basis, Debye-Ang**3):
 XXXX=           -614.0520 YYYY=           -613.8903 ZZZZ=            -87.8806 XXXY=              0.0043
 XXXZ=              0.6548 YYYX=              0.0118 YYYZ=             -5.9572 ZZZX=             -0.0006
 ZZZY=              0.0089 XXYY=           -204.6705 XXZZ=           -125.7296 YYZZ=           -125.6962
 XXYZ=              5.9744 YYXZ=             -0.6580 ZZXY=              0.0005
 N-N= 7.994499293220D+02 E-N=-2.008188792697D+04  KE= 7.701617959723D+03
 Calling FoFJK, ICntrl=      2127 FMM=F ISym2X=0 I1Cent= 0 IOpClX= 0 NMat=1 NMatS=1 NMatT=0.
 ***** Axes restored to original set *****
 -------------------------------------------------------------------
 Center     Atomic                   Forces (Hartrees/Bohr)
 Number     Number              X              Y              Z
 -------------------------------------------------------------------
      1        6          -0.008122905    0.000669167   -0.004249623
      2       35           0.002025416    0.010600690    0.001005651
      3       35           0.003904505   -0.005308552   -0.008081889
      4       35          -0.003470344   -0.005232681    0.008907939
      5        1           0.005663327   -0.000728624    0.002417923
 -------------------------------------------------------------------
 Cartesian Forces:  Max     0.010600690 RMS     0.005585373

 GradGradGradGradGradGradGradGradGradGradGradGradGradGradGradGradGradGrad
 Berny optimization.
 FormGI is forming the generalized inverse of G from B-inverse, IUseBI=4.
 Internal  Forces:  Max     0.010152967 RMS     0.005962597
 Search for a local minimum.
 Step number   1 out of a maximum of   24
 All quantities printed in internal units (Hartrees-Bohrs-Radians)
 Mixed Optimization -- RFO/linear search
 Second derivative matrix not updated -- first step.
 The second derivative matrix:
                          R1        R2        R3        R4        A1
           R1           0.16256
           R2           0.00000   0.16259
           R3           0.00000   0.00000   0.16254
           R4           0.00000   0.00000   0.00000   0.34513
           A1           0.00000   0.00000   0.00000   0.00000   0.25000
           A2           0.00000   0.00000   0.00000   0.00000   0.00000
           A3           0.00000   0.00000   0.00000   0.00000   0.00000
           A4           0.00000   0.00000   0.00000   0.00000   0.00000
           A5           0.00000   0.00000   0.00000   0.00000   0.00000
           A6           0.00000   0.00000   0.00000   0.00000   0.00000
           D1           0.00000   0.00000   0.00000   0.00000   0.00000
           D2           0.00000   0.00000   0.00000   0.00000   0.00000
           D3           0.00000   0.00000   0.00000   0.00000   0.00000
           D4           0.00000   0.00000   0.00000   0.00000   0.00000
                          A2        A3        A4        A5        A6
           A2           0.25000
           A3           0.00000   0.16000
           A4           0.00000   0.00000   0.25000
           A5           0.00000   0.00000   0.00000   0.16000
           A6           0.00000   0.00000   0.00000   0.00000   0.16000
           D1           0.00000   0.00000   0.00000   0.00000   0.00000
           D2           0.00000   0.00000   0.00000   0.00000   0.00000
           D3           0.00000   0.00000   0.00000   0.00000   0.00000
           D4           0.00000   0.00000   0.00000   0.00000   0.00000
                          D1        D2        D3        D4
           D1           0.00230
           D2           0.00000   0.00230
           D3           0.00000   0.00000   0.00230
           D4           0.00000   0.00000   0.00000   0.00230
 ITU=  0
     Eigenvalues ---    0.07336   0.08627   0.09835   0.16254   0.16256
     Eigenvalues ---    0.16259   0.17961   0.18045   0.34513
 RFO step:  Lambda=-3.61022458D-03 EMin= 7.33642104D-02
 Linear search not attempted -- first point.
 Iteration  1 RMS(Cart)=  0.05596335 RMS(Int)=  0.00178732
 Iteration  2 RMS(Cart)=  0.00127161 RMS(Int)=  0.00114547
 Iteration  3 RMS(Cart)=  0.00000207 RMS(Int)=  0.00114547
 Iteration  4 RMS(Cart)=  0.00000001 RMS(Int)=  0.00114547
 Variable       Old X    -DE/DX   Delta X   Delta X   Delta X     New X
                                 (Linear)    (Quad)   (Total)
    R1        3.67381  -0.01006   0.00000  -0.06057  -0.06057   3.61324
    R2        3.67364  -0.00962   0.00000  -0.05788  -0.05788   3.61576
    R3        3.67389  -0.01015   0.00000  -0.06111  -0.06111   3.61278
    R4        2.06473  -0.00620   0.00000  -0.01778  -0.01778   2.04694
    A1        1.95758  -0.00184   0.00000  -0.03466  -0.03707   1.92052
    A2        1.95745  -0.00379   0.00000  -0.03270  -0.03444   1.92300
    A3        1.86072   0.00330   0.00000   0.03918   0.03947   1.90019
    A4        1.95795  -0.00421   0.00000  -0.03619  -0.03784   1.92010
    A5        1.86114   0.00339   0.00000   0.03848   0.03883   1.89996
    A6        1.86076   0.00439   0.00000   0.03896   0.03889   1.89966
    D1       -2.22161   0.00908   0.00000   0.10369   0.10118  -2.12043
    D2        2.09436   0.00132   0.00000  -0.00021  -0.00064   2.09372
    D3       -2.09401   0.00044   0.00000  -0.00229  -0.00254  -2.09655
    D4        2.09481  -0.00088   0.00000  -0.00208  -0.00190   2.09291
         Item               Value     Threshold  Converged?
 Maximum Force            0.010153     0.000450     NO 
 RMS     Force            0.005963     0.000300     NO 
 Maximum Displacement     0.096963     0.001800     NO 
 RMS     Displacement     0.056384     0.001200     NO 
 Predicted change in Energy=-1.800894D-03
 GradGradGradGradGradGradGradGradGradGradGradGradGradGradGradGradGradGrad

                          Input orientation:                          
 ---------------------------------------------------------------------
 Center     Atomic      Atomic             Coordinates (Angstroms)
 Number     Number       Type             X           Y           Z
 ---------------------------------------------------------------------
      1          6           0       -0.140861    0.017982   -0.060188
      2         35           0        0.205931   -1.852095    0.135942
      3         35           0       -0.070535    0.880309    1.646404
      4         35           0        1.137231    0.805134   -1.244189
      5          1           0       -1.131666    0.148671   -0.477969
 ---------------------------------------------------------------------
                    Distance matrix (angstroms):
                    1          2          3          4          5
     1  C    0.000000
     2  Br   1.912045   0.000000
     3  Br   1.913376   3.134319   0.000000
     4  Br   1.911802   3.135753   3.133668   0.000000
     5  H    1.083196   2.483770   2.484804   2.483129   0.000000
 Stoichiometry    CHBr3
 Framework group  C1[X(CHBr3)]
 Deg. of freedom     9
 Full point group                 C1      NOp   1
 Largest Abelian subgroup         C1      NOp   1
 Largest concise Abelian subgroup C1      NOp   1
                         Standard orientation:                         
 ---------------------------------------------------------------------
 Center     Atomic      Atomic             Coordinates (Angstroms)
 Number     Number       Type             X           Y           Z
 ---------------------------------------------------------------------
      1          6           0       -0.000316    0.001594    0.569839
      2         35           0       -1.688794    0.651825   -0.048352
      3         35           0        0.279389   -1.787481   -0.048208
      4         35           0        1.409459    1.135329   -0.048357
      5          1           0       -0.000001    0.001921    1.653036
 ---------------------------------------------------------------------
 Rotational constants (GHZ):      1.2808230      1.2788480      0.6517491
 Standard basis: 6-31+G(d) (6D, 7F)
 There are   123 symmetry adapted cartesian basis functions of A   symmetry.
 There are   123 symmetry adapted basis functions of A   symmetry.
   123 basis functions,   297 primitive gaussians,   123 cartesian basis functions
    56 alpha electrons       56 beta electrons
       nuclear repulsion energy       820.0367753602 Hartrees.
 NAtoms=    5 NActive=    5 NUniq=    5 SFac= 1.00D+00 NAtFMM=   60 NAOKFM=F Big=F
 Integral buffers will be    131072 words long.
 Raffenetti 2 integral format.
 Two-electron integral symmetry is turned on.
 One-electron integrals computed using PRISM.
 NBasis=   123 RedAO= T EigKep=  5.81D-04  NBF=   123
 NBsUse=   123 1.00D-06 EigRej= -1.00D+00 NBFU=   123
 Initial guess from the checkpoint file:  "/srv/scratch/z5358697/gauss/Gau-1802768.chk"
 B after Tr=     0.000000    0.000000    0.000000
         Rot=    0.814241    0.000047   -0.000022   -0.580527 Ang=  70.98 deg.
 ExpMin= 3.50D-02 ExpMax= 5.74D+05 ExpMxC= 5.74D+03 IAcc=3 IRadAn=         5 AccDes= 0.00D+00
 Harris functional with IExCor= 1009 and IRadAn=       5 diagonalized for initial guess.
 HarFok:  IExCor= 1009 AccDes= 0.00D+00 IRadAn=         5 IDoV= 1 UseB2=F ITyADJ=14
 ICtDFT=  3500011 ScaDFX=  1.000000  1.000000  1.000000  1.000000
 FoFCou: FMM=F IPFlag=           0 FMFlag=      100000 FMFlg1=           0
         NFxFlg=           0 DoJE=T BraDBF=F KetDBF=T FulRan=T
         wScrn=  0.000000 ICntrl=     500 IOpCl=  0 I1Cent=   200000004 NGrid=           0
         NMat0=    1 NMatS0=      1 NMatT0=    0 NMatD0=    1 NMtDS0=    0 NMtDT0=    0
 Petite list used in FoFCou.
 DSYEVD-2 returned Info=        3905 IAlg= 4 N=   123 NDim=   123 NE2=      272546 trying  DSYEV.
 Keep R1 ints in memory in canonical form, NReq=30191025.
 Requested convergence on RMS density matrix=1.00D-08 within 128 cycles.
 Requested convergence on MAX density matrix=1.00D-06.
 Requested convergence on             energy=1.00D-06.
 No special actions if energy rises.
 SCF Done:  E(RM062X) =  -7754.05055334     A.U. after   11 cycles
            NFock= 11  Conv=0.71D-08     -V/T= 2.0068
 Calling FoFJK, ICntrl=      2127 FMM=F ISym2X=0 I1Cent= 0 IOpClX= 0 NMat=1 NMatS=1 NMatT=0.
 ***** Axes restored to original set *****
 -------------------------------------------------------------------
 Center     Atomic                   Forces (Hartrees/Bohr)
 Number     Number              X              Y              Z
 -------------------------------------------------------------------
      1        6          -0.000533633   -0.000226880    0.000053923
      2       35          -0.000284652   -0.005640389   -0.000132616
      3       35          -0.001199048    0.003028316    0.004910044
      4       35           0.002561258    0.002729502   -0.004698573
      5        1          -0.000543925    0.000109450   -0.000132778
 -------------------------------------------------------------------
 Cartesian Forces:  Max     0.005640389 RMS     0.002625274

 GradGradGradGradGradGradGradGradGradGradGradGradGradGradGradGradGradGrad
 Berny optimization.
 Using GEDIIS/GDIIS optimizer.
 FormGI is forming the generalized inverse of G from B-inverse, IUseBI=4.
 Internal  Forces:  Max     0.005759873 RMS     0.002936105
 Search for a local minimum.
 Step number   2 out of a maximum of   24
 All quantities printed in internal units (Hartrees-Bohrs-Radians)
 Mixed Optimization -- RFO/linear search
 Update second derivatives using D2CorX and points    1    2
 DE= -9.16D-04 DEPred=-1.80D-03 R= 5.09D-01
 TightC=F SS=  1.41D+00  RLast= 1.73D-01 DXNew= 5.0454D-01 5.1864D-01
 Trust test= 5.09D-01 RLast= 1.73D-01 DXMaxT set to 5.05D-01
 The second derivative matrix:
                          R1        R2        R3        R4        A1
           R1           0.18113
           R2           0.01917   0.18232
           R3           0.01951   0.02011   0.18302
           R4           0.00307   0.00355   0.00344   0.34334
           A1          -0.01734  -0.01633  -0.01736  -0.01229   0.22760
           A2          -0.00763  -0.00680  -0.00743  -0.00772  -0.01933
           A3           0.00408   0.00349   0.00389   0.00500   0.01391
           A4          -0.00805  -0.00714  -0.00782  -0.00834  -0.02118
           A5           0.00289   0.00232   0.00267   0.00443   0.01349
           A6          -0.00130  -0.00181  -0.00162   0.00261   0.01278
           D1          -0.03576  -0.03531  -0.03669  -0.01547  -0.00575
           D2          -0.00528  -0.00521  -0.00541  -0.00230  -0.00092
           D3          -0.00179  -0.00176  -0.00183  -0.00078  -0.00032
           D4           0.00349   0.00345   0.00358   0.00152   0.00060
                          A2        A3        A4        A5        A6
           A2           0.23500
           A3           0.01047   0.15276
           A4          -0.01637   0.01141   0.23215
           A5           0.00991  -0.00680   0.01079   0.15366
           A6           0.00847  -0.00560   0.00917  -0.00506   0.15662
           D1          -0.01214   0.01012  -0.01361   0.01086   0.01423
           D2          -0.00184   0.00153  -0.00206   0.00163   0.00212
           D3          -0.00063   0.00052  -0.00071   0.00056   0.00072
           D4           0.00121  -0.00101   0.00136  -0.00108  -0.00140
                          D1        D2        D3        D4
           D1           0.03144
           D2           0.00423   0.00291
           D3           0.00142   0.00021   0.00237
           D4          -0.00281  -0.00041  -0.00014   0.00257
 ITU=  1  0
 Use linear search instead of GDIIS.
     Eigenvalues ---    0.07259   0.07952   0.10584   0.16254   0.16256
     Eigenvalues ---    0.18186   0.18216   0.22856   0.34362
 RFO step:  Lambda=-1.82306659D-05 EMin= 7.25864827D-02
 Quartic linear search produced a step of -0.32951.
 Iteration  1 RMS(Cart)=  0.01819323 RMS(Int)=  0.00030474
 Iteration  2 RMS(Cart)=  0.00011021 RMS(Int)=  0.00028506
 Iteration  3 RMS(Cart)=  0.00000006 RMS(Int)=  0.00028506
 Variable       Old X    -DE/DX   Delta X   Delta X   Delta X     New X
                                 (Linear)    (Quad)   (Total)
    R1        3.61324   0.00545   0.01996   0.00229   0.02225   3.63549
    R2        3.61576   0.00569   0.01907   0.00418   0.02325   3.63901
    R3        3.61278   0.00576   0.02014   0.00340   0.02353   3.63632
    R4        2.04694   0.00056   0.00586  -0.00486   0.00100   2.04794
    A1        1.92052   0.00087   0.01221  -0.00186   0.01095   1.93147
    A2        1.92300   0.00162   0.01135  -0.00188   0.00991   1.93292
    A3        1.90019  -0.00119  -0.01301   0.00259  -0.01050   1.88969
    A4        1.92010   0.00185   0.01247  -0.00193   0.01095   1.93106
    A5        1.89996  -0.00140  -0.01279   0.00180  -0.01109   1.88888
    A6        1.89966  -0.00184  -0.01282   0.00142  -0.01139   1.88826
    D1       -2.12043  -0.00335  -0.03334   0.00482  -0.02791  -2.14834
    D2        2.09372  -0.00048   0.00021   0.00034   0.00065   2.09437
    D3       -2.09655  -0.00016   0.00084  -0.00010   0.00080  -2.09575
    D4        2.09291   0.00032   0.00063  -0.00044   0.00015   2.09306
         Item               Value     Threshold  Converged?
 Maximum Force            0.005760     0.000450     NO 
 RMS     Force            0.002936     0.000300     NO 
 Maximum Displacement     0.032301     0.001800     NO 
 RMS     Displacement     0.018226     0.001200     NO 
 Predicted change in Energy=-2.803571D-04
 GradGradGradGradGradGradGradGradGradGradGradGradGradGradGradGradGradGrad

                          Input orientation:                          
 ---------------------------------------------------------------------
 Center     Atomic      Atomic             Coordinates (Angstroms)
 Number     Number       Type             X           Y           Z
 ---------------------------------------------------------------------
      1          6           0       -0.132040    0.016700   -0.056156
      2         35           0        0.198276   -1.869115    0.132695
      3         35           0       -0.081623    0.890576    1.659082
      4         35           0        1.138680    0.814010   -1.261282
      5          1           0       -1.123193    0.147828   -0.474338
 ---------------------------------------------------------------------
                    Distance matrix (angstroms):
                    1          2          3          4          5
     1  C    0.000000
     2  Br   1.923817   0.000000
     3  Br   1.925680   3.166085   0.000000
     4  Br   1.924256   3.166495   3.165996   0.000000
     5  H    1.083723   2.486530   2.487574   2.485789   0.000000
 Stoichiometry    CHBr3
 Framework group  C1[X(CHBr3)]
 Deg. of freedom     9
 Full point group                 C1      NOp   1
 Largest Abelian subgroup         C1      NOp   1
 Largest concise Abelian subgroup C1      NOp   1
                         Standard orientation:                         
 ---------------------------------------------------------------------
 Center     Atomic      Atomic             Coordinates (Angstroms)
 Number     Number       Type             X           Y           Z
 ---------------------------------------------------------------------
      1          6           0       -0.000392    0.001238    0.554721
      2         35           0       -1.654857    0.776700   -0.047340
      3         35           0        0.154610   -1.821362   -0.047230
      4         35           0        1.500302    1.044408   -0.047338
      5          1           0        0.000438    0.001482    1.638444
 ---------------------------------------------------------------------
 Rotational constants (GHZ):      1.2559536      1.2554741      0.6387998
 Standard basis: 6-31+G(d) (6D, 7F)
 There are   123 symmetry adapted cartesian basis functions of A   symmetry.
 There are   123 symmetry adapted basis functions of A   symmetry.
   123 basis functions,   297 primitive gaussians,   123 cartesian basis functions
    56 alpha electrons       56 beta electrons
       nuclear repulsion energy       812.7135781173 Hartrees.
 NAtoms=    5 NActive=    5 NUniq=    5 SFac= 1.00D+00 NAtFMM=   60 NAOKFM=F Big=F
 Integral buffers will be    131072 words long.
 Raffenetti 2 integral format.
 Two-electron integral symmetry is turned on.
 One-electron integrals computed using PRISM.
 NBasis=   123 RedAO= T EigKep=  5.89D-04  NBF=   123
 NBsUse=   123 1.00D-06 EigRej= -1.00D+00 NBFU=   123
 Initial guess from the checkpoint file:  "/srv/scratch/z5358697/gauss/Gau-1802768.chk"
 B after Tr=     0.000000    0.000000    0.000000
         Rot=    0.999383   -0.000012    0.000001    0.035126 Ang=  -4.03 deg.
 ExpMin= 3.50D-02 ExpMax= 5.74D+05 ExpMxC= 5.74D+03 IAcc=3 IRadAn=         5 AccDes= 0.00D+00
 Harris functional with IExCor= 1009 and IRadAn=       5 diagonalized for initial guess.
 HarFok:  IExCor= 1009 AccDes= 0.00D+00 IRadAn=         5 IDoV= 1 UseB2=F ITyADJ=14
 ICtDFT=  3500011 ScaDFX=  1.000000  1.000000  1.000000  1.000000
 FoFCou: FMM=F IPFlag=           0 FMFlag=      100000 FMFlg1=           0
         NFxFlg=           0 DoJE=T BraDBF=F KetDBF=T FulRan=T
         wScrn=  0.000000 ICntrl=     500 IOpCl=  0 I1Cent=   200000004 NGrid=           0
         NMat0=    1 NMatS0=      1 NMatT0=    0 NMatD0=    1 NMtDS0=    0 NMtDT0=    0
 Petite list used in FoFCou.
 Keep R1 ints in memory in canonical form, NReq=30190995.
 Requested convergence on RMS density matrix=1.00D-08 within 128 cycles.
 Requested convergence on MAX density matrix=1.00D-06.
 Requested convergence on             energy=1.00D-06.
 No special actions if energy rises.
 SCF Done:  E(RM062X) =  -7754.05084943     A.U. after    9 cycles
            NFock=  9  Conv=0.83D-08     -V/T= 2.0068
 Calling FoFJK, ICntrl=      2127 FMM=F ISym2X=0 I1Cent= 0 IOpClX= 0 NMat=1 NMatS=1 NMatT=0.
 ***** Axes restored to original set *****
 -------------------------------------------------------------------
 Center     Atomic                   Forces (Hartrees/Bohr)
 Number     Number              X              Y              Z
 -------------------------------------------------------------------
      1        6          -0.000010781    0.000499890    0.000134016
      2       35           0.000203232    0.000338792    0.000135160
      3       35           0.000217188   -0.000763940   -0.000582122
      4       35          -0.000308678   -0.000059850    0.000232849
      5        1          -0.000100962   -0.000014893    0.000080097
 -------------------------------------------------------------------
 Cartesian Forces:  Max     0.000763940 RMS     0.000324743

 GradGradGradGradGradGradGradGradGradGradGradGradGradGradGradGradGradGrad
 Berny optimization.
 Using GEDIIS/GDIIS optimizer.
 FormGI is forming the generalized inverse of G from B-inverse, IUseBI=4.
 Internal  Forces:  Max     0.000868586 RMS     0.000326272
 Search for a local minimum.
 Step number   3 out of a maximum of   24
 All quantities printed in internal units (Hartrees-Bohrs-Radians)
 Mixed Optimization -- En-DIIS/RFO-DIIS
 Update second derivatives using D2CorX and points    1    2    3
 DE= -2.96D-04 DEPred=-2.80D-04 R= 1.06D+00
 TightC=F SS=  1.41D+00  RLast= 5.54D-02 DXNew= 8.4853D-01 1.6627D-01
 Trust test= 1.06D+00 RLast= 5.54D-02 DXMaxT set to 5.05D-01
 The second derivative matrix:
                          R1        R2        R3        R4        A1
           R1           0.18153
           R2           0.02489   0.19479
           R3           0.02047   0.02690   0.18462
           R4           0.00260   0.00215   0.00280   0.34400
           A1          -0.01167  -0.00932  -0.01116  -0.01307   0.22890
           A2          -0.00586  -0.00369  -0.00541  -0.00794  -0.01790
           A3           0.00133  -0.00042   0.00084   0.00533   0.01270
           A4          -0.00646  -0.00408  -0.00598  -0.00853  -0.01960
           A5           0.00076  -0.00117   0.00027   0.00472   0.01206
           A6          -0.00107  -0.00302  -0.00151   0.00258   0.01120
           D1          -0.03234  -0.03492  -0.03333  -0.01580  -0.00912
           D2          -0.00231  -0.00223  -0.00223  -0.00273  -0.00101
           D3          -0.00065  -0.00060  -0.00061  -0.00094  -0.00033
           D4           0.00166   0.00163   0.00162   0.00178   0.00068
                          A2        A3        A4        A5        A6
           A2           0.23577
           A3           0.00959   0.15364
           A4          -0.01558   0.01047   0.23294
           A5           0.00908  -0.00588   0.00993   0.15455
           A6           0.00801  -0.00485   0.00877  -0.00450   0.15648
           D1          -0.01255   0.01139  -0.01379   0.01152   0.01307
           D2          -0.00133   0.00127  -0.00145   0.00117   0.00126
           D3          -0.00043   0.00041  -0.00047   0.00037   0.00040
           D4           0.00091  -0.00086   0.00099  -0.00080  -0.00087
                          D1        D2        D3        D4
           D1           0.02676
           D2           0.00199   0.00247
           D3           0.00058   0.00005   0.00232
           D4          -0.00141  -0.00012  -0.00004   0.00239
 ITU=  1  1  0
 Use linear search instead of GDIIS.
     Eigenvalues ---    0.07458   0.08145   0.10441   0.16226   0.16256
     Eigenvalues ---    0.18121   0.18169   0.24419   0.34418
 RFO step:  Lambda=-2.71740269D-06 EMin= 7.45833945D-02
 Quartic linear search produced a step of -0.06878.
 Iteration  1 RMS(Cart)=  0.00197539 RMS(Int)=  0.00000621
 Iteration  2 RMS(Cart)=  0.00000148 RMS(Int)=  0.00000594
 Iteration  3 RMS(Cart)=  0.00000000 RMS(Int)=  0.00000594
 Variable       Old X    -DE/DX   Delta X   Delta X   Delta X     New X
                                 (Linear)    (Quad)   (Total)
    R1        3.63549  -0.00029  -0.00153   0.00141  -0.00012   3.63537
    R2        3.63901  -0.00087  -0.00160  -0.00177  -0.00337   3.63564
    R3        3.63632  -0.00036  -0.00162   0.00117  -0.00045   3.63587
    R4        2.04794   0.00006  -0.00007   0.00027   0.00021   2.04815
    A1        1.93147  -0.00035  -0.00075  -0.00212  -0.00286   1.92861
    A2        1.93292  -0.00006  -0.00068   0.00069   0.00002   1.93294
    A3        1.88969   0.00023   0.00072   0.00025   0.00097   1.89066
    A4        1.93106  -0.00001  -0.00075   0.00120   0.00045   1.93151
    A5        1.88888   0.00019   0.00076   0.00007   0.00083   1.88970
    A6        1.88826   0.00003   0.00078  -0.00007   0.00072   1.88898
    D1       -2.14834   0.00050   0.00192   0.00139   0.00332  -2.14502
    D2        2.09437  -0.00019  -0.00004  -0.00236  -0.00241   2.09196
    D3       -2.09575  -0.00008  -0.00006  -0.00093  -0.00099  -2.09674
    D4        2.09306   0.00011  -0.00001   0.00143   0.00142   2.09448
         Item               Value     Threshold  Converged?
 Maximum Force            0.000869     0.000450     NO 
 RMS     Force            0.000326     0.000300     NO 
 Maximum Displacement     0.004836     0.001800     NO 
 RMS     Displacement     0.001976     0.001200     NO 
 Predicted change in Energy=-4.019878D-06
 GradGradGradGradGradGradGradGradGradGradGradGradGradGradGradGradGradGrad

                          Input orientation:                          
 ---------------------------------------------------------------------
 Center     Atomic      Atomic             Coordinates (Angstroms)
 Number     Number       Type             X           Y           Z
 ---------------------------------------------------------------------
      1          6           0       -0.132539    0.017382   -0.056739
      2         35           0        0.198741   -1.867946    0.134628
      3         35           0       -0.081072    0.888017    1.658115
      4         35           0        1.138840    0.814050   -1.261215
      5          1           0       -1.123869    0.148498   -0.474789
 ---------------------------------------------------------------------
                    Distance matrix (angstroms):
                    1          2          3          4          5
     1  C    0.000000
     2  Br   1.923754   0.000000
     3  Br   1.923897   3.161430   0.000000
     4  Br   1.924018   3.166269   3.164829   0.000000
     5  H    1.083832   2.487314   2.486683   2.486217   0.000000
 Stoichiometry    CHBr3
 Framework group  C1[X(CHBr3)]
 Deg. of freedom     9
 Full point group                 C1      NOp   1
 Largest Abelian subgroup         C1      NOp   1
 Largest concise Abelian subgroup C1      NOp   1
                         Standard orientation:                         
 ---------------------------------------------------------------------
 Center     Atomic      Atomic             Coordinates (Angstroms)
 Number     Number       Type             X           Y           Z
 ---------------------------------------------------------------------
      1          6           0        0.001284    0.000740    0.555947
      2         35           0       -1.136601    1.429751   -0.047357
      3         35           0       -0.672328   -1.697403   -0.047322
      4         35           0        1.808645    0.267517   -0.047477
      5          1           0        0.002256    0.000307    1.639779
 ---------------------------------------------------------------------
 Rotational constants (GHZ):      1.2594604      1.2549795      0.6396138
 Standard basis: 6-31+G(d) (6D, 7F)
 There are   123 symmetry adapted cartesian basis functions of A   symmetry.
 There are   123 symmetry adapted basis functions of A   symmetry.
   123 basis functions,   297 primitive gaussians,   123 cartesian basis functions
    56 alpha electrons       56 beta electrons
       nuclear repulsion energy       813.1664259553 Hartrees.
 NAtoms=    5 NActive=    5 NUniq=    5 SFac= 1.00D+00 NAtFMM=   60 NAOKFM=F Big=F
 Integral buffers will be    131072 words long.
 Raffenetti 2 integral format.
 Two-electron integral symmetry is turned on.
 One-electron integrals computed using PRISM.
 NBasis=   123 RedAO= T EigKep=  5.88D-04  NBF=   123
 NBsUse=   123 1.00D-06 EigRej= -1.00D+00 NBFU=   123
 Initial guess from the checkpoint file:  "/srv/scratch/z5358697/gauss/Gau-1802768.chk"
 B after Tr=     0.000000    0.000000    0.000000
         Rot=    0.973537   -0.000011   -0.000036    0.228530 Ang= -26.42 deg.
 Keep R1 ints in memory in canonical form, NReq=30190995.
 Requested convergence on RMS density matrix=1.00D-08 within 128 cycles.
 Requested convergence on MAX density matrix=1.00D-06.
 Requested convergence on             energy=1.00D-06.
 No special actions if energy rises.
 SCF Done:  E(RM062X) =  -7754.05080063     A.U. after    8 cycles
            NFock=  8  Conv=0.10D-07     -V/T= 2.0068
 Calling FoFJK, ICntrl=      2127 FMM=F ISym2X=0 I1Cent= 0 IOpClX= 0 NMat=1 NMatS=1 NMatT=0.
 ***** Axes restored to original set *****
 -------------------------------------------------------------------
 Center     Atomic                   Forces (Hartrees/Bohr)
 Number     Number              X              Y              Z
 -------------------------------------------------------------------
      1        6          -0.000557275    0.000254949    0.000679270
      2       35           0.000014802    0.000227891   -0.000458773
      3       35           0.000240826   -0.000091232   -0.000377692
      4       35           0.000280518   -0.000307726    0.000206732
      5        1           0.000021129   -0.000083882   -0.000049538
 -------------------------------------------------------------------
 Cartesian Forces:  Max     0.000679270 RMS     0.000319856

 GradGradGradGradGradGradGradGradGradGradGradGradGradGradGradGradGradGrad
 Berny optimization.
 Using GEDIIS/GDIIS optimizer.
 FormGI is forming the generalized inverse of G from B-inverse, IUseBI=4.
 Internal  Forces:  Max     0.000560222 RMS     0.000319395
 Search for a local minimum.
 Step number   4 out of a maximum of   24
 All quantities printed in internal units (Hartrees-Bohrs-Radians)
 Mixed Optimization -- En-DIIS/RFO-DIIS
 Swapping is turned off.
 Update second derivatives using D2CorX and points    1    2    3    4
 DE=  4.88D-05 DEPred=-4.02D-06 R=-1.21D+01
 Trust test=-1.21D+01 RLast= 6.48D-03 DXMaxT set to 2.52D-01
 The second derivative matrix:
                          R1        R2        R3        R4        A1
           R1           0.17651
           R2           0.00641   0.13309
           R3           0.01316   0.01762   0.18355
           R4           0.00517   0.00464   0.00328   0.34577
           A1          -0.02636  -0.04631  -0.00808  -0.01395   0.21905
           A2          -0.00295  -0.03236  -0.02134  -0.00383  -0.06394
           A3           0.00483  -0.00359  -0.00520   0.00751  -0.00080
           A4          -0.00164  -0.00455  -0.01221  -0.00773  -0.03343
           A5           0.00325   0.01453   0.00415   0.00378   0.02658
           A6           0.00037   0.04929   0.02057  -0.00509   0.07728
           D1          -0.02469  -0.01793  -0.03070  -0.01978  -0.00512
           D2          -0.00318   0.04278   0.01953  -0.01099   0.06114
           D3          -0.00181   0.03517   0.01666  -0.00680   0.05021
           D4           0.00137  -0.00761  -0.00287   0.00419  -0.01092
                          A2        A3        A4        A5        A6
           A2           0.27638
           A3           0.03189   0.16312
           A4           0.00991   0.02209   0.24486
           A5           0.00784  -0.00918   0.00608   0.15177
           A6          -0.03411  -0.03071  -0.02271  -0.00694   0.19391
           D1           0.00172   0.01611  -0.01015   0.00685  -0.00847
           D2          -0.04914  -0.02542  -0.03425   0.00120   0.04735
           D3          -0.03952  -0.02154  -0.02711   0.00041   0.03829
           D4           0.00962   0.00388   0.00715  -0.00078  -0.00906
                          D1        D2        D3        D4
           D1           0.02383
           D2          -0.01822   0.05611
           D3          -0.01577   0.04411   0.03851
           D4           0.00245  -0.00969  -0.00790   0.00410
 ITU= -1  1  1  0
     Eigenvalues ---    0.05135   0.09228   0.10530   0.13673   0.16307
     Eigenvalues ---    0.18098   0.19547   0.34500   0.42376
 En-DIIS/RFO-DIIS IScMMF=        0 using points:     4    3
 RFO step:  Lambda=-3.36812753D-06.
 DidBck=F Rises=F RFO-DIIS coefs:    1.04997   -0.04997
 Iteration  1 RMS(Cart)=  0.00343724 RMS(Int)=  0.00000817
 Iteration  2 RMS(Cart)=  0.00000606 RMS(Int)=  0.00000524
 Iteration  3 RMS(Cart)=  0.00000000 RMS(Int)=  0.00000524
 Variable       Old X    -DE/DX   Delta X   Delta X   Delta X     New X
                                 (Linear)    (Quad)   (Total)
    R1        3.63537  -0.00025  -0.00001  -0.00080  -0.00081   3.63456
    R2        3.63564  -0.00038  -0.00017  -0.00576  -0.00593   3.62971
    R3        3.63587  -0.00008  -0.00002  -0.00013  -0.00015   3.63571
    R4        2.04815  -0.00001   0.00001   0.00028   0.00029   2.04843
    A1        1.92861   0.00028  -0.00014  -0.00153  -0.00168   1.92692
    A2        1.93294  -0.00056   0.00000  -0.00433  -0.00434   1.92860
    A3        1.89066  -0.00007   0.00005   0.00077   0.00082   1.89148
    A4        1.93151  -0.00033   0.00002  -0.00089  -0.00088   1.93063
    A5        1.88970   0.00018   0.00004   0.00356   0.00360   1.89330
    A6        1.88898   0.00053   0.00004   0.00275   0.00279   1.89176
    D1       -2.14502   0.00026   0.00017   0.00558   0.00574  -2.13928
    D2        2.09196   0.00040  -0.00012   0.00064   0.00052   2.09248
    D3       -2.09674   0.00041  -0.00005   0.00318   0.00313  -2.09361
    D4        2.09448   0.00001   0.00007   0.00254   0.00261   2.09710
         Item               Value     Threshold  Converged?
 Maximum Force            0.000560     0.000450     NO 
 RMS     Force            0.000319     0.000300     NO 
 Maximum Displacement     0.005035     0.001800     NO 
 RMS     Displacement     0.003439     0.001200     NO 
 Predicted change in Energy=-4.882182D-06
 GradGradGradGradGradGradGradGradGradGradGradGradGradGradGradGradGradGrad

                          Input orientation:                          
 ---------------------------------------------------------------------
 Center     Atomic      Atomic             Coordinates (Angstroms)
 Number     Number       Type             X           Y           Z
 ---------------------------------------------------------------------
      1          6           0       -0.135029    0.018814   -0.056539
      2         35           0        0.200849   -1.865281    0.134648
      3         35           0       -0.079380    0.886157    1.656333
      4         35           0        1.140130    0.811920   -1.259239
      5          1           0       -1.126469    0.148390   -0.475203
 ---------------------------------------------------------------------
                    Distance matrix (angstroms):
                    1          2          3          4          5
     1  C    0.000000
     2  Br   1.923326   0.000000
     3  Br   1.920758   3.156654   0.000000
     4  Br   1.923937   3.161104   3.161214   0.000000
     5  H    1.083984   2.487682   2.486793   2.488464   0.000000
 Stoichiometry    CHBr3
 Framework group  C1[X(CHBr3)]
 Deg. of freedom     9
 Full point group                 C1      NOp   1
 Largest Abelian subgroup         C1      NOp   1
 Largest concise Abelian subgroup C1      NOp   1
                         Standard orientation:                         
 ---------------------------------------------------------------------
 Center     Atomic      Atomic             Coordinates (Angstroms)
 Number     Number       Type             X           Y           Z
 ---------------------------------------------------------------------
      1          6           0        0.000366   -0.001533    0.559701
      2         35           0       -0.896207    1.587985   -0.047563
      3         35           0       -0.929707   -1.568492   -0.047686
      4         35           0        1.825833   -0.019210   -0.047662
      5          1           0        0.000606   -0.000715    1.643685
 ---------------------------------------------------------------------
 Rotational constants (GHZ):      1.2628954      1.2581866      0.6414445
 Standard basis: 6-31+G(d) (6D, 7F)
 There are   123 symmetry adapted cartesian basis functions of A   symmetry.
 There are   123 symmetry adapted basis functions of A   symmetry.
   123 basis functions,   297 primitive gaussians,   123 cartesian basis functions
    56 alpha electrons       56 beta electrons
       nuclear repulsion energy       814.1465072699 Hartrees.
 NAtoms=    5 NActive=    5 NUniq=    5 SFac= 1.00D+00 NAtFMM=   60 NAOKFM=F Big=F
 Integral buffers will be    131072 words long.
 Raffenetti 2 integral format.
 Two-electron integral symmetry is turned on.
 One-electron integrals computed using PRISM.
 NBasis=   123 RedAO= T EigKep=  5.87D-04  NBF=   123
 NBsUse=   123 1.00D-06 EigRej= -1.00D+00 NBFU=   123
 Initial guess from the checkpoint file:  "/srv/scratch/z5358697/gauss/Gau-1802768.chk"
 B after Tr=     0.000000    0.000000    0.000000
         Rot=    0.996892   -0.000051    0.000032    0.078777 Ang=  -9.04 deg.
 Keep R1 ints in memory in canonical form, NReq=30190995.
 Requested convergence on RMS density matrix=1.00D-08 within 128 cycles.
 Requested convergence on MAX density matrix=1.00D-06.
 Requested convergence on             energy=1.00D-06.
 No special actions if energy rises.
 SCF Done:  E(RM062X) =  -7754.05092676     A.U. after    9 cycles
            NFock=  9  Conv=0.31D-08     -V/T= 2.0068
 Calling FoFJK, ICntrl=      2127 FMM=F ISym2X=0 I1Cent= 0 IOpClX= 0 NMat=1 NMatS=1 NMatT=0.
 ***** Axes restored to original set *****
 -------------------------------------------------------------------
 Center     Atomic                   Forces (Hartrees/Bohr)
 Number     Number              X              Y              Z
 -------------------------------------------------------------------
      1        6           0.001034719   -0.000168278   -0.000621843
      2       35          -0.000373281   -0.000925486   -0.000153391
      3       35          -0.000575144    0.000916668    0.001116459
      4       35          -0.000212696    0.000155742   -0.000381746
      5        1           0.000126402    0.000021355    0.000040521
 -------------------------------------------------------------------
 Cartesian Forces:  Max     0.001116459 RMS     0.000586282

 GradGradGradGradGradGradGradGradGradGradGradGradGradGradGradGradGradGrad
 Berny optimization.
 Using GEDIIS/GDIIS optimizer.
 FormGI is forming the generalized inverse of G from B-inverse, IUseBI=4.
 Internal  Forces:  Max     0.001398722 RMS     0.000645997
 Search for a local minimum.
 Step number   5 out of a maximum of   24
 All quantities printed in internal units (Hartrees-Bohrs-Radians)
 Mixed Optimization -- En-DIIS/RFO-DIIS
 Swapping is turned off.
 Update second derivatives using D2CorX and points    1    2    3    4    5
 DE= -1.26D-04 DEPred=-4.88D-06 R= 2.58D+01
 TightC=F SS=  1.41D+00  RLast= 1.14D-02 DXNew= 4.2426D-01 3.4156D-02
 Trust test= 2.58D+01 RLast= 1.14D-02 DXMaxT set to 2.52D-01
 The second derivative matrix:
                          R1        R2        R3        R4        A1
           R1           0.19318
           R2           0.06236   0.21231
           R3           0.01191   0.03191   0.17995
           R4          -0.00869  -0.00005  -0.00848   0.33493
           A1           0.01220  -0.00389   0.01504  -0.00469   0.22389
           A2           0.00243  -0.03287  -0.02838  -0.01173  -0.04748
           A3          -0.00386  -0.03423  -0.00039   0.01697  -0.01807
           A4           0.00353   0.03567  -0.01904  -0.02188  -0.00660
           A5          -0.00860  -0.00505   0.00742   0.01037   0.01006
           A6          -0.03144   0.00256   0.00241  -0.00990   0.05847
           D1          -0.05481  -0.09572  -0.02528  -0.00752  -0.04893
           D2          -0.02732   0.01302  -0.00341  -0.02373   0.05735
           D3          -0.02352   0.00634  -0.00269  -0.01651   0.04626
           D4           0.00380  -0.00667   0.00072   0.00722  -0.01108
                          A2        A3        A4        A5        A6
           A2           0.25064
           A3           0.02750   0.16917
           A4           0.01527   0.01728   0.24311
           A5           0.01597  -0.00128  -0.00312   0.15404
           A6          -0.04399  -0.01515  -0.04067   0.00739   0.21497
           D1          -0.00933   0.03807  -0.03073   0.02914   0.03082
           D2          -0.06568  -0.01519  -0.04654   0.01391   0.05596
           D3          -0.05473  -0.01184  -0.03838   0.01251   0.04612
           D4           0.01095   0.00336   0.00816  -0.00140  -0.00984
                          D1        D2        D3        D4
           D1           0.08650
           D2           0.00430   0.05307
           D3           0.00627   0.04095   0.03554
           D4           0.00197  -0.00981  -0.00772   0.00439
 ITU=  1 -1  1  1  0
     Eigenvalues ---    0.06391   0.10074   0.12526   0.14757   0.17333
     Eigenvalues ---    0.18114   0.32408   0.35409   0.42116
 En-DIIS/RFO-DIIS IScMMF=        0 using points:     5    4    3
 RFO step:  Lambda=-1.02085189D-05.
 DidBck=T Rises=F RFO-DIIS coefs:    0.29513    0.28703    0.41785
 Iteration  1 RMS(Cart)=  0.00308199 RMS(Int)=  0.00000486
 Iteration  2 RMS(Cart)=  0.00000416 RMS(Int)=  0.00000165
 Iteration  3 RMS(Cart)=  0.00000000 RMS(Int)=  0.00000165
 Variable       Old X    -DE/DX   Delta X   Delta X   Delta X     New X
                                 (Linear)    (Quad)   (Total)
    R1        3.63456   0.00083   0.00062   0.00044   0.00106   3.63562
    R2        3.62971   0.00140   0.00559  -0.00084   0.00475   3.63446
    R3        3.63571   0.00016   0.00030  -0.00065  -0.00036   3.63536
    R4        2.04843  -0.00013  -0.00029   0.00002  -0.00027   2.04816
    A1        1.92692   0.00039   0.00238   0.00020   0.00258   1.92950
    A2        1.92860   0.00054   0.00305  -0.00035   0.00269   1.93129
    A3        1.89148  -0.00045  -0.00098  -0.00066  -0.00164   1.88984
    A4        1.93063   0.00057   0.00043   0.00080   0.00124   1.93187
    A5        1.89330  -0.00056  -0.00288   0.00002  -0.00287   1.89044
    A6        1.89176  -0.00054  -0.00226  -0.00003  -0.00229   1.88948
    D1       -2.13928  -0.00125  -0.00544  -0.00055  -0.00599  -2.14527
    D2        2.09248  -0.00011   0.00064  -0.00014   0.00051   2.09299
    D3       -2.09361  -0.00007  -0.00179   0.00082  -0.00097  -2.09458
    D4        2.09710   0.00004  -0.00243   0.00096  -0.00148   2.09562
         Item               Value     Threshold  Converged?
 Maximum Force            0.001399     0.000450     NO 
 RMS     Force            0.000646     0.000300     NO 
 Maximum Displacement     0.004407     0.001800     NO 
 RMS     Displacement     0.003082     0.001200     NO 
 Predicted change in Energy=-8.801614D-06
 GradGradGradGradGradGradGradGradGradGradGradGradGradGradGradGradGradGrad

                          Input orientation:                          
 ---------------------------------------------------------------------
 Center     Atomic      Atomic             Coordinates (Angstroms)
 Number     Number       Type             X           Y           Z
 ---------------------------------------------------------------------
      1          6           0       -0.132808    0.017927   -0.056191
      2         35           0        0.199187   -1.867574    0.133566
      3         35           0       -0.081138    0.888478    1.658000
      4         35           0        1.138996    0.813024   -1.260825
      5          1           0       -1.124137    0.148146   -0.474550
 ---------------------------------------------------------------------
                    Distance matrix (angstroms):
                    1          2          3          4          5
     1  C    0.000000
     2  Br   1.923888   0.000000
     3  Br   1.923273   3.162009   0.000000
     4  Br   1.923748   3.164360   3.164484   0.000000
     5  H    1.083842   2.486789   2.486707   2.486375   0.000000
 Stoichiometry    CHBr3
 Framework group  C1[X(CHBr3)]
 Deg. of freedom     9
 Full point group                 C1      NOp   1
 Largest Abelian subgroup         C1      NOp   1
 Largest concise Abelian subgroup C1      NOp   1
                         Standard orientation:                         
 ---------------------------------------------------------------------
 Center     Atomic      Atomic             Coordinates (Angstroms)
 Number     Number       Type             X           Y           Z
 ---------------------------------------------------------------------
      1          6           0        0.000762   -0.000414    0.556107
      2         35           0       -0.878342    1.600945   -0.047356
      3         35           0       -0.948762   -1.560280   -0.047385
      4         35           0        1.826937   -0.040591   -0.047447
      5          1           0        0.001255   -0.000126    1.639949
 ---------------------------------------------------------------------
 Rotational constants (GHZ):      1.2589023      1.2563867      0.6398397
 Standard basis: 6-31+G(d) (6D, 7F)
 There are   123 symmetry adapted cartesian basis functions of A   symmetry.
 There are   123 symmetry adapted basis functions of A   symmetry.
   123 basis functions,   297 primitive gaussians,   123 cartesian basis functions
    56 alpha electrons       56 beta electrons
       nuclear repulsion energy       813.2985039125 Hartrees.
 NAtoms=    5 NActive=    5 NUniq=    5 SFac= 1.00D+00 NAtFMM=   60 NAOKFM=F Big=F
 Integral buffers will be    131072 words long.
 Raffenetti 2 integral format.
 Two-electron integral symmetry is turned on.
 One-electron integrals computed using PRISM.
 NBasis=   123 RedAO= T EigKep=  5.88D-04  NBF=   123
 NBsUse=   123 1.00D-06 EigRej= -1.00D+00 NBFU=   123
 Initial guess from the checkpoint file:  "/srv/scratch/z5358697/gauss/Gau-1802768.chk"
 B after Tr=     0.000000    0.000000    0.000000
         Rot=    0.999983    0.000028   -0.000014    0.005829 Ang=   0.67 deg.
 Keep R1 ints in memory in canonical form, NReq=30190995.
 Requested convergence on RMS density matrix=1.00D-08 within 128 cycles.
 Requested convergence on MAX density matrix=1.00D-06.
 Requested convergence on             energy=1.00D-06.
 No special actions if energy rises.
 SCF Done:  E(RM062X) =  -7754.05093291     A.U. after    8 cycles
            NFock=  8  Conv=0.94D-08     -V/T= 2.0068
 Calling FoFJK, ICntrl=      2127 FMM=F ISym2X=0 I1Cent= 0 IOpClX= 0 NMat=1 NMatS=1 NMatT=0.
 ***** Axes restored to original set *****
 -------------------------------------------------------------------
 Center     Atomic                   Forces (Hartrees/Bohr)
 Number     Number              X              Y              Z
 -------------------------------------------------------------------
      1        6           0.000493791    0.000243394   -0.000211792
      2       35          -0.000105089   -0.000320079    0.000003057
      3       35          -0.000318066    0.000282921    0.000235405
      4       35          -0.000081012   -0.000188122   -0.000079331
      5        1           0.000010376   -0.000018113    0.000052662
 -------------------------------------------------------------------
 Cartesian Forces:  Max     0.000493791 RMS     0.000223534

 GradGradGradGradGradGradGradGradGradGradGradGradGradGradGradGradGradGrad
 Berny optimization.
 Using GEDIIS/GDIIS optimizer.
 FormGI is forming the generalized inverse of G from B-inverse, IUseBI=4.
 Internal  Forces:  Max     0.000428790 RMS     0.000217749
 Search for a local minimum.
 Step number   6 out of a maximum of   24
 All quantities printed in internal units (Hartrees-Bohrs-Radians)
 Mixed Optimization -- En-DIIS/RFO-DIIS
 Swapping is turned off.
 Update second derivatives using D2CorX and points    1    2    3    4    5
                                                      6
 DE= -6.15D-06 DEPred=-8.80D-06 R= 6.98D-01
 TightC=F SS=  1.41D+00  RLast= 9.74D-03 DXNew= 4.2426D-01 2.9208D-02
 Trust test= 6.98D-01 RLast= 9.74D-03 DXMaxT set to 2.52D-01
 The second derivative matrix:
                          R1        R2        R3        R4        A1
           R1           0.17458
           R2           0.04296   0.17135
           R3           0.02572   0.03287   0.19009
           R4           0.00003   0.00539   0.00425   0.34471
           A1           0.00105  -0.02843   0.02739   0.00414   0.13417
           A2           0.00559  -0.03042  -0.03173  -0.01700   0.03299
           A3           0.00757  -0.02280  -0.01217   0.01183   0.02499
           A4          -0.02484   0.01990  -0.00583  -0.02089  -0.01388
           A5           0.00645   0.01545   0.00423   0.00762   0.00902
           A6          -0.01877   0.01157   0.00271  -0.00587   0.03327
           D1          -0.02439  -0.06055  -0.02556  -0.01235  -0.01835
           D2          -0.01600   0.01864   0.00121  -0.01890   0.03365
           D3          -0.01548   0.00826   0.00268  -0.00989   0.02637
           D4           0.00052  -0.01038   0.00147   0.00901  -0.00728
                          A2        A3        A4        A5        A6
           A2           0.16430
           A3          -0.01235   0.14704
           A4           0.00872   0.03359   0.19840
           A5           0.03465  -0.00614   0.01622   0.14000
           A6          -0.01080  -0.00811  -0.02055  -0.00837   0.19573
           D1          -0.02149   0.01764  -0.00004   0.01096   0.01986
           D2          -0.03468  -0.01108  -0.03170   0.00496   0.04005
           D3          -0.03112  -0.00697  -0.02795   0.00557   0.03463
           D4           0.00355   0.00411   0.00375   0.00061  -0.00541
                          D1        D2        D3        D4
           D1           0.04962
           D2          -0.00261   0.04347
           D3           0.00290   0.03297   0.02948
           D4           0.00550  -0.00819  -0.00580   0.00470
 ITU=  1  1 -1  1  1  0
     Eigenvalues ---    0.03739   0.08799   0.11019   0.14021   0.15377
     Eigenvalues ---    0.18247   0.25390   0.27438   0.34515
 En-DIIS/RFO-DIIS IScMMF=        0 using points:     6    5    4    3
 RFO step:  Lambda=-1.93189380D-06.
 DidBck=T Rises=F RFO-DIIS coefs:   -0.84338    0.69969    0.38879    0.75489
 Iteration  1 RMS(Cart)=  0.00080218 RMS(Int)=  0.00000320
 Iteration  2 RMS(Cart)=  0.00000039 RMS(Int)=  0.00000318
 Variable       Old X    -DE/DX   Delta X   Delta X   Delta X     New X
                                 (Linear)    (Quad)   (Total)
    R1        3.63562   0.00030  -0.00094   0.00047  -0.00048   3.63515
    R2        3.63446   0.00034   0.00057  -0.00104  -0.00047   3.63398
    R3        3.63536  -0.00009   0.00117  -0.00073   0.00044   3.63579
    R4        2.04816  -0.00003   0.00001  -0.00001   0.00000   2.04816
    A1        1.92950   0.00015  -0.00067   0.00031  -0.00035   1.92915
    A2        1.93129   0.00004  -0.00002  -0.00002  -0.00004   1.93125
    A3        1.88984  -0.00011   0.00136  -0.00094   0.00043   1.89026
    A4        1.93187   0.00031  -0.00162   0.00050  -0.00111   1.93076
    A5        1.89044  -0.00033   0.00054   0.00063   0.00118   1.89161
    A6        1.88948  -0.00008   0.00049  -0.00052  -0.00003   1.88944
    D1       -2.14527  -0.00043   0.00197  -0.00073   0.00124  -2.14403
    D2        2.09299  -0.00008   0.00029   0.00020   0.00049   2.09348
    D3       -2.09458   0.00006  -0.00104   0.00086  -0.00018  -2.09476
    D4        2.09562   0.00013  -0.00133   0.00066  -0.00067   2.09494
         Item               Value     Threshold  Converged?
 Maximum Force            0.000429     0.000450     YES
 RMS     Force            0.000218     0.000300     YES
 Maximum Displacement     0.001592     0.001800     YES
 RMS     Displacement     0.000802     0.001200     YES
 Predicted change in Energy=-2.166768D-06
 Optimization completed.
    -- Stationary point found.
                           ----------------------------
                           !   Optimized Parameters   !
                           ! (Angstroms and Degrees)  !
 --------------------------                            --------------------------
 ! Name  Definition              Value          Derivative Info.                !
 --------------------------------------------------------------------------------
 ! R1    R(1,2)                  1.9239         -DE/DX =    0.0003              !
 ! R2    R(1,3)                  1.9233         -DE/DX =    0.0003              !
 ! R3    R(1,4)                  1.9237         -DE/DX =   -0.0001              !
 ! R4    R(1,5)                  1.0838         -DE/DX =    0.0                 !
 ! A1    A(2,1,3)              110.5523         -DE/DX =    0.0001              !
 ! A2    A(2,1,4)              110.6549         -DE/DX =    0.0                 !
 ! A3    A(2,1,5)              108.2796         -DE/DX =   -0.0001              !
 ! A4    A(3,1,4)              110.6879         -DE/DX =    0.0003              !
 ! A5    A(3,1,5)              108.314          -DE/DX =   -0.0003              !
 ! A6    A(4,1,5)              108.259          -DE/DX =   -0.0001              !
 ! D1    D(2,1,4,3)           -122.9148         -DE/DX =   -0.0004              !
 ! D2    D(2,1,5,3)            119.9193         -DE/DX =   -0.0001              !
 ! D3    D(2,1,5,4)           -120.0107         -DE/DX =    0.0001              !
 ! D4    D(3,1,5,4)            120.07           -DE/DX =    0.0001              !
 --------------------------------------------------------------------------------
 GradGradGradGradGradGradGradGradGradGradGradGradGradGradGradGradGradGrad

                          Input orientation:                          
 ---------------------------------------------------------------------
 Center     Atomic      Atomic             Coordinates (Angstroms)
 Number     Number       Type             X           Y           Z
 ---------------------------------------------------------------------
      1          6           0       -0.132808    0.017927   -0.056191
      2         35           0        0.199187   -1.867574    0.133566
      3         35           0       -0.081138    0.888478    1.658000
      4         35           0        1.138996    0.813024   -1.260825
      5          1           0       -1.124137    0.148146   -0.474550
 ---------------------------------------------------------------------
                    Distance matrix (angstroms):
                    1          2          3          4          5
     1  C    0.000000
     2  Br   1.923888   0.000000
     3  Br   1.923273   3.162009   0.000000
     4  Br   1.923748   3.164360   3.164484   0.000000
     5  H    1.083842   2.486789   2.486707   2.486375   0.000000
 Stoichiometry    CHBr3
 Framework group  C1[X(CHBr3)]
 Deg. of freedom     9
 Full point group                 C1      NOp   1
 Largest Abelian subgroup         C1      NOp   1
 Largest concise Abelian subgroup C1      NOp   1
                         Standard orientation:                         
 ---------------------------------------------------------------------
 Center     Atomic      Atomic             Coordinates (Angstroms)
 Number     Number       Type             X           Y           Z
 ---------------------------------------------------------------------
      1          6           0        0.000762   -0.000414    0.556107
      2         35           0       -0.878342    1.600945   -0.047356
      3         35           0       -0.948762   -1.560280   -0.047385
      4         35           0        1.826937   -0.040591   -0.047447
      5          1           0        0.001255   -0.000126    1.639949
 ---------------------------------------------------------------------
 Rotational constants (GHZ):      1.2589023      1.2563867      0.6398397

 **********************************************************************

            Population analysis using the SCF density.

 **********************************************************************

 Orbital symmetries:
       Occupied  (A) (A) (A) (A) (A) (A) (A) (A) (A) (A) (A) (A)
                 (A) (A) (A) (A) (A) (A) (A) (A) (A) (A) (A) (A)
                 (A) (A) (A) (A) (A) (A) (A) (A) (A) (A) (A) (A)
                 (A) (A) (A) (A) (A) (A) (A) (A) (A) (A) (A) (A)
                 (A) (A) (A) (A) (A) (A) (A) (A)
       Virtual   (A) (A) (A) (A) (A) (A) (A) (A) (A) (A) (A) (A)
                 (A) (A) (A) (A) (A) (A) (A) (A) (A) (A) (A) (A)
                 (A) (A) (A) (A) (A) (A) (A) (A) (A) (A) (A) (A)
                 (A) (A) (A) (A) (A) (A) (A) (A) (A) (A) (A) (A)
                 (A) (A) (A) (A) (A) (A) (A) (A) (A) (A) (A) (A)
                 (A) (A) (A) (A) (A) (A) (A)
 The electronic state is 1-A.
 Alpha  occ. eigenvalues -- -485.50274-485.50257-485.50248 -62.78540 -62.78442
 Alpha  occ. eigenvalues --  -62.78429 -57.31731 -57.31717 -57.31708 -57.31435
 Alpha  occ. eigenvalues --  -57.31427 -57.31419 -57.31411 -57.31407 -57.31400
 Alpha  occ. eigenvalues --  -10.72629  -8.95821  -8.95792  -8.95781  -6.91330
 Alpha  occ. eigenvalues --   -6.91318  -6.91309  -6.90165  -6.90164  -6.90152
 Alpha  occ. eigenvalues --   -6.90150  -6.90144  -6.90142  -2.94172  -2.94159
 Alpha  occ. eigenvalues --   -2.94149  -2.93769  -2.93768  -2.93757  -2.93755
 Alpha  occ. eigenvalues --   -2.93749  -2.93746  -2.92738  -2.92738  -2.92725
 Alpha  occ. eigenvalues --   -2.92725  -2.92717  -2.92716  -0.99041  -0.87484
 Alpha  occ. eigenvalues --   -0.87467  -0.72580  -0.56035  -0.50985  -0.50974
 Alpha  occ. eigenvalues --   -0.38980  -0.38964  -0.36775  -0.35981  -0.35967
 Alpha  occ. eigenvalues --   -0.34255
 Alpha virt. eigenvalues --   -0.04287   0.00740   0.00749   0.01041   0.03854
 Alpha virt. eigenvalues --    0.04021   0.04029   0.06917   0.06919   0.07513
 Alpha virt. eigenvalues --    0.08164   0.08172   0.09782   0.10895   0.11643
 Alpha virt. eigenvalues --    0.11646   0.14319   0.14329   0.15821   0.26720
 Alpha virt. eigenvalues --    0.37756   0.37790   0.43483   0.47491   0.47497
 Alpha virt. eigenvalues --    0.48272   0.48278   0.48302   0.51188   0.51466
 Alpha virt. eigenvalues --    0.51485   0.52320   0.52329   0.54911   0.55735
 Alpha virt. eigenvalues --    0.60950   0.61100   0.61109   0.62924   0.64715
 Alpha virt. eigenvalues --    0.64731   0.72372   0.72386   0.80708   0.81326
 Alpha virt. eigenvalues --    0.83252   0.83284   1.00296   1.00314   1.00849
 Alpha virt. eigenvalues --    1.10709   1.48978   1.74487   1.74494   1.76621
 Alpha virt. eigenvalues --    1.76629   1.85707   2.08757   2.08787   2.22105
 Alpha virt. eigenvalues --    4.11602   8.91762   8.91798   8.98714  78.36052
 Alpha virt. eigenvalues --   78.36721  79.15910
          Condensed to atoms (all electrons):
               1          2          3          4          5
     1  C    5.192445   0.283503   0.283686   0.283637   0.372676
     2  Br   0.283503  35.082457  -0.173650  -0.173380  -0.053945
     3  Br   0.283686  -0.173650  35.081769  -0.173259  -0.053997
     4  Br   0.283637  -0.173380  -0.173259  35.081312  -0.053965
     5  H    0.372676  -0.053945  -0.053997  -0.053965   0.479402
 Mulliken charges:
               1
     1  C   -0.415947
     2  Br   0.035014
     3  Br   0.035451
     4  Br   0.035654
     5  H    0.309828
 Sum of Mulliken charges =   0.00000
 Mulliken charges with hydrogens summed into heavy atoms:
               1
     1  C   -0.106119
     2  Br   0.035014
     3  Br   0.035451
     4  Br   0.035654
 Electronic spatial extent (au):  <R**2>=           1403.7342
 Charge=              0.0000 electrons
 Dipole moment (field-independent basis, Debye):
    X=              0.0032    Y=             -0.0027    Z=              0.9863  Tot=              0.9863
 Quadrupole moment (field-independent basis, Debye-Ang):
   XX=            -61.3102   YY=            -61.3253   ZZ=            -59.9248
   XY=              0.0025   XZ=              0.0058   YZ=              0.0006
 Traceless Quadrupole moment (field-independent basis, Debye-Ang):
   XX=             -0.4568   YY=             -0.4719   ZZ=              0.9287
   XY=              0.0025   XZ=              0.0058   YZ=              0.0006
 Octapole moment (field-independent basis, Debye-Ang**2):
  XXX=              7.2378  YYY=              0.4786  ZZZ=              0.2446  XYY=             -7.2365
  XXY=             -0.4883  XXZ=             -6.0534  XZZ=              0.0029  YZZ=             -0.0023
  YYZ=             -6.0489  XYZ=             -0.0018
 Hexadecapole moment (field-independent basis, Debye-Ang**3):
 XXXX=           -595.8521 YYYY=           -594.9830 ZZZZ=            -88.6265 XXXY=              0.0209
 XXXZ=             -6.5267 YYYX=              0.0050 YYYZ=             -0.4302 ZZZX=              0.0151
 ZZZY=              0.0033 XXYY=           -198.4434 XXZZ=           -121.8474 YYZZ=           -121.6690
 XXYZ=              0.4380 YYXZ=              6.5465 ZZXY=              0.0034
 N-N= 8.132985039125D+02 E-N=-2.010972717570D+04  KE= 7.701707014559D+03
 1\1\GINC-KATANA2\FOpt\RM062X\6-31+G(d)\C1H1Br3\Z5358697\13-Mar-2025\0\
 \#m062X/6-31+G(d) OPT Freq=noraman\\bromoform\\0,1\C,-0.1328082439,0.0
 179272034,-0.0561909477\Br,0.1991869685,-1.8675743337,0.1335659947\Br,
 -0.0811376076,0.8884776074,1.658000223\Br,1.1389955715,0.8130239897,-1
 .2608249623\H,-1.1241366884,0.1481455332,-0.4745503077\\Version=ES64L-
 G09RevD.01\State=1-A\HF=-7754.0509329\RMSD=9.396e-09\RMSF=2.235e-04\Di
 pole=-0.3545714,0.048144,-0.1500827\Quadrupole=0.5193318,-0.3345605,-0
 .1847713,-0.1142328,0.3659123,-0.0524652\PG=C01 [X(C1H1Br3)]\\@


 THE RED LIGHT IS ALWAYS LONGER THAN THE GREEN LIGHT.

                     -- PETER'S THEORY OF RELATIVITY
 Job cpu time:       0 days  0 hours  1 minutes 12.3 seconds.
 File lengths (MBytes):  RWF=    132 Int=      0 D2E=      0 Chk=      3 Scr=      2
 Normal termination of Gaussian 09 at Thu Mar 13 15:34:57 2025.
 Link1:  Proceeding to internal job step number  2.
 ---------------------------------------------------------------------
 #N Geom=AllCheck Guess=TCheck SCRF=Check GenChk RM062X/6-31+G(d) Freq
 ---------------------------------------------------------------------
 1/10=4,29=7,30=1,38=1,40=1/1,3;
 2/12=2,40=1/2;
 3/5=1,6=6,7=11,11=2,14=-4,16=1,25=1,30=1,70=2,71=2,74=-55,116=1,140=1/1,2,3;
 4/5=101/1;
 5/5=2,98=1/2;
 8/6=4,10=90,11=11/1;
 11/6=1,8=1,9=11,15=111,16=1/1,2,10;
 10/6=1/2;
 6/7=2,8=2,9=2,10=2,18=1,28=1/1;
 7/8=1,10=1,25=1/1,2,3,16;
 1/10=4,30=1/3;
 99//99;
 Structure from the checkpoint file:  "/srv/scratch/z5358697/gauss/Gau-1802768.chk"
 ---------
 bromoform
 ---------
 Charge =  0 Multiplicity = 1
 Redundant internal coordinates found in file.
 C,0,-0.1328082439,0.0179272034,-0.0561909477
 Br,0,0.1991869685,-1.8675743337,0.1335659947
 Br,0,-0.0811376076,0.8884776074,1.658000223
 Br,0,1.1389955715,0.8130239897,-1.2608249623
 H,0,-1.1241366884,0.1481455332,-0.4745503077
 Recover connectivity data from disk.

 GradGradGradGradGradGradGradGradGradGradGradGradGradGradGradGradGradGrad
 Berny optimization.
 Initialization pass.
                           ----------------------------
                           !    Initial Parameters    !
                           ! (Angstroms and Degrees)  !
 --------------------------                            --------------------------
 ! Name  Definition              Value          Derivative Info.                !
 --------------------------------------------------------------------------------
 ! R1    R(1,2)                  1.9239         calculate D2E/DX2 analytically  !
 ! R2    R(1,3)                  1.9233         calculate D2E/DX2 analytically  !
 ! R3    R(1,4)                  1.9237         calculate D2E/DX2 analytically  !
 ! R4    R(1,5)                  1.0838         calculate D2E/DX2 analytically  !
 ! A1    A(2,1,3)              110.5523         calculate D2E/DX2 analytically  !
 ! A2    A(2,1,4)              110.6549         calculate D2E/DX2 analytically  !
 ! A3    A(2,1,5)              108.2796         calculate D2E/DX2 analytically  !
 ! A4    A(3,1,4)              110.6879         calculate D2E/DX2 analytically  !
 ! A5    A(3,1,5)              108.314          calculate D2E/DX2 analytically  !
[...]
 Alpha  occ. eigenvalues --  -10.72629  -8.95821  -8.95792  -8.95781  -6.91330
 Alpha  occ. eigenvalues --   -6.91318  -6.91309  -6.90165  -6.90164  -6.90152
 Alpha  occ. eigenvalues --   -6.90150  -6.90144  -6.90142  -2.94172  -2.94159
 Alpha  occ. eigenvalues --   -2.94149  -2.93769  -2.93768  -2.93757  -2.93755
 Alpha  occ. eigenvalues --   -2.93749  -2.93746  -2.92738  -2.92738  -2.92725
 Alpha  occ. eigenvalues --   -2.92725  -2.92717  -2.92716  -0.99041  -0.87484
 Alpha  occ. eigenvalues --   -0.87467  -0.72580  -0.56035  -0.50985  -0.50974
 Alpha  occ. eigenvalues --   -0.38980  -0.38964  -0.36775  -0.35981  -0.35967
 Alpha  occ. eigenvalues --   -0.34255
 Alpha virt. eigenvalues --   -0.04287   0.00740   0.00749   0.01041   0.03854
 Alpha virt. eigenvalues --    0.04021   0.04029   0.06917   0.06919   0.07513
 Alpha virt. eigenvalues --    0.08164   0.08172   0.09782   0.10895   0.11643
 Alpha virt. eigenvalues --    0.11646   0.14319   0.14329   0.15821   0.26720
 Alpha virt. eigenvalues --    0.37756   0.37790   0.43483   0.47491   0.47497
 Alpha virt. eigenvalues --    0.48272   0.48278   0.48302   0.51188   0.51466
 Alpha virt. eigenvalues --    0.51485   0.52320   0.52329   0.54911   0.55735
 Alpha virt. eigenvalues --    0.60950   0.61100   0.61109   0.62924   0.64715
 Alpha virt. eigenvalues --    0.64731   0.72372   0.72386   0.80708   0.81326
 Alpha virt. eigenvalues --    0.83252   0.83284   1.00296   1.00314   1.00849
 Alpha virt. eigenvalues --    1.10709   1.48978   1.74487   1.74494   1.76621
 Alpha virt. eigenvalues --    1.76629   1.85707   2.08757   2.08787   2.22105
 Alpha virt. eigenvalues --    4.11602   8.91762   8.91798   8.98714  78.36052
 Alpha virt. eigenvalues --   78.36721  79.15910
          Condensed to atoms (all electrons):
               1          2          3          4          5
     1  C    5.192445   0.283503   0.283686   0.283637   0.372676
     2  Br   0.283503  35.082457  -0.173650  -0.173380  -0.053945
     3  Br   0.283686  -0.173650  35.081769  -0.173259  -0.053997
     4  Br   0.283637  -0.173380  -0.173259  35.081312  -0.053965
     5  H    0.372676  -0.053945  -0.053997  -0.053965   0.479402
 Mulliken charges:
               1
     1  C   -0.415947
     2  Br   0.035014
     3  Br   0.035451
     4  Br   0.035654
     5  H    0.309828
 Sum of Mulliken charges =   0.00000
 Mulliken charges with hydrogens summed into heavy atoms:
               1
     1  C   -0.106119
     2  Br   0.035014
     3  Br   0.035451
     4  Br   0.035654
 APT charges:
               1
     1  C    0.808292
     2  Br  -0.255537
     3  Br  -0.253524
     4  Br  -0.252807
     5  H   -0.046425
 Sum of APT charges =   0.00000
 APT charges with hydrogens summed into heavy atoms:
               1
     1  C    0.761867
     2  Br  -0.255537
     3  Br  -0.253524
     4  Br  -0.252807
 Electronic spatial extent (au):  <R**2>=           1403.7342
 Charge=              0.0000 electrons
 Dipole moment (field-independent basis, Debye):
    X=              0.0032    Y=             -0.0027    Z=              0.9863  Tot=              0.9863
 Quadrupole moment (field-independent basis, Debye-Ang):
   XX=            -61.3102   YY=            -61.3253   ZZ=            -59.9248
   XY=              0.0025   XZ=              0.0058   YZ=              0.0006
 Traceless Quadrupole moment (field-independent basis, Debye-Ang):
   XX=             -0.4568   YY=             -0.4719   ZZ=              0.9287
   XY=              0.0025   XZ=              0.0058   YZ=              0.0006
 Octapole moment (field-independent basis, Debye-Ang**2):
  XXX=              7.2378  YYY=              0.4786  ZZZ=              0.2446  XYY=             -7.2365
  XXY=             -0.4883  XXZ=             -6.0534  XZZ=              0.0029  YZZ=             -0.0023
  YYZ=             -6.0489  XYZ=             -0.0018
 Hexadecapole moment (field-independent basis, Debye-Ang**3):
 XXXX=           -595.8520 YYYY=           -594.9830 ZZZZ=            -88.6265 XXXY=              0.0209
 XXXZ=             -6.5267 YYYX=              0.0050 YYYZ=             -0.4302 ZZZX=              0.0151
 ZZZY=              0.0033 XXYY=           -198.4434 XXZZ=           -121.8474 YYZZ=           -121.6690
 XXYZ=              0.4380 YYXZ=              6.5465 ZZXY=              0.0034
 N-N= 8.132985039125D+02 E-N=-2.010972717700D+04  KE= 7.701707014920D+03
  Exact polarizability:  75.931  -0.001  75.795  -0.026   0.009  49.472
 Approx polarizability:  95.537  -0.003  95.450   0.008  -0.002  69.392
 Calling FoFJK, ICntrl=    100127 FMM=F ISym2X=0 I1Cent= 0 IOpClX= 0 NMat=1 NMatS=1 NMatT=0.
 Full mass-weighted force constant matrix:
 Low frequencies ---   -0.0098    0.0065    0.0072   17.3780   25.6868   30.7734
 Low frequencies ---  168.3036  170.6075  243.4169
 Diagonal vibrational polarizability:
        6.3275198       6.2838054       0.0841280
 Harmonic frequencies (cm**-1), IR intensities (KM/Mole), Raman scattering
 activities (A**4/AMU), depolarization ratios for plane and unpolarized
 incident light, reduced masses (AMU), force constants (mDyne/A),
 and normal coordinates:
                      1                      2                      3
                      A                      A                      A
 Frequencies --    168.2561               170.5726               243.4063
 Red. masses --     55.7766                56.3826                46.5657
 Frc consts  --      0.9303                 0.9665                 1.6255
 IR Inten    --      0.0042                 0.0034                 0.0042
  Atom  AN      X      Y      Z        X      Y      Z        X      Y      Z
     1   6    -0.31  -0.09   0.02    -0.09   0.31   0.01     0.00   0.01   0.47
     2  35     0.39   0.31   0.00    -0.30   0.35   0.01     0.20  -0.38  -0.03
     3  35     0.10  -0.46   0.01     0.48   0.07  -0.01     0.22   0.37  -0.03
     4  35    -0.44   0.17  -0.01    -0.16  -0.47   0.00    -0.42   0.01  -0.03
     5   1    -0.43  -0.13   0.02    -0.13   0.43   0.01     0.00   0.01   0.48
                      4                      5                      6
                      A                      A                      A
 Frequencies --    569.0664               694.6373               695.9772
 Red. masses --      7.1074                 7.7494                 7.7126
 Frc consts  --      1.3561                 2.2031                 2.2011
 IR Inten    --      0.7931               100.5236               100.1339
  Atom  AN      X      Y      Z        X      Y      Z        X      Y      Z
     1   6     0.00   0.01   0.69     0.71   0.21   0.00    -0.21   0.71  -0.01
     2  35    -0.02   0.04  -0.04    -0.02   0.01  -0.01     0.03  -0.06   0.03
     3  35    -0.02  -0.04  -0.04    -0.03  -0.04  -0.02    -0.02  -0.04  -0.02
     4  35     0.05   0.00  -0.04    -0.07   0.00   0.03     0.02  -0.01  -0.01
     5   1    -0.01   0.01   0.71     0.64   0.19   0.00    -0.19   0.64  -0.01
                      7                      8                      9
                      A                      A                      A
 Frequencies --   1213.9811              1215.0663              3242.6764
 Red. masses --      1.0797                 1.0793                 1.0885
 Frc consts  --      0.9375                 0.9389                 6.7435
 IR Inten    --     38.7950                39.6782                 7.5255
  Atom  AN      X      Y      Z        X      Y      Z        X      Y      Z
     1   6    -0.01  -0.08   0.00     0.08  -0.01   0.00     0.00   0.00  -0.09
     2  35     0.00   0.00   0.00     0.00   0.00   0.00     0.00   0.00   0.00
     3  35     0.00   0.00   0.00     0.00   0.00   0.00     0.00   0.00   0.00
     4  35     0.00   0.00   0.00     0.00   0.00  -0.01     0.00   0.00   0.00
     5   1     0.16   0.98   0.00    -0.98   0.16   0.00     0.00   0.00   1.00

 -------------------
 - Thermochemistry -
 -------------------
 Temperature   298.150 Kelvin.  Pressure   1.00000 Atm.
 Atom     1 has atomic number  6 and mass  12.00000
 Atom     2 has atomic number 35 and mass  78.91834
 Atom     3 has atomic number 35 and mass  78.91834
 Atom     4 has atomic number 35 and mass  78.91834
 Atom     5 has atomic number  1 and mass   1.00783
 Molecular mass:   249.76283 amu.
 Principal axes and moments of inertia in atomic units:
                           1         2         3
     Eigenvalues --  1433.583221436.453602820.61451
           X            1.00000   0.00000   0.00001
           Y            0.00000   1.00000   0.00000
           Z           -0.00001   0.00000   1.00000
 This molecule is an asymmetric top.
 Rotational symmetry number  1.
 Warning -- assumption of classical behavior for rotation
           may cause significant error
 Rotational temperatures (Kelvin)      0.06042     0.06030     0.03071
 Rotational constants (GHZ):           1.25890     1.25639     0.63984
 Zero-point vibrational energy      49128.5 (Joules/Mol)
                                   11.74199 (Kcal/Mol)
 Warning -- explicit consideration of   4 degrees of freedom as
           vibrations may cause significant error
 Vibrational temperatures:    242.08   245.42   350.21   818.76   999.43
          (Kelvin)           1001.35  1746.65  1748.21  4665.48
 
 Zero-point correction=                           0.018712 (Hartree/Particle)
 Thermal correction to Energy=                    0.023699
 Thermal correction to Enthalpy=                  0.024644
 Thermal correction to Gibbs Free Energy=        -0.013584
 Sum of electronic and zero-point Energies=          -7754.032221
 Sum of electronic and thermal Energies=             -7754.027233
 Sum of electronic and thermal Enthalpies=           -7754.026289
 Sum of electronic and thermal Free Energies=        -7754.064517
 
                     E (Thermal)             CV                S
                      KCal/Mol        Cal/Mol-Kelvin    Cal/Mol-Kelvin
 Total                   14.872             14.661             80.457
 Electronic               0.000              0.000              0.000
 Translational            0.889              2.981             42.447
 Rotational               0.889              2.981             30.142
 Vibrational             13.094              8.700              7.869
 Vibration     1          0.625              1.882              2.455
 Vibration     2          0.626              1.879              2.429
 Vibration     3          0.659              1.774              1.778
 Vibration     4          0.925              1.098              0.506
                       Q            Log10(Q)             Ln(Q)
 Total Bot       0.177141D+07          6.248319         14.387286
 Total V=0       0.716548D+15         14.855245         34.205466
 Vib (Bot)       0.132342D-07         -7.878304        -18.140465
 Vib (Bot)    1  0.119841D+01          0.078606          0.180997
 Vib (Bot)    2  0.118125D+01          0.072341          0.166571
 Vib (Bot)    3  0.804312D+00         -0.094575         -0.217768
 Vib (Bot)    4  0.270702D+00         -0.567509         -1.306737
 Vib (V=0)       0.535331D+01          0.728623          1.677715
 Vib (V=0)    1  0.179853D+01          0.254919          0.586972
 Vib (V=0)    2  0.178271D+01          0.251081          0.578135
 Vib (V=0)    3  0.144706D+01          0.160486          0.369532
 Vib (V=0)    4  0.106858D+01          0.028806          0.066328
 Electronic      0.100000D+01          0.000000          0.000000
 Translational   0.155148D+09          8.190747         18.859892
 Rotational      0.862731D+06          5.935876         13.667859
 ***** Axes restored to original set *****
 -------------------------------------------------------------------
 Center     Atomic                   Forces (Hartrees/Bohr)
 Number     Number              X              Y              Z
 -------------------------------------------------------------------
      1        6           0.000493768    0.000243403   -0.000211800
      2       35          -0.000105087   -0.000320083    0.000003061
      3       35          -0.000318066    0.000282917    0.000235406
      4       35          -0.000081001   -0.000188121   -0.000079336
      5        1           0.000010387   -0.000018116    0.000052669
 -------------------------------------------------------------------
 Cartesian Forces:  Max     0.000493768 RMS     0.000223532
 FormGI is forming the generalized inverse of G from B-inverse, IUseBI=4.

 GradGradGradGradGradGradGradGradGradGradGradGradGradGradGradGradGradGrad
 Berny optimization.
 Internal  Forces:  Max     0.000428783 RMS     0.000217748
 Search for a local minimum.
 Step number   1 out of a maximum of    2
 All quantities printed in internal units (Hartrees-Bohrs-Radians)
 Second derivative matrix not updated -- analytic derivatives used.
 The second derivative matrix:
                          R1        R2        R3        R4        A1
           R1           0.18810
           R2           0.02372   0.19045
           R3           0.02380   0.02384   0.19041
           R4           0.00204   0.00204   0.00178   0.36949
           A1           0.00750   0.00739  -0.00604  -0.00020   0.03604
           A2           0.01109  -0.00442   0.01331  -0.00029  -0.01479
           A3           0.01281  -0.01273  -0.01496   0.00044  -0.01759
           A4          -0.00460   0.01284   0.01158  -0.00020  -0.01539
           A5          -0.01285   0.01140  -0.01439   0.00032  -0.01696
           A6          -0.01459  -0.01524   0.00959  -0.00003   0.02837
           D1          -0.01407  -0.01526  -0.00957   0.00059  -0.02499
           D2           0.00898   0.00809  -0.02402   0.00020   0.02344
           D3          -0.01227   0.02129  -0.01288   0.00012   0.01155
           D4          -0.02125   0.01320   0.01114  -0.00008  -0.01189
                          A2        A3        A4        A5        A6
           A2           0.06508
           A3          -0.03252   0.08948
           A4          -0.00355   0.02509   0.06547
           A5           0.02490  -0.03720  -0.03300   0.08954
           A6          -0.04130  -0.02601  -0.04080  -0.02608   0.10826
           D1          -0.02385   0.02758  -0.02334   0.02722   0.02080
           D2          -0.02210   0.00884  -0.02295   0.00959   0.00422
           D3          -0.03577   0.00269   0.01324   0.00635   0.00244
           D4          -0.01367  -0.00615   0.03620  -0.00324  -0.00177
                          D1        D2        D3        D4
           D1           0.06457
           D2           0.00138   0.03863
           D3           0.00092   0.01901   0.03993
           D4          -0.00046  -0.01961   0.02092   0.04053
 ITU=  0
     Eigenvalues ---    0.06366   0.06770   0.11341   0.16798   0.17214
     Eigenvalues ---    0.18603   0.18714   0.24834   0.36958
 Angle between quadratic step and forces=  20.36 degrees.
 Linear search not attempted -- first point.
 Iteration  1 RMS(Cart)=  0.00181633 RMS(Int)=  0.00000261
 Iteration  2 RMS(Cart)=  0.00000218 RMS(Int)=  0.00000147
 Iteration  3 RMS(Cart)=  0.00000000 RMS(Int)=  0.00000147
 Variable       Old X    -DE/DX   Delta X   Delta X   Delta X     New X
                                 (Linear)    (Quad)   (Total)
    R1        3.63562   0.00030   0.00000   0.00155   0.00155   3.63717
    R2        3.63446   0.00034   0.00000   0.00131   0.00131   3.63577
    R3        3.63536  -0.00009   0.00000  -0.00163  -0.00163   3.63373
    R4        2.04816  -0.00003   0.00000  -0.00008  -0.00008   2.04808
    A1        1.92950   0.00015   0.00000   0.00106   0.00106   1.93056
    A2        1.93129   0.00004   0.00000   0.00039   0.00039   1.93168
    A3        1.88984  -0.00011   0.00000  -0.00161  -0.00161   1.88822
    A4        1.93187   0.00031   0.00000   0.00224   0.00224   1.93411
    A5        1.89044  -0.00033   0.00000  -0.00248  -0.00248   1.88795
    A6        1.88948  -0.00008   0.00000   0.00022   0.00022   1.88970
    D1       -2.14527  -0.00043   0.00000  -0.00318  -0.00318  -2.14845
    D2        2.09299  -0.00008   0.00000  -0.00106  -0.00106   2.09192
    D3       -2.09458   0.00006   0.00000   0.00033   0.00033  -2.09426
    D4        2.09562   0.00013   0.00000   0.00139   0.00139   2.09701
         Item               Value     Threshold  Converged?
 Maximum Force            0.000429     0.000450     YES
 RMS     Force            0.000218     0.000300     YES
 Maximum Displacement     0.003276     0.001800     NO 
 RMS     Displacement     0.001816     0.001200     NO 
 Predicted change in Energy=-2.264351D-06
 GradGradGradGradGradGradGradGradGradGradGradGradGradGradGradGradGradGrad

 1\1\GINC-KATANA2\Freq\RM062X\6-31+G(d)\C1H1Br3\Z5358697\13-Mar-2025\0\
 \#N Geom=AllCheck Guess=TCheck SCRF=Check GenChk RM062X/6-31+G(d) Freq
 \\bromoform\\0,1\C,-0.1328082439,0.0179272034,-0.0561909477\Br,0.19918
 69685,-1.8675743337,0.1335659947\Br,-0.0811376076,0.8884776074,1.65800
 0223\Br,1.1389955715,0.8130239897,-1.2608249623\H,-1.1241366884,0.1481
 455332,-0.4745503077\\Version=ES64L-G09RevD.01\State=1-A\HF=-7754.0509
 329\RMSD=2.069e-09\RMSF=2.235e-04\ZeroPoint=0.018712\Thermal=0.0236994
 \Dipole=-0.3545715,0.0481442,-0.1500828\DipoleDeriv=0.2006335,0.133776
 7,-0.4276727,0.1358438,1.1915353,0.057372,-0.4287345,0.0564062,1.03270
 77,-0.0375673,0.0399324,0.0356296,-0.0370448,-0.6239613,-0.0030451,0.0
 369987,0.0298128,-0.1050813,-0.0439581,0.0011498,0.0536624,0.0378127,-
 0.2382659,-0.207142,0.1251308,-0.2315949,-0.4783469,-0.1765405,-0.1519
 893,0.2637487,-0.1133228,-0.2173909,0.1613235,0.1926059,0.154361,-0.36
 44893,0.0574325,-0.0228695,0.074632,-0.0232889,-0.1119173,-0.0085084,0
 .0739991,-0.0089852,-0.0847902\Polar=53.8025862,2.9358961,75.4384508,-
 9.3378165,1.1792486,71.956059\PG=C01 [X(C1H1Br3)]\NImag=0\\0.46233442,
 -0.03110797,0.23840840,0.09703165,-0.01284978,0.27395808,-0.03522252,0
 .01652998,-0.00741880,0.02764324,0.03115148,-0.11335185,0.01496393,-0.
 02510387,0.18282175,-0.00775724,0.00901490,-0.02734379,0.00116162,-0.0
 1409551,0.03236839,-0.03140941,0.00119632,-0.00323133,0.00308620,0.003
 14168,0.00347019,0.02436266,-0.00588829,-0.04284419,-0.03912537,0.0019
 5427,-0.02656844,-0.02174430,0.00140788,0.06498668,-0.01695410,-0.0345
 1641,-0.10553030,0.00209764,-0.01473309,-0.00345276,-0.00170026,0.0640
 9012,0.15760275,-0.08300881,-0.02314945,0.03091945,0.00220860,-0.00876
 115,0.00331863,-0.00095639,0.00119568,0.01259267,0.09405143,-0.0306538
 6,-0.04254173,0.02159232,-0.01438854,-0.02464852,0.01740877,0.00327151
 ,0.00473341,-0.00244409,0.04433199,0.06207293,0.04467921,0.02291245,-0
 .05678936,0.00486465,0.01353481,-0.00424916,0.01737980,0.00221082,-0.0
 3055475,-0.06883657,-0.04099502,0.09229641,-0.31269368,0.03653111,-0.1
 1730096,0.00228448,-0.00042814,-0.00019319,0.00491694,0.00133045,0.003
 96405,-0.01229483,-0.00256109,0.00191290,0.31778709,0.03649864,-0.0396
 7063,0.01541891,0.02100816,-0.01825295,0.00941615,-0.00901740,-0.00030
 746,-0.01239654,-0.01361707,0.00038391,0.00233694,-0.03487233,0.057847
 12,-0.11699951,0.01543884,-0.08429463,-0.00070510,0.00032986,0.0026773
 2,-0.01591841,-0.00543127,-0.01806494,0.02200582,0.00443803,-0.0007031
 5,0.11161720,-0.01477545,0.10038540\\-0.00049377,-0.00024340,0.0002118
 0,0.00010509,0.00032008,-0.00000306,0.00031807,-0.00028292,-0.00023541
 ,0.00008100,0.00018812,0.00007934,-0.00001039,0.00001812,-0.00005267\\
 \@


 THEREFORE SHALL EVIL COME UPON THEE...
 THOU SHALT NOT KNOW FROM WHENCE IT RISETH...
 AND MISCHIEF SHALL FALL UPON THEE...
 THOU SHALT NOT BE ABLE TO PUT IT OFF...
 AND DESOLATION SHALL COME UPON THEE SUDDENLY...
 WHICH THOU SHALT NOT KNOW...

                                         ISAIAH 47.11
 Job cpu time:       0 days  0 hours  0 minutes 45.8 seconds.
 File lengths (MBytes):  RWF=    132 Int=      0 D2E=      0 Chk=      3 Scr=      2
 Normal termination of Gaussian 09 at Thu Mar 13 15:35:45 2025.
