 Entering Gaussian System, Link 0=g09
 Initial command:
 /apps/z_install_tree/linux-rocky8-ivybridge/gcc-12.2.0/gaussian-09-D.01-wczn3gur5lpur3omlkzwa2l5ecyxp5ef/g09/l1.exe "/srv/scratch/z5358697/gauss/Gau-2756694.inp" -scrdir="/srv/scratch/z5358697/gauss/"
 Entering Link 1 = /apps/z_install_tree/linux-rocky8-ivybridge/gcc-12.2.0/gaussian-09-D.01-wczn3gur5lpur3omlkzwa2l5ecyxp5ef/g09/l1.exe PID=   2756697.
  
 Copyright (c) 1988,1990,1992,1993,1995,1998,2003,2009,2013,
            Gaussian, Inc.  All Rights Reserved.
  
 This is part of the Gaussian(R) 09 program.  It is based on
 the Gaussian(R) 03 system (copyright 2003, Gaussian, Inc.),
 the Gaussian(R) 98 system (copyright 1998, Gaussian, Inc.),
 the Gaussian(R) 94 system (copyright 1995, Gaussian, Inc.),
 the Gaussian 92(TM) system (copyright 1992, Gaussian, Inc.),
 the Gaussian 90(TM) system (copyright 1990, Gaussian, Inc.),
 the Gaussian 88(TM) system (copyright 1988, Gaussian, Inc.),
 the Gaussian 86(TM) system (copyright 1986, Carnegie Mellon
 University), and the Gaussian 82(TM) system (copyright 1983,
 Carnegie Mellon University). Gaussian is a federally registered
 trademark of Gaussian, Inc.
  
 This software contains proprietary and confidential information,
 including trade secrets, belonging to Gaussian, Inc.
  
 This software is provided under written license and may be
 used, copied, transmitted, or stored only in accord with that
 written license.
  
 The following legend is applicable only to US Government
 contracts under FAR:
  
                    RESTRICTED RIGHTS LEGEND
  
 Use, reproduction and disclosure by the US Government is
 subject to restrictions as set forth in subparagraphs (a)
 and (c) of the Commercial Computer Software - Restricted
 Rights clause in FAR 52.227-19.
  
 Gaussian, Inc.
 340 Quinnipiac St., Bldg. 40, Wallingford CT 06492
  
  
 ---------------------------------------------------------------
 Warning -- This program may not be used in any manner that
 competes with the business of Gaussian, Inc. or will provide
 assistance to any competitor of Gaussian, Inc.  The licensee
 of this program is prohibited from giving any competitor of
 Gaussian, Inc. access to this program.  By using this program,
 the user acknowledges that Gaussian, Inc. is engaged in the
 business of creating and licensing software in the field of
 computational chemistry and represents and warrants to the
 licensee that it is not a competitor of Gaussian, Inc. and that
 it will not use this program in any manner prohibited above.
 ---------------------------------------------------------------
  

 Cite this work as:
 Gaussian 09, Revision D.01,
 M. J. Frisch, G. W. Trucks, H. B. Schlegel, G. E. Scuseria, 
 M. A. Robb, J. R. Cheeseman, G. Scalmani, V. Barone, B. Mennucci, 
 G. A. Petersson, H. Nakatsuji, M. Caricato, X. Li, H. P. Hratchian, 
 A. F. Izmaylov, J. Bloino, G. Zheng, J. L. Sonnenberg, M. Hada, 
 M. Ehara, K. Toyota, R. Fukuda, J. Hasegawa, M. Ishida, T. Nakajima, 
 Y. Honda, O. Kitao, H. Nakai, T. Vreven, J. A. Montgomery, Jr., 
 J. E. Peralta, F. Ogliaro, M. Bearpark, J. J. Heyd, E. Brothers, 
 K. N. Kudin, V. N. Staroverov, T. Keith, R. Kobayashi, J. Normand, 
 K. Raghavachari, A. Rendell, J. C. Burant, S. S. Iyengar, J. Tomasi, 
 M. Cossi, N. Rega, J. M. Millam, M. Klene, J. E. Knox, J. B. Cross, 
 V. Bakken, C. Adamo, J. Jaramillo, R. Gomperts, R. E. Stratmann, 
 O. Yazyev, A. J. Austin, R. Cammi, C. Pomelli, J. W. Ochterski, 
 R. L. Martin, K. Morokuma, V. G. Zakrzewski, G. A. Voth, 
 P. Salvador, J. J. Dannenberg, S. Dapprich, A. D. Daniels, 
 O. Farkas, J. B. Foresman, J. V. Ortiz, J. Cioslowski, 
 and D. J. Fox, Gaussian, Inc., Wallingford CT, 2013.
 
 ******************************************
 Gaussian 09:  ES64L-G09RevD.01 24-Apr-2013
                17-Mar-2025 
 ******************************************
 ---------------------------------
 #m062X/6-31+G(d) OPT Freq=noraman
 ---------------------------------
 1/14=-1,18=20,19=15,26=3,38=1/1,3;
 2/9=110,12=2,17=6,18=5,40=1/2;
 3/5=1,6=6,7=11,11=2,16=1,25=1,30=1,71=1,74=-55/1,2,3;
 4//1;
 5/5=2,38=5/2;
 6/7=2,8=2,9=2,10=2,28=1/1;
 7//1,2,3,16;
 1/14=-1,18=20,19=15,26=3/3(2);
 2/9=110/2;
 99//99;
 2/9=110/2;
 3/5=1,6=6,7=11,11=2,16=1,25=1,30=1,71=1,74=-55/1,2,3;
 4/5=5,16=3,69=1/1;
 5/5=2,38=5/2;
 7//1,2,3,16;
 1/14=-1,18=20,19=15,26=3/3(-5);
 2/9=110/2;
 6/7=2,8=2,9=2,10=2,19=2,28=1/1;
 99/9=1/99;
 ------------------------
 2-bromo-2-methyl-propane
 ------------------------
 Symbolic Z-matrix:
 Charge =  0 Multiplicity = 1
 C                     0.2695   -1.1203    0.8963 
 C                     0.0165    0.2357    0.2412 
 C                    -1.3794    0.2973   -0.3751 
 C                     1.0913    0.5552   -0.7955 
 Br                    0.1126    1.6122    1.651 
 H                     1.2701   -1.1722    1.3413 
 H                    -0.455    -1.3241    1.6935 
 H                     0.191    -1.9299    0.1621 
 H                    -1.5688    1.2681   -0.8476 
 H                    -1.5154   -0.4731   -1.1429 
 H                    -2.1508    0.1441    0.388 
 H                     0.9163    1.5276   -1.2704 
 H                     1.1202   -0.1982   -1.5914 
 H                     2.0838    0.5861   -0.3324 
 

 GradGradGradGradGradGradGradGradGradGradGradGradGradGradGradGradGradGrad
 Berny optimization.
 Initialization pass.
                           ----------------------------
                           !    Initial Parameters    !
                           ! (Angstroms and Degrees)  !
 --------------------------                            --------------------------
 ! Name  Definition              Value          Derivative Info.                !
 --------------------------------------------------------------------------------
 ! R1    R(1,2)                  1.5271         estimate D2E/DX2                !
 ! R2    R(1,6)                  1.0963         estimate D2E/DX2                !
 ! R3    R(1,7)                  1.0963         estimate D2E/DX2                !
 ! R4    R(1,8)                  1.0957         estimate D2E/DX2                !
 ! R5    R(2,3)                  1.5271         estimate D2E/DX2                !
 ! R6    R(2,4)                  1.5271         estimate D2E/DX2                !
 ! R7    R(2,5)                  1.9727         estimate D2E/DX2                !
 ! R8    R(3,9)                  1.0962         estimate D2E/DX2                !
 ! R9    R(3,10)                 1.0961         estimate D2E/DX2                !
 ! R10   R(3,11)                 1.0958         estimate D2E/DX2                !
 ! R11   R(4,12)                 1.0962         estimate D2E/DX2                !
 ! R12   R(4,13)                 1.0963         estimate D2E/DX2                !
 ! R13   R(4,14)                 1.0957         estimate D2E/DX2                !
 ! A1    A(2,1,6)              111.5542         estimate D2E/DX2                !
 ! A2    A(2,1,7)              111.563          estimate D2E/DX2                !
 ! A3    A(2,1,8)              110.9023         estimate D2E/DX2                !
 ! A4    A(6,1,7)              107.4087         estimate D2E/DX2                !
 ! A5    A(6,1,8)              107.6007         estimate D2E/DX2                !
 ! A6    A(7,1,8)              107.6097         estimate D2E/DX2                !
 ! A7    A(1,2,3)              111.1239         estimate D2E/DX2                !
 ! A8    A(1,2,4)              111.1253         estimate D2E/DX2                !
 ! A9    A(1,2,5)              107.7556         estimate D2E/DX2                !
 ! A10   A(3,2,4)              111.1571         estimate D2E/DX2                !
 ! A11   A(3,2,5)              107.7457         estimate D2E/DX2                !
 ! A12   A(4,2,5)              107.7512         estimate D2E/DX2                !
 ! A13   A(2,3,9)              111.5686         estimate D2E/DX2                !
 ! A14   A(2,3,10)             111.5762         estimate D2E/DX2                !
 ! A15   A(2,3,11)             110.9023         estimate D2E/DX2                !
 ! A16   A(9,3,10)             107.4023         estimate D2E/DX2                !
 ! A17   A(9,3,11)             107.5988         estimate D2E/DX2                !
 ! A18   A(10,3,11)            107.5884         estimate D2E/DX2                !
 ! A19   A(2,4,12)             111.5508         estimate D2E/DX2                !
 ! A20   A(2,4,13)             111.5689         estimate D2E/DX2                !
 ! A21   A(2,4,14)             110.8864         estimate D2E/DX2                !
 ! A22   A(12,4,13)            107.415          estimate D2E/DX2                !
 ! A23   A(12,4,14)            107.6196         estimate D2E/DX2                !
 ! A24   A(13,4,14)            107.5988         estimate D2E/DX2                !
 ! D1    D(6,1,2,3)           -179.9952         estimate D2E/DX2                !
 ! D2    D(6,1,2,4)             55.6664         estimate D2E/DX2                !
 ! D3    D(6,1,2,5)            -62.1681         estimate D2E/DX2                !
 ! D4    D(7,1,2,3)            -59.8637         estimate D2E/DX2                !
 ! D5    D(7,1,2,4)            175.7979         estimate D2E/DX2                !
 ! D6    D(7,1,2,5)             57.9634         estimate D2E/DX2                !
 ! D7    D(8,1,2,3)             60.0792         estimate D2E/DX2                !
 ! D8    D(8,1,2,4)            -64.2592         estimate D2E/DX2                !
 ! D9    D(8,1,2,5)            177.9063         estimate D2E/DX2                !
 ! D10   D(1,2,3,9)            179.9996         estimate D2E/DX2                !
 ! D11   D(1,2,3,10)           -59.8582         estimate D2E/DX2                !
 ! D12   D(1,2,3,11)            60.0667         estimate D2E/DX2                !
 ! D13   D(4,2,3,9)            -55.6801         estimate D2E/DX2                !
 ! D14   D(4,2,3,10)            64.4622         estimate D2E/DX2                !
 ! D15   D(4,2,3,11)          -175.613          estimate D2E/DX2                !
 ! D16   D(5,2,3,9)             62.1664         estimate D2E/DX2                !
 ! D17   D(5,2,3,10)          -177.6913         estimate D2E/DX2                !
 ! D18   D(5,2,3,11)           -57.7665         estimate D2E/DX2                !
 ! D19   D(1,2,4,12)           179.9952         estimate D2E/DX2                !
 ! D20   D(1,2,4,13)            59.8539         estimate D2E/DX2                !
 ! D21   D(1,2,4,14)           -60.0683         estimate D2E/DX2                !
 ! D22   D(3,2,4,12)            55.6756         estimate D2E/DX2                !
 ! D23   D(3,2,4,13)           -64.4656         estimate D2E/DX2                !
 ! D24   D(3,2,4,14)           175.6121         estimate D2E/DX2                !
 ! D25   D(5,2,4,12)           -62.1676         estimate D2E/DX2                !
 ! D26   D(5,2,4,13)           177.6912         estimate D2E/DX2                !
 ! D27   D(5,2,4,14)            57.7689         estimate D2E/DX2                !
 --------------------------------------------------------------------------------
 Trust Radius=3.00D-01 FncErr=1.00D-07 GrdErr=1.00D-06
 Number of steps in this run=     74 maximum allowed number of steps=    100.
 GradGradGradGradGradGradGradGradGradGradGradGradGradGradGradGradGradGrad

                          Input orientation:                          
 ---------------------------------------------------------------------
 Center     Atomic      Atomic             Coordinates (Angstroms)
 Number     Number       Type             X           Y           Z
 ---------------------------------------------------------------------
      1          6           0        0.269500   -1.120300    0.896300
      2          6           0        0.016500    0.235700    0.241200
      3          6           0       -1.379400    0.297300   -0.375100
      4          6           0        1.091300    0.555200   -0.795500
      5         35           0        0.112600    1.612200    1.651000
      6          1           0        1.270100   -1.172200    1.341300
      7          1           0       -0.455000   -1.324100    1.693500
      8          1           0        0.191000   -1.929900    0.162100
      9          1           0       -1.568800    1.268100   -0.847600
     10          1           0       -1.515400   -0.473100   -1.142900
     11          1           0       -2.150800    0.144100    0.388000
     12          1           0        0.916300    1.527600   -1.270400
     13          1           0        1.120200   -0.198200   -1.591400
     14          1           0        2.083800    0.586100   -0.332400
 ---------------------------------------------------------------------
                    Distance matrix (angstroms):
                    1          2          3          4          5
     1  C    0.000000
     2  C    1.527056   0.000000
     3  C    2.518912   1.527140   0.000000
     4  C    2.518897   1.527096   2.519446   0.000000
     5  Br   2.839145   1.972694   2.839033   2.839096   0.000000
     6  H    1.096321   2.182640   3.482142   2.753506   3.031271
     7  H    1.096341   2.182765   2.786137   3.481082   2.990959
     8  H    1.095748   2.174059   2.777618   2.811274   3.843103
     9  H    3.482095   2.182776   1.096167   2.754464   3.031256
    10  H    2.786229   2.182853   1.096143   2.823645   3.847692
    11  H    2.777576   2.174196   1.095833   3.475757   2.978836
    12  H    3.481998   2.182563   2.754168   1.096228   3.031117
    13  H    2.786146   2.182853   2.823633   1.096314   3.847852
    14  H    2.777263   2.173828   3.475483   1.095661   2.978655
                    6          7          8          9         10
     6  H    0.000000
     7  H    1.767226   0.000000
     8  H    1.768920   1.769038   0.000000
     9  H    4.336554   3.797004   3.787294   0.000000
    10  H    3.797236   3.145443   2.595591   1.766870   0.000000
    11  H    3.787345   2.595319   3.136325   1.768844   1.768707
    12  H    3.772939   4.335592   3.812141   2.534131   3.151543
    13  H    3.093845   3.813066   2.633811   3.151824   2.687584
    14  H    2.560273   3.768108   3.187080   3.751272   3.838366
                   11         12         13         14
    11  H    0.000000
    12  H    3.751195   0.000000
    13  H    3.838572   1.767202   0.000000
    14  H    4.318122   1.768989   1.768822   0.000000
 Stoichiometry    C4H9Br
 Framework group  C1[X(C4H9Br)]
 Deg. of freedom    36
 Full point group                 C1      NOp   1
 Largest Abelian subgroup         C1      NOp   1
 Largest concise Abelian subgroup C1      NOp   1
                         Standard orientation:                         
 ---------------------------------------------------------------------
 Center     Atomic      Atomic             Coordinates (Angstroms)
 Number     Number       Type             X           Y           Z
 ---------------------------------------------------------------------
      1          6           0       -1.280277   -0.131530    1.448045
      2          6           0       -0.814410   -0.000018   -0.000256
      3          6           0       -1.279799    1.320344   -0.610349
      4          6           0       -1.279889   -1.188775   -0.838235
      5         35           0        1.158285   -0.000013   -0.000011
      6          1           0       -0.949777   -1.077352    1.893139
      7          1           0       -0.888133    0.679649    2.072685
      8          1           0       -2.373730   -0.099747    1.511400
      9          1           0       -0.949171    1.422349   -1.650474
     10          1           0       -2.372706    1.404268   -0.604027
     11          1           0       -0.878995    2.172645   -0.050181
     12          1           0       -0.949158   -1.101391   -1.879724
     13          1           0       -2.372980   -1.272311   -0.847000
     14          1           0       -0.879067   -2.127786   -0.440653
 ---------------------------------------------------------------------
 Rotational constants (GHZ):      4.5189881      2.0461546      2.0459206
 Standard basis: 6-31+G(d) (6D, 7F)
 There are   128 symmetry adapted cartesian basis functions of A   symmetry.
 There are   128 symmetry adapted basis functions of A   symmetry.
   128 basis functions,   251 primitive gaussians,   128 cartesian basis functions
    34 alpha electrons       34 beta electrons
       nuclear repulsion energy       350.5795214481 Hartrees.
 NAtoms=   14 NActive=   14 NUniq=   14 SFac= 1.00D+00 NAtFMM=   60 NAOKFM=F Big=F
 Integral buffers will be    131072 words long.
 Raffenetti 2 integral format.
 Two-electron integral symmetry is turned on.
 One-electron integrals computed using PRISM.
 NBasis=   128 RedAO= T EigKep=  7.73D-05  NBF=   128
 NBsUse=   128 1.00D-06 EigRej= -1.00D+00 NBFU=   128
 ExpMin= 3.50D-02 ExpMax= 5.74D+05 ExpMxC= 5.74D+03 IAcc=3 IRadAn=         5 AccDes= 0.00D+00
 Harris functional with IExCor= 1009 and IRadAn=       5 diagonalized for initial guess.
 HarFok:  IExCor= 1009 AccDes= 0.00D+00 IRadAn=         5 IDoV= 1 UseB2=F ITyADJ=14
 ICtDFT=  3500011 ScaDFX=  1.000000  1.000000  1.000000  1.000000
 FoFCou: FMM=F IPFlag=           0 FMFlag=      100000 FMFlg1=           0
         NFxFlg=           0 DoJE=T BraDBF=F KetDBF=T FulRan=T
         wScrn=  0.000000 ICntrl=     500 IOpCl=  0 I1Cent=   200000004 NGrid=           0
         NMat0=    1 NMatS0=      1 NMatT0=    0 NMatD0=    1 NMtDS0=    0 NMtDT0=    0
 Petite list used in FoFCou.
 Requested convergence on RMS density matrix=1.00D-08 within 128 cycles.
 Requested convergence on MAX density matrix=1.00D-06.
 Requested convergence on             energy=1.00D-06.
 No special actions if energy rises.
 SCF Done:  E(RM062X) =  -2729.57501634     A.U. after   11 cycles
            NFock= 11  Conv=0.95D-08     -V/T= 2.0070

 **********************************************************************

            Population analysis using the SCF density.

 **********************************************************************

 Orbital symmetries:
       Occupied  (A) (A) (A) (A) (A) (A) (A) (A) (A) (A) (A) (A)
                 (A) (A) (A) (A) (A) (A) (A) (A) (A) (A) (A) (A)
                 (A) (A) (A) (A) (A) (A) (A) (A) (A) (A)
       Virtual   (A) (A) (A) (A) (A) (A) (A) (A) (A) (A) (A) (A)
                 (A) (A) (A) (A) (A) (A) (A) (A) (A) (A) (A) (A)
                 (A) (A) (A) (A) (A) (A) (A) (A) (A) (A) (A) (A)
                 (A) (A) (A) (A) (A) (A) (A) (A) (A) (A) (A) (A)
                 (A) (A) (A) (A) (A) (A) (A) (A) (A) (A) (A) (A)
                 (A) (A) (A) (A) (A) (A) (A) (A) (A) (A) (A) (A)
                 (A) (A) (A) (A) (A) (A) (A) (A) (A) (A) (A) (A)
                 (A) (A) (A) (A) (A) (A) (A) (A) (A) (A)
 The electronic state is 1-A.
 Alpha  occ. eigenvalues -- -485.46203 -62.74319 -57.27415 -57.27156 -57.27155
 Alpha  occ. eigenvalues --  -10.62402 -10.55277 -10.55256 -10.55255  -8.91402
 Alpha  occ. eigenvalues --   -6.86737  -6.85798  -6.85797  -2.89584  -2.89261
 Alpha  occ. eigenvalues --   -2.89261  -2.88427  -2.88427  -0.95003  -0.82086
 Alpha  occ. eigenvalues --   -0.79657  -0.79640  -0.63279  -0.53640  -0.52571
 Alpha  occ. eigenvalues --   -0.52539  -0.47211  -0.47137  -0.44149  -0.41571
 Alpha  occ. eigenvalues --   -0.41396  -0.39259  -0.33001  -0.32987
 Alpha virt. eigenvalues --    0.01644   0.02133   0.03642   0.03647   0.03780
 Alpha virt. eigenvalues --    0.06346   0.06354   0.06936   0.07989   0.07995
 Alpha virt. eigenvalues --    0.10495   0.11340   0.11345   0.11676   0.12446
 Alpha virt. eigenvalues --    0.12499   0.12859   0.17843   0.17854   0.18156
 Alpha virt. eigenvalues --    0.20241   0.22487   0.22819   0.26636   0.26821
 Alpha virt. eigenvalues --    0.28533   0.30707   0.30952   0.31085   0.31260
 Alpha virt. eigenvalues --    0.38028   0.38161   0.46304   0.51343   0.51384
 Alpha virt. eigenvalues --    0.56561   0.56673   0.60206   0.63159   0.65405
 Alpha virt. eigenvalues --    0.65430   0.67099   0.70235   0.70379   0.74151
 Alpha virt. eigenvalues --    0.78498   0.78620   0.80951   0.83677   0.83901
 Alpha virt. eigenvalues --    0.90472   0.92858   0.93673   0.97017   1.02145
 Alpha virt. eigenvalues --    1.02442   1.03426   1.08940   1.08999   1.09813
 Alpha virt. eigenvalues --    1.20565   1.20667   1.20928   1.25020   1.47850
 Alpha virt. eigenvalues --    1.48405   1.50206   1.50381   1.74750   1.76331
 Alpha virt. eigenvalues --    1.87106   1.90816   1.91013   1.98333   1.98981
 Alpha virt. eigenvalues --    2.00701   2.14268   2.15570   2.16324   2.30671
 Alpha virt. eigenvalues --    2.30722   2.31167   2.32530   2.48865   2.54326
 Alpha virt. eigenvalues --    2.54748   2.72685   2.72822   4.21982   4.36362
 Alpha virt. eigenvalues --    4.36427   4.58444   9.08252  80.74632
          Condensed to atoms (all electrons):
               1          2          3          4          5          6
     1  C    5.803583  -0.025639  -0.123139  -0.124038  -0.177271   0.393160
     2  C   -0.025639   6.469605  -0.020591  -0.019041   0.519453  -0.040595
     3  C   -0.123139  -0.020591   5.807534  -0.123417  -0.183204   0.023729
     4  C   -0.124038  -0.019041  -0.123417   5.813273  -0.188574  -0.017790
     5  Br  -0.177271   0.519453  -0.183204  -0.188574  35.060976  -0.013820
     6  H    0.393160  -0.040595   0.023729  -0.017790  -0.013820   0.468547
     7  H    0.394724  -0.039534  -0.020309   0.023811  -0.014150  -0.024123
     8  H    0.354452   0.019680  -0.025391  -0.027707   0.015487  -0.027352
     9  H    0.024176  -0.042767   0.395038  -0.018352  -0.013669  -0.000115
    10  H   -0.026126   0.023037   0.351796  -0.026320   0.015309   0.000043
    11  H   -0.019298  -0.042603   0.396244   0.024136  -0.014807  -0.000029
    12  H    0.024044  -0.044421  -0.017232   0.395983  -0.013973   0.000000
    13  H   -0.024837   0.025427  -0.026968   0.349132   0.015199   0.000035
    14  H   -0.020399  -0.043491   0.024179   0.397511  -0.014398   0.001518
               7          8          9         10         11         12
     1  C    0.394724   0.354452   0.024176  -0.026126  -0.019298   0.024044
     2  C   -0.039534   0.019680  -0.042767   0.023037  -0.042603  -0.044421
     3  C   -0.020309  -0.025391   0.395038   0.351796   0.396244  -0.017232
     4  C    0.023811  -0.027707  -0.018352  -0.026320   0.024136   0.395983
     5  Br  -0.014150   0.015487  -0.013669   0.015309  -0.014807  -0.013973
     6  H   -0.024123  -0.027352  -0.000115   0.000043  -0.000029   0.000000
     7  H    0.466868  -0.027118  -0.000023   0.000105   0.001379  -0.000115
     8  H   -0.027118   0.490251   0.000043   0.001024   0.000109   0.000021
     9  H   -0.000023   0.000043   0.468969  -0.027578  -0.023801   0.001635
    10  H    0.000105   0.001024  -0.027578   0.489063  -0.027192   0.000102
    11  H    0.001379   0.000109  -0.023801  -0.027192   0.467782   0.000001
    12  H   -0.000115   0.000021   0.001635   0.000102   0.000001   0.469104
    13  H    0.000035   0.000925   0.000100   0.000811   0.000012  -0.027621
    14  H   -0.000025   0.000148   0.000005   0.000013  -0.000121  -0.023741
              13         14
     1  C   -0.024837  -0.020399
     2  C    0.025427  -0.043491
     3  C   -0.026968   0.024179
     4  C    0.349132   0.397511
     5  Br   0.015199  -0.014398
     6  H    0.000035   0.001518
     7  H    0.000035  -0.000025
     8  H    0.000925   0.000148
     9  H    0.000100   0.000005
    10  H    0.000811   0.000013
    11  H    0.000012  -0.000121
    12  H   -0.027621  -0.023741
    13  H    0.488740  -0.027176
    14  H   -0.027176   0.468161
 Mulliken charges:
               1
     1  C   -0.453392
     2  C   -0.738519
     3  C   -0.458270
     4  C   -0.458607
     5  Br   0.007439
     6  H    0.236792
     7  H    0.238475
     8  H    0.225428
     9  H    0.236339
    10  H    0.225913
    11  H    0.238188
    12  H    0.236213
    13  H    0.226185
    14  H    0.237816
 Sum of Mulliken charges =   0.00000
 Mulliken charges with hydrogens summed into heavy atoms:
               1
     1  C    0.247302
     2  C   -0.738519
     3  C    0.242170
     4  C    0.241607
     5  Br   0.007439
 Electronic spatial extent (au):  <R**2>=            729.5883
 Charge=              0.0000 electrons
 Dipole moment (field-independent basis, Debye):
    X=             -2.3910    Y=              0.0014    Z=              0.0052  Tot=              2.3910
 Quadrupole moment (field-independent basis, Debye-Ang):
   XX=            -45.2589   YY=            -45.7453   ZZ=            -45.7059
   XY=             -0.0013   XZ=              0.0272   YZ=              0.0012
 Traceless Quadrupole moment (field-independent basis, Debye-Ang):
   XX=              0.3111   YY=             -0.1753   ZZ=             -0.1358
   XY=             -0.0013   XZ=              0.0272   YZ=              0.0012
 Octapole moment (field-independent basis, Debye-Ang**2):
  XXX=             34.9300  YYY=             -0.2176  ZZZ=             -0.6144  XYY=             10.5263
  XXY=              0.0539  XXZ=              0.0322  XZZ=             10.4258  YZZ=              0.1785
  YYZ=              0.5380  XYZ=              0.0302
 Hexadecapole moment (field-independent basis, Debye-Ang**3):
 XXXX=           -453.2088 YYYY=           -233.4380 ZZZZ=           -232.4171 XXXY=             -0.2271
 XXXZ=             -0.2335 YYYX=             -0.0290 YYYZ=             -0.1387 ZZZX=              0.0456
 ZZZY=             -0.0174 XXYY=           -122.3178 XXZZ=           -122.5589 YYZZ=            -77.7976
 XXYZ=              0.0842 YYXZ=              0.4307 ZZXY=              0.1480
 N-N= 3.505795214481D+02 E-N=-7.197095012027D+03  KE= 2.710537798104D+03
 Calling FoFJK, ICntrl=      2127 FMM=F ISym2X=0 I1Cent= 0 IOpClX= 0 NMat=1 NMatS=1 NMatT=0.
 ***** Axes restored to original set *****
 -------------------------------------------------------------------
 Center     Atomic                   Forces (Hartrees/Bohr)
 Number     Number              X              Y              Z
 -------------------------------------------------------------------
      1        6           0.001228282   -0.000003848    0.007100386
      2        6          -0.000889631   -0.010341210   -0.011504481
      3        6          -0.004954335    0.004878967    0.003423541
      4        6           0.004507350    0.005819216    0.001587704
      5       35           0.000054525   -0.000432169   -0.001072089
      6        1          -0.000832535    0.002174535   -0.000904432
      7        1          -0.000178280    0.001820267   -0.001519022
      8        1          -0.000638982    0.001805559   -0.003169836
      9        1           0.001879939   -0.000157688    0.001671906
     10        1           0.004268893   -0.001819116    0.000299860
     11        1           0.001234260   -0.000219710   -0.000041437
     12        1          -0.001134321   -0.000552957    0.002123873
     13        1          -0.003427476   -0.002573019    0.001658290
     14        1          -0.001117690   -0.000398826    0.000345737
 -------------------------------------------------------------------
 Cartesian Forces:  Max     0.011504481 RMS     0.003429657

 GradGradGradGradGradGradGradGradGradGradGradGradGradGradGradGradGradGrad
 Berny optimization.
 FormGI is forming the generalized inverse of G from B-inverse, IUseBI=4.
 Internal  Forces:  Max     0.006053553 RMS     0.001996728
 Search for a local minimum.
 Step number   1 out of a maximum of   74
 All quantities printed in internal units (Hartrees-Bohrs-Radians)
 Mixed Optimization -- RFO/linear search
 Second derivative matrix not updated -- first step.
 ITU=  0
     Eigenvalues ---    0.00407   0.00408   0.00408   0.04291   0.05453
     Eigenvalues ---    0.05456   0.05457   0.05520   0.05522   0.05523
     Eigenvalues ---    0.06901   0.06905   0.15115   0.16000   0.16000
     Eigenvalues ---    0.16000   0.16000   0.16000   0.16000   0.16000
     Eigenvalues ---    0.16000   0.16000   0.18218   0.18225   0.29689
     Eigenvalues ---    0.29693   0.29697   0.34090   0.34092   0.34093
     Eigenvalues ---    0.34103   0.34110   0.34112   0.34147   0.34157
     Eigenvalues ---    0.34167
 RFO step:  Lambda=-1.81016024D-03 EMin= 4.06935187D-03
 Linear search not attempted -- first point.
 Iteration  1 RMS(Cart)=  0.02721161 RMS(Int)=  0.00052033
 Iteration  2 RMS(Cart)=  0.00059226 RMS(Int)=  0.00012826
 Iteration  3 RMS(Cart)=  0.00000025 RMS(Int)=  0.00012826
 Variable       Old X    -DE/DX   Delta X   Delta X   Delta X     New X
                                 (Linear)    (Quad)   (Total)
    R1        2.88572  -0.00457   0.00000  -0.01531  -0.01531   2.87041
    R2        2.07175  -0.00123   0.00000  -0.00359  -0.00359   2.06816
    R3        2.07178  -0.00132   0.00000  -0.00386  -0.00386   2.06793
    R4        2.07066   0.00083   0.00000   0.00242   0.00242   2.07309
    R5        2.88588  -0.00428   0.00000  -0.01432  -0.01432   2.87156
    R6        2.88579  -0.00422   0.00000  -0.01412  -0.01412   2.87168
    R7        3.72785  -0.00107   0.00000  -0.00696  -0.00696   3.72089
    R8        2.07145  -0.00118   0.00000  -0.00345  -0.00345   2.06800
    R9        2.07141   0.00053   0.00000   0.00156   0.00156   2.07297
   R10        2.07082  -0.00087   0.00000  -0.00252  -0.00252   2.06830
   R11        2.07157  -0.00123   0.00000  -0.00360  -0.00360   2.06797
   R12        2.07173   0.00048   0.00000   0.00141   0.00141   2.07314
   R13        2.07050  -0.00088   0.00000  -0.00256  -0.00256   2.06794
    A1        1.94699  -0.00174   0.00000  -0.00977  -0.00986   1.93713
    A2        1.94714  -0.00142   0.00000  -0.00792  -0.00801   1.93913
    A3        1.93561  -0.00431   0.00000  -0.02850  -0.02869   1.90692
    A4        1.87464   0.00208   0.00000   0.01628   0.01628   1.89092
    A5        1.87799   0.00304   0.00000   0.01719   0.01700   1.89498
    A6        1.87814   0.00285   0.00000   0.01576   0.01558   1.89373
    A7        1.93948   0.00036   0.00000   0.01195   0.01160   1.95108
    A8        1.93950   0.00043   0.00000   0.01215   0.01180   1.95130
    A9        1.88069  -0.00041   0.00000  -0.01284  -0.01274   1.86795
   A10        1.94006   0.00097   0.00000   0.01520   0.01489   1.95495
   A11        1.88052  -0.00069   0.00000  -0.01420  -0.01407   1.86644
   A12        1.88061  -0.00078   0.00000  -0.01503  -0.01490   1.86571
   A13        1.94724  -0.00167   0.00000  -0.00937  -0.00954   1.93770
   A14        1.94737  -0.00605   0.00000  -0.04024  -0.04045   1.90692
   A15        1.93561   0.00037   0.00000   0.00413   0.00411   1.93972
   A16        1.87452   0.00377   0.00000   0.01988   0.01953   1.89406
   A17        1.87795   0.00128   0.00000   0.01326   0.01328   1.89123
   A18        1.87777   0.00279   0.00000   0.01539   0.01533   1.89310
   A19        1.94693  -0.00158   0.00000  -0.00881  -0.00897   1.93796
   A20        1.94724  -0.00604   0.00000  -0.04020  -0.04041   1.90683
   A21        1.93533   0.00039   0.00000   0.00435   0.00433   1.93966
   A22        1.87475   0.00370   0.00000   0.01932   0.01898   1.89372
   A23        1.87832   0.00124   0.00000   0.01312   0.01314   1.89145
   A24        1.87795   0.00276   0.00000   0.01521   0.01515   1.89310
    D1       -3.14151   0.00083   0.00000   0.04184   0.04193  -3.09958
    D2        0.97156  -0.00101   0.00000   0.00448   0.00449   0.97605
    D3       -1.08504  -0.00005   0.00000   0.02361   0.02366  -1.06138
    D4       -1.04482   0.00132   0.00000   0.05047   0.05046  -0.99436
    D5        3.06825  -0.00052   0.00000   0.01310   0.01302   3.08127
    D6        1.01165   0.00043   0.00000   0.03223   0.03219   1.04384
    D7        1.04858   0.00106   0.00000   0.04586   0.04589   1.09447
    D8       -1.12153  -0.00078   0.00000   0.00849   0.00845  -1.11309
    D9        3.10505   0.00017   0.00000   0.02762   0.02762   3.13267
   D10        3.14159  -0.00055   0.00000  -0.04735  -0.04751   3.09408
   D11       -1.04472  -0.00104   0.00000  -0.05605  -0.05604  -1.10076
   D12        1.04836  -0.00131   0.00000  -0.06066  -0.06069   0.98767
   D13       -0.97180   0.00098   0.00000  -0.01170  -0.01174  -0.98354
   D14        1.12508   0.00049   0.00000  -0.02041  -0.02027   1.10481
   D15       -3.06502   0.00022   0.00000  -0.02501  -0.02493  -3.08995
   D16        1.08501   0.00016   0.00000  -0.02994  -0.03004   1.05497
   D17       -3.10130  -0.00033   0.00000  -0.03864  -0.03857  -3.13987
   D18       -1.00821  -0.00059   0.00000  -0.04325  -0.04323  -1.05144
   D19        3.14151   0.00050   0.00000   0.04211   0.04227  -3.09941
   D20        1.04465   0.00101   0.00000   0.05110   0.05109   1.09574
   D21       -1.04839   0.00127   0.00000   0.05576   0.05580  -0.99259
   D22        0.97172  -0.00099   0.00000   0.00657   0.00660   0.97833
   D23       -1.12514  -0.00048   0.00000   0.01556   0.01543  -1.10971
   D24        3.06501  -0.00021   0.00000   0.02023   0.02014   3.08515
   D25       -1.08503  -0.00023   0.00000   0.02431   0.02441  -1.06062
   D26        3.10130   0.00028   0.00000   0.03330   0.03323   3.13452
   D27        1.00826   0.00055   0.00000   0.03796   0.03794   1.04620
         Item               Value     Threshold  Converged?
 Maximum Force            0.006054     0.000450     NO 
 RMS     Force            0.001997     0.000300     NO 
 Maximum Displacement     0.087581     0.001800     NO 
 RMS     Displacement     0.027337     0.001200     NO 
 Predicted change in Energy=-9.477470D-04
 GradGradGradGradGradGradGradGradGradGradGradGradGradGradGradGradGradGrad

                          Input orientation:                          
 ---------------------------------------------------------------------
 Center     Atomic      Atomic             Coordinates (Angstroms)
 Number     Number       Type             X           Y           Z
 ---------------------------------------------------------------------
      1          6           0        0.269868   -1.113517    0.901760
      2          6           0        0.015969    0.222698    0.225525
      3          6           0       -1.379629    0.296778   -0.371040
      4          6           0        1.090764    0.550776   -0.797431
      5         35           0        0.116101    1.604957    1.624215
      6          1           0        1.261975   -1.137099    1.363199
      7          1           0       -0.475788   -1.310179    1.678168
      8          1           0        0.213203   -1.914099    0.153873
      9          1           0       -1.566164    1.280620   -0.812449
     10          1           0       -1.477881   -0.462096   -1.157039
     11          1           0       -2.144329    0.109443    0.389268
     12          1           0        0.919201    1.534146   -1.245869
     13          1           0        1.073854   -0.203006   -1.594340
     14          1           0        2.084755    0.549078   -0.339739
 ---------------------------------------------------------------------
                    Distance matrix (angstroms):
                    1          2          3          4          5
     1  C    0.000000
     2  C    1.518956   0.000000
     3  C    2.515908   1.519563   0.000000
     4  C    2.516146   1.519625   2.519756   0.000000
     5  Br   2.817035   1.969010   2.815952   2.815250   0.000000
     6  H    1.094421   2.166998   3.470110   2.747100   2.983292
     7  H    1.094299   2.168342   2.756537   3.470711   2.975107
     8  H    1.097031   2.147076   2.775000   2.784008   3.815113
     9  H    3.470074   2.167887   1.094341   2.755389   2.978681
    10  H    2.778062   2.147560   1.096967   2.784451   3.814296
    11  H    2.754383   2.169452   1.094499   3.474026   2.978456
    12  H    3.470455   2.168115   2.753366   1.094325   2.981168
    13  H    2.775957   2.147616   2.786723   1.097058   3.813806
    14  H    2.756693   2.169314   3.473701   1.094305   2.974491
                    6          7          8          9         10
     6  H    0.000000
     7  H    1.774538   0.000000
     8  H    1.779359   1.778456   0.000000
     9  H    4.310125   3.755573   3.782348   0.000000
    10  H    3.783390   3.124394   2.585840   1.778650   0.000000
    11  H    3.755704   2.541775   3.115781   1.774838   1.778166
    12  H    3.749704   4.311168   3.787889   2.535580   3.120717
    13  H    3.107242   3.786362   2.593223   3.127651   2.601867
    14  H    2.533803   3.753022   3.132667   3.753374   3.792470
                   11         12         13         14
    11  H    0.000000
    12  H    3.753487   0.000000
    13  H    3.793287   1.778496   0.000000
    14  H    4.313917   1.774809   1.778082   0.000000
 Stoichiometry    C4H9Br
 Framework group  C1[X(C4H9Br)]
 Deg. of freedom    36
 Full point group                 C1      NOp   1
 Largest Abelian subgroup         C1      NOp   1
 Largest concise Abelian subgroup C1      NOp   1
                         Standard orientation:                         
 ---------------------------------------------------------------------
 Center     Atomic      Atomic             Coordinates (Angstroms)
 Number     Number       Type             X           Y           Z
 ---------------------------------------------------------------------
      1          6           0       -1.267632    0.043698    1.450525
      2          6           0       -0.821712   -0.000064   -0.000842
      3          6           0       -1.264029    1.237066   -0.764345
      4          6           0       -1.262658   -1.281542   -0.688331
      5         35           0        1.147297    0.000233    0.000728
      6          1           0       -0.906255   -0.832192    1.998232
      7          1           0       -0.892622    0.941666    1.951035
      8          1           0       -2.363826    0.054059    1.492105
      9          1           0       -0.895580    1.215190   -1.794563
     10          1           0       -2.360083    1.275621   -0.787005
     11          1           0       -0.894860    2.149390   -0.285484
     12          1           0       -0.898769   -1.319283   -1.719693
     13          1           0       -2.358745   -1.324923   -0.704071
     14          1           0       -0.888469   -2.162641   -0.158095
 ---------------------------------------------------------------------
 Rotational constants (GHZ):      4.5440804      2.0794928      2.0777434
 Standard basis: 6-31+G(d) (6D, 7F)
 There are   128 symmetry adapted cartesian basis functions of A   symmetry.
 There are   128 symmetry adapted basis functions of A   symmetry.
   128 basis functions,   251 primitive gaussians,   128 cartesian basis functions
    34 alpha electrons       34 beta electrons
       nuclear repulsion energy       352.5728424412 Hartrees.
 NAtoms=   14 NActive=   14 NUniq=   14 SFac= 1.00D+00 NAtFMM=   60 NAOKFM=F Big=F
 Integral buffers will be    131072 words long.
 Raffenetti 2 integral format.
 Two-electron integral symmetry is turned on.
 One-electron integrals computed using PRISM.
 NBasis=   128 RedAO= T EigKep=  7.57D-05  NBF=   128
 NBsUse=   128 1.00D-06 EigRej= -1.00D+00 NBFU=   128
 Initial guess from the checkpoint file:  "/srv/scratch/z5358697/gauss/Gau-2756697.chk"
 B after Tr=     0.000000    0.000000    0.000000
         Rot=    0.998167    0.060504    0.001023   -0.000446 Ang=   6.94 deg.
 ExpMin= 3.50D-02 ExpMax= 5.74D+05 ExpMxC= 5.74D+03 IAcc=3 IRadAn=         5 AccDes= 0.00D+00
 Harris functional with IExCor= 1009 and IRadAn=       5 diagonalized for initial guess.
 HarFok:  IExCor= 1009 AccDes= 0.00D+00 IRadAn=         5 IDoV= 1 UseB2=F ITyADJ=14
 ICtDFT=  3500011 ScaDFX=  1.000000  1.000000  1.000000  1.000000
 FoFCou: FMM=F IPFlag=           0 FMFlag=      100000 FMFlg1=           0
         NFxFlg=           0 DoJE=T BraDBF=F KetDBF=T FulRan=T
         wScrn=  0.000000 ICntrl=     500 IOpCl=  0 I1Cent=   200000004 NGrid=           0
         NMat0=    1 NMatS0=      1 NMatT0=    0 NMatD0=    1 NMtDS0=    0 NMtDT0=    0
 Petite list used in FoFCou.
 Requested convergence on RMS density matrix=1.00D-08 within 128 cycles.
 Requested convergence on MAX density matrix=1.00D-06.
 Requested convergence on             energy=1.00D-06.
 No special actions if energy rises.
 SCF Done:  E(RM062X) =  -2729.57590411     A.U. after   11 cycles
            NFock= 11  Conv=0.82D-08     -V/T= 2.0070
 Calling FoFJK, ICntrl=      2127 FMM=F ISym2X=0 I1Cent= 0 IOpClX= 0 NMat=1 NMatS=1 NMatT=0.
 ***** Axes restored to original set *****
 -------------------------------------------------------------------
 Center     Atomic                   Forces (Hartrees/Bohr)
 Number     Number              X              Y              Z
 -------------------------------------------------------------------
      1        6           0.000605097   -0.001345516    0.001810948
      2        6          -0.000145895   -0.001958982   -0.001952762
      3        6          -0.001728243    0.000775927   -0.000511527
      4        6           0.001036123    0.000929233   -0.001187697
      5       35           0.000260751    0.003172036    0.003366170
      6        1          -0.000366210    0.000013809   -0.000365839
      7        1           0.000042681    0.000217111   -0.000531611
      8        1           0.000075698   -0.000180351   -0.000312034
      9        1           0.000243822   -0.000408175    0.000130817
     10        1           0.000118887   -0.000253385   -0.000345058
     11        1           0.000748501   -0.000036161   -0.000196628
     12        1          -0.000101007   -0.000405344    0.000265248
     13        1          -0.000172066   -0.000265488   -0.000260431
     14        1          -0.000618141   -0.000254714    0.000090403
 -------------------------------------------------------------------
 Cartesian Forces:  Max     0.003366170 RMS     0.001028538

 GradGradGradGradGradGradGradGradGradGradGradGradGradGradGradGradGradGrad
 Berny optimization.
 Using GEDIIS/GDIIS optimizer.
 FormGI is forming the generalized inverse of G from B-inverse, IUseBI=4.
 Internal  Forces:  Max     0.004631214 RMS     0.000676784
 Search for a local minimum.
 Step number   2 out of a maximum of   74
 All quantities printed in internal units (Hartrees-Bohrs-Radians)
 Mixed Optimization -- En-DIIS/RFO-DIIS
 Update second derivatives using D2CorX and points    1    2
 DE= -8.88D-04 DEPred=-9.48D-04 R= 9.37D-01
 TightC=F SS=  1.41D+00  RLast= 2.09D-01 DXNew= 5.0454D-01 6.2592D-01
 Trust test= 9.37D-01 RLast= 2.09D-01 DXMaxT set to 5.05D-01
 ITU=  1  0
 Use linear search instead of GDIIS.
     Eigenvalues ---    0.00406   0.00408   0.00414   0.04187   0.05481
     Eigenvalues ---    0.05545   0.05554   0.05745   0.05746   0.05746
     Eigenvalues ---    0.07014   0.07034   0.12528   0.15958   0.16000
     Eigenvalues ---    0.16000   0.16000   0.16000   0.16000   0.16000
     Eigenvalues ---    0.16000   0.18097   0.18546   0.19261   0.29679
     Eigenvalues ---    0.29691   0.31736   0.33911   0.34091   0.34097
     Eigenvalues ---    0.34098   0.34107   0.34119   0.34152   0.34160
     Eigenvalues ---    0.34189
 RFO step:  Lambda=-1.77390972D-04 EMin= 4.06357150D-03
 Quartic linear search produced a step of -0.01864.
 Iteration  1 RMS(Cart)=  0.00913639 RMS(Int)=  0.00004729
 Iteration  2 RMS(Cart)=  0.00004912 RMS(Int)=  0.00000260
 Iteration  3 RMS(Cart)=  0.00000000 RMS(Int)=  0.00000260
 Variable       Old X    -DE/DX   Delta X   Delta X   Delta X     New X
                                 (Linear)    (Quad)   (Total)
    R1        2.87041   0.00146   0.00029   0.00311   0.00340   2.87381
    R2        2.06816  -0.00048   0.00007  -0.00177  -0.00171   2.06645
    R3        2.06793  -0.00044   0.00007  -0.00170  -0.00163   2.06630
    R4        2.07309   0.00033  -0.00005   0.00121   0.00117   2.07425
    R5        2.87156   0.00094   0.00027   0.00152   0.00179   2.87335
    R6        2.87168   0.00084   0.00026   0.00121   0.00147   2.87315
    R7        3.72089   0.00463   0.00013   0.02922   0.02935   3.75024
    R8        2.06800  -0.00047   0.00006  -0.00173  -0.00166   2.06634
    R9        2.07297   0.00042  -0.00003   0.00138   0.00135   2.07432
   R10        2.06830  -0.00065   0.00005  -0.00216  -0.00211   2.06619
   R11        2.06797  -0.00046   0.00007  -0.00171  -0.00164   2.06633
   R12        2.07314   0.00038  -0.00003   0.00124   0.00121   2.07435
   R13        2.06794  -0.00053   0.00005  -0.00179  -0.00174   2.06619
    A1        1.93713  -0.00001   0.00018  -0.00087  -0.00069   1.93644
    A2        1.93913  -0.00035   0.00015  -0.00285  -0.00270   1.93643
    A3        1.90692  -0.00007   0.00053  -0.00412  -0.00359   1.90334
    A4        1.89092   0.00029  -0.00030   0.00448   0.00417   1.89509
    A5        1.89498   0.00000  -0.00032   0.00145   0.00114   1.89612
    A6        1.89373   0.00016  -0.00029   0.00213   0.00184   1.89557
    A7        1.95108   0.00023  -0.00022   0.00135   0.00114   1.95222
    A8        1.95130   0.00018  -0.00022   0.00118   0.00096   1.95226
    A9        1.86795  -0.00021   0.00024  -0.00116  -0.00093   1.86702
   A10        1.95495  -0.00060  -0.00028  -0.00272  -0.00299   1.95196
   A11        1.86644   0.00018   0.00026   0.00051   0.00077   1.86721
   A12        1.86571   0.00023   0.00028   0.00087   0.00115   1.86686
   A13        1.93770  -0.00005   0.00018  -0.00117  -0.00099   1.93672
   A14        1.90692  -0.00011   0.00075  -0.00537  -0.00462   1.90230
   A15        1.93972  -0.00051  -0.00008  -0.00262  -0.00270   1.93702
   A16        1.89406   0.00007  -0.00036   0.00248   0.00211   1.89617
   A17        1.89123   0.00034  -0.00025   0.00397   0.00372   1.89495
   A18        1.89310   0.00027  -0.00029   0.00301   0.00272   1.89582
   A19        1.93796  -0.00013   0.00017  -0.00160  -0.00143   1.93653
   A20        1.90683  -0.00009   0.00075  -0.00521  -0.00446   1.90238
   A21        1.93966  -0.00049  -0.00008  -0.00253  -0.00262   1.93704
   A22        1.89372   0.00012  -0.00035   0.00286   0.00251   1.89623
   A23        1.89145   0.00036  -0.00024   0.00396   0.00372   1.89517
   A24        1.89310   0.00025  -0.00028   0.00282   0.00253   1.89563
    D1       -3.09958  -0.00025  -0.00078   0.01038   0.00960  -3.08998
    D2        0.97605   0.00022  -0.00008   0.01202   0.01193   0.98799
    D3       -1.06138  -0.00003  -0.00044   0.01102   0.01058  -1.05080
    D4       -0.99436  -0.00012  -0.00094   0.01354   0.01259  -0.98176
    D5        3.08127   0.00035  -0.00024   0.01517   0.01493   3.09620
    D6        1.04384   0.00010  -0.00060   0.01418   0.01358   1.05742
    D7        1.09447  -0.00019  -0.00086   0.01176   0.01091   1.10538
    D8       -1.11309   0.00028  -0.00016   0.01340   0.01324  -1.09984
    D9        3.13267   0.00002  -0.00051   0.01240   0.01189  -3.13862
   D10        3.09408   0.00002   0.00089  -0.00777  -0.00688   3.08720
   D11       -1.10076   0.00000   0.00104  -0.00887  -0.00783  -1.10859
   D12        0.98767  -0.00004   0.00113  -0.01023  -0.00910   0.97857
   D13       -0.98354  -0.00003   0.00022  -0.00728  -0.00706  -0.99060
   D14        1.10481  -0.00004   0.00038  -0.00838  -0.00801   1.09680
   D15       -3.08995  -0.00009   0.00046  -0.00974  -0.00928  -3.09923
   D16        1.05497   0.00003   0.00056  -0.00740  -0.00684   1.04813
   D17       -3.13987   0.00002   0.00072  -0.00851  -0.00779   3.13553
   D18       -1.05144  -0.00003   0.00081  -0.00987  -0.00906  -1.06050
   D19       -3.09941   0.00003  -0.00079   0.01303   0.01224  -3.08717
   D20        1.09574   0.00002  -0.00095   0.01382   0.01287   1.10861
   D21       -0.99259   0.00007  -0.00104   0.01526   0.01421  -0.97838
   D22        0.97833   0.00005  -0.00012   0.01245   0.01232   0.99065
   D23       -1.10971   0.00004  -0.00029   0.01324   0.01295  -1.09676
   D24        3.08515   0.00009  -0.00038   0.01467   0.01430   3.09945
   D25       -1.06062   0.00002  -0.00045   0.01279   0.01234  -1.04829
   D26        3.13452   0.00001  -0.00062   0.01358   0.01297  -3.13570
   D27        1.04620   0.00006  -0.00071   0.01502   0.01431   1.06051
         Item               Value     Threshold  Converged?
 Maximum Force            0.004631     0.000450     NO 
 RMS     Force            0.000677     0.000300     NO 
 Maximum Displacement     0.029549     0.001800     NO 
 RMS     Displacement     0.009140     0.001200     NO 
 Predicted change in Energy=-8.946261D-05
 GradGradGradGradGradGradGradGradGradGradGradGradGradGradGradGradGradGrad

                          Input orientation:                          
 ---------------------------------------------------------------------
 Center     Atomic      Atomic             Coordinates (Angstroms)
 Number     Number       Type             X           Y           Z
 ---------------------------------------------------------------------
      1          6           0        0.271180   -1.113665    0.905120
      2          6           0        0.016352    0.222715    0.225527
      3          6           0       -1.379719    0.296539   -0.372373
      4          6           0        1.089265    0.549387   -0.801009
      5         35           0        0.118404    1.617468    1.633597
      6          1           0        1.258681   -1.131605    1.374482
      7          1           0       -0.482661   -1.312410    1.671821
      8          1           0        0.225399   -1.912347    0.153561
      9          1           0       -1.566949    1.281603   -0.808554
     10          1           0       -1.470457   -0.460057   -1.162461
     11          1           0       -2.141724    0.101413    0.387075
     12          1           0        0.922290    1.536578   -1.240575
     13          1           0        1.058218   -0.201044   -1.601528
     14          1           0        2.083621    0.533926   -0.346583
 ---------------------------------------------------------------------
                    Distance matrix (angstroms):
                    1          2          3          4          5
     1  C    0.000000
     2  C    1.520755   0.000000
     3  C    2.519153   1.520510   0.000000
     4  C    2.519103   1.520405   2.518639   0.000000
     5  Br   2.830743   1.984543   2.830750   2.830313   0.000000
     6  H    1.093518   2.167409   3.471636   2.754486   2.987436
     7  H    1.093437   2.167345   2.751756   3.471616   2.991142
     8  H    1.097647   2.146478   2.780681   2.778057   3.829040
     9  H    3.471701   2.167351   1.093462   2.755298   2.986188
    10  H    2.781258   2.145528   1.097683   2.775211   3.828646
    11  H    2.750798   2.167511   1.093383   3.471528   2.993396
    12  H    3.471562   2.167122   2.755126   1.093456   2.985572
    13  H    2.781293   2.145504   2.775238   1.097698   3.828351
    14  H    2.750683   2.167433   3.471562   1.093383   2.992867
                    6          7          8          9         10
     6  H    0.000000
     7  H    1.775774   0.000000
     8  H    1.779854   1.779434   0.000000
     9  H    4.309687   3.749246   3.786752   0.000000
    10  H    3.786192   3.120160   2.591715   1.779871   0.000000
    11  H    3.749408   2.530209   3.116572   1.775597   1.779581
    12  H    3.751118   4.309602   3.784753   2.539284   3.117353
    13  H    3.124542   3.784739   2.588915   3.117458   2.579547
    14  H    2.533097   3.750828   3.112456   3.754877   3.779567
                   11         12         13         14
    11  H    0.000000
    12  H    3.754614   0.000000
    13  H    3.779636   1.779914   0.000000
    14  H    4.310320   1.775732   1.779472   0.000000
 Stoichiometry    C4H9Br
 Framework group  C1[X(C4H9Br)]
 Deg. of freedom    36
 Full point group                 C1      NOp   1
 Largest Abelian subgroup         C1      NOp   1
 Largest concise Abelian subgroup C1      NOp   1
                         Standard orientation:                         
 ---------------------------------------------------------------------
 Center     Atomic      Atomic             Coordinates (Angstroms)
 Number     Number       Type             X           Y           Z
 ---------------------------------------------------------------------
      1          6           0       -1.273259   -1.452858    0.068764
      2          6           0       -0.829291    0.000020   -0.000050
      3          6           0       -1.273503    0.786146    1.223318
      4          6           0       -1.272756    0.666780   -1.292490
      5         35           0        1.155252   -0.000022    0.000113
      6          1           0       -0.902007   -2.016313   -0.791742
      7          1           0       -0.907801   -1.930499    0.981948
      8          1           0       -2.370179   -1.492787    0.067485
      9          1           0       -0.900273    1.813230    1.185125
     10          1           0       -2.370494    0.812287    1.252229
     11          1           0       -0.911068    0.317864    2.142470
     12          1           0       -0.899390    1.692834   -1.351303
     13          1           0       -2.369741    0.690118   -1.324423
     14          1           0       -0.910006    0.113513   -2.163004
 ---------------------------------------------------------------------
 Rotational constants (GHZ):      4.5424794      2.0570545      2.0568285
 Standard basis: 6-31+G(d) (6D, 7F)
 There are   128 symmetry adapted cartesian basis functions of A   symmetry.
 There are   128 symmetry adapted basis functions of A   symmetry.
   128 basis functions,   251 primitive gaussians,   128 cartesian basis functions
    34 alpha electrons       34 beta electrons
       nuclear repulsion energy       351.3161830119 Hartrees.
 NAtoms=   14 NActive=   14 NUniq=   14 SFac= 1.00D+00 NAtFMM=   60 NAOKFM=F Big=F
 Integral buffers will be    131072 words long.
 Raffenetti 2 integral format.
 Two-electron integral symmetry is turned on.
 One-electron integrals computed using PRISM.
 NBasis=   128 RedAO= T EigKep=  7.59D-05  NBF=   128
 NBsUse=   128 1.00D-06 EigRej= -1.00D+00 NBFU=   128
 Initial guess from the checkpoint file:  "/srv/scratch/z5358697/gauss/Gau-2756697.chk"
 B after Tr=     0.000000    0.000000    0.000000
         Rot=    0.713243   -0.700916   -0.000182   -0.000221 Ang= -89.00 deg.
 ExpMin= 3.50D-02 ExpMax= 5.74D+05 ExpMxC= 5.74D+03 IAcc=3 IRadAn=         5 AccDes= 0.00D+00
 Harris functional with IExCor= 1009 and IRadAn=       5 diagonalized for initial guess.
 HarFok:  IExCor= 1009 AccDes= 0.00D+00 IRadAn=         5 IDoV= 1 UseB2=F ITyADJ=14
 ICtDFT=  3500011 ScaDFX=  1.000000  1.000000  1.000000  1.000000
 FoFCou: FMM=F IPFlag=           0 FMFlag=      100000 FMFlg1=           0
         NFxFlg=           0 DoJE=T BraDBF=F KetDBF=T FulRan=T
         wScrn=  0.000000 ICntrl=     500 IOpCl=  0 I1Cent=   200000004 NGrid=           0
         NMat0=    1 NMatS0=      1 NMatT0=    0 NMatD0=    1 NMtDS0=    0 NMtDT0=    0
 Petite list used in FoFCou.
 Requested convergence on RMS density matrix=1.00D-08 within 128 cycles.
 Requested convergence on MAX density matrix=1.00D-06.
 Requested convergence on             energy=1.00D-06.
 No special actions if energy rises.
 SCF Done:  E(RM062X) =  -2729.57598440     A.U. after   10 cycles
            NFock= 10  Conv=0.26D-08     -V/T= 2.0070
 Calling FoFJK, ICntrl=      2127 FMM=F ISym2X=0 I1Cent= 0 IOpClX= 0 NMat=1 NMatS=1 NMatT=0.
 ***** Axes restored to original set *****
 -------------------------------------------------------------------
 Center     Atomic                   Forces (Hartrees/Bohr)
 Number     Number              X              Y              Z
 -------------------------------------------------------------------
      1        6           0.000049371    0.000348639    0.000379668
      2        6           0.000024207   -0.000586944   -0.000375267
      3        6          -0.000034063    0.000319261    0.000245672
      4        6          -0.000029626    0.000347173    0.000181923
      5       35          -0.000027435   -0.000387897   -0.000231119
      6        1           0.000019115   -0.000139950   -0.000065558
      7        1          -0.000040315   -0.000042829    0.000009934
      8        1           0.000039707   -0.000030168    0.000093982
      9        1          -0.000042073   -0.000044978   -0.000131110
     10        1          -0.000160545    0.000107005    0.000029282
     11        1          -0.000056327    0.000020773    0.000005192
     12        1           0.000058581   -0.000035633   -0.000120721
     13        1           0.000113357    0.000156221   -0.000016998
     14        1           0.000086044   -0.000030673   -0.000004881
 -------------------------------------------------------------------
 Cartesian Forces:  Max     0.000586944 RMS     0.000185398

 GradGradGradGradGradGradGradGradGradGradGradGradGradGradGradGradGradGrad
 Berny optimization.
 Using GEDIIS/GDIIS optimizer.
 FormGI is forming the generalized inverse of G from B-inverse, IUseBI=4.
 Internal  Forces:  Max     0.000438012 RMS     0.000129297
 Search for a local minimum.
 Step number   3 out of a maximum of   74
 All quantities printed in internal units (Hartrees-Bohrs-Radians)
 Mixed Optimization -- En-DIIS/RFO-DIIS
 Swapping is turned off.
 Update second derivatives using D2CorX and points    1    2    3
 DE= -8.03D-05 DEPred=-8.95D-05 R= 8.97D-01
 TightC=F SS=  1.41D+00  RLast= 6.76D-02 DXNew= 8.4853D-01 2.0268D-01
 Trust test= 8.97D-01 RLast= 6.76D-02 DXMaxT set to 5.05D-01
 ITU=  1  1  0
     Eigenvalues ---    0.00402   0.00408   0.00440   0.03868   0.05494
     Eigenvalues ---    0.05564   0.05570   0.05780   0.05784   0.05785
     Eigenvalues ---    0.07019   0.07024   0.14486   0.15967   0.16000
     Eigenvalues ---    0.16000   0.16000   0.16000   0.16000   0.16000
     Eigenvalues ---    0.16063   0.18318   0.18515   0.19161   0.29691
     Eigenvalues ---    0.29737   0.31341   0.33815   0.34092   0.34098
     Eigenvalues ---    0.34102   0.34107   0.34127   0.34156   0.34159
     Eigenvalues ---    0.34223
 En-DIIS/RFO-DIIS IScMMF=        0 using points:     3    2
 RFO step:  Lambda=-3.48103296D-06.
 DidBck=F Rises=F RFO-DIIS coefs:    0.89035    0.10965
 Iteration  1 RMS(Cart)=  0.00357899 RMS(Int)=  0.00000884
 Iteration  2 RMS(Cart)=  0.00001023 RMS(Int)=  0.00000241
 Iteration  3 RMS(Cart)=  0.00000000 RMS(Int)=  0.00000241
 Variable       Old X    -DE/DX   Delta X   Delta X   Delta X     New X
                                 (Linear)    (Quad)   (Total)
    R1        2.87381   0.00007  -0.00037   0.00086   0.00049   2.87430
    R2        2.06645   0.00000   0.00019  -0.00029  -0.00010   2.06634
    R3        2.06630   0.00004   0.00018  -0.00016   0.00002   2.06631
    R4        2.07425  -0.00006  -0.00013   0.00005  -0.00007   2.07418
    R5        2.87335   0.00024  -0.00020   0.00108   0.00088   2.87423
    R6        2.87315   0.00023  -0.00016   0.00099   0.00083   2.87398
    R7        3.75024  -0.00044  -0.00322   0.00263  -0.00059   3.74965
    R8        2.06634   0.00001   0.00018  -0.00025  -0.00007   2.06627
    R9        2.07432  -0.00007  -0.00015   0.00005  -0.00010   2.07422
   R10        2.06619   0.00004   0.00023  -0.00026  -0.00003   2.06616
   R11        2.06633   0.00001   0.00018  -0.00025  -0.00007   2.06626
   R12        2.07435  -0.00010  -0.00013  -0.00005  -0.00018   2.07417
   R13        2.06619   0.00007   0.00019  -0.00010   0.00009   2.06628
    A1        1.93644   0.00011   0.00008   0.00056   0.00063   1.93707
    A2        1.93643  -0.00001   0.00030  -0.00038  -0.00008   1.93635
    A3        1.90334   0.00011   0.00039  -0.00004   0.00035   1.90369
    A4        1.89509  -0.00003  -0.00046   0.00079   0.00033   1.89542
    A5        1.89612  -0.00014  -0.00012  -0.00083  -0.00096   1.89516
    A6        1.89557  -0.00006  -0.00020  -0.00012  -0.00032   1.89524
    A7        1.95222   0.00013  -0.00013   0.00239   0.00225   1.95447
    A8        1.95226   0.00014  -0.00011   0.00249   0.00238   1.95464
    A9        1.86702  -0.00018   0.00010  -0.00311  -0.00301   1.86402
   A10        1.95196   0.00004   0.00033   0.00145   0.00177   1.95372
   A11        1.86721  -0.00009  -0.00008  -0.00212  -0.00220   1.86501
   A12        1.86686  -0.00007  -0.00013  -0.00178  -0.00190   1.86496
   A13        1.93672   0.00010   0.00011   0.00040   0.00051   1.93723
   A14        1.90230   0.00020   0.00051   0.00037   0.00088   1.90318
   A15        1.93702   0.00001   0.00030  -0.00035  -0.00005   1.93697
   A16        1.89617  -0.00017  -0.00023  -0.00079  -0.00103   1.89515
   A17        1.89495  -0.00004  -0.00041   0.00051   0.00010   1.89505
   A18        1.89582  -0.00011  -0.00030  -0.00016  -0.00046   1.89536
   A19        1.93653   0.00013   0.00016   0.00055   0.00071   1.93724
   A20        1.90238   0.00020   0.00049   0.00039   0.00088   1.90325
   A21        1.93704  -0.00001   0.00029  -0.00051  -0.00022   1.93682
   A22        1.89623  -0.00018  -0.00027  -0.00065  -0.00092   1.89531
   A23        1.89517  -0.00005  -0.00041   0.00046   0.00005   1.89522
   A24        1.89563  -0.00011  -0.00028  -0.00026  -0.00054   1.89509
    D1       -3.08998   0.00010  -0.00105   0.00236   0.00131  -3.08867
    D2        0.98799  -0.00016  -0.00131  -0.00345  -0.00476   0.98323
    D3       -1.05080  -0.00004  -0.00116  -0.00078  -0.00194  -1.05274
    D4       -0.98176   0.00014  -0.00138   0.00349   0.00211  -0.97966
    D5        3.09620  -0.00012  -0.00164  -0.00232  -0.00396   3.09224
    D6        1.05742   0.00000  -0.00149   0.00034  -0.00114   1.05627
    D7        1.10538   0.00013  -0.00120   0.00308   0.00188   1.10726
    D8       -1.09984  -0.00013  -0.00145  -0.00273  -0.00419  -1.10403
    D9       -3.13862  -0.00001  -0.00130  -0.00006  -0.00137  -3.13999
   D10        3.08720  -0.00013   0.00075   0.00267   0.00342   3.09062
   D11       -1.10859  -0.00015   0.00086   0.00217   0.00302  -1.10556
   D12        0.97857  -0.00015   0.00100   0.00199   0.00298   0.98155
   D13       -0.99060   0.00019   0.00077   0.00904   0.00982  -0.98078
   D14        1.09680   0.00017   0.00088   0.00855   0.00942   1.10623
   D15       -3.09923   0.00017   0.00102   0.00837   0.00938  -3.08984
   D16        1.04813   0.00008   0.00075   0.00640   0.00716   1.05528
   D17        3.13553   0.00005   0.00085   0.00591   0.00676  -3.14090
   D18       -1.06050   0.00006   0.00099   0.00573   0.00672  -1.05378
   D19       -3.08717   0.00015  -0.00134   0.00360   0.00226  -3.08491
   D20        1.10861   0.00015  -0.00141   0.00381   0.00240   1.11101
   D21       -0.97838   0.00017  -0.00156   0.00420   0.00265  -0.97573
   D22        0.99065  -0.00016  -0.00135  -0.00272  -0.00407   0.98658
   D23       -1.09676  -0.00015  -0.00142  -0.00251  -0.00393  -1.10069
   D24        3.09945  -0.00014  -0.00157  -0.00211  -0.00368   3.09576
   D25       -1.04829  -0.00004  -0.00135   0.00013  -0.00123  -1.04951
   D26       -3.13570  -0.00003  -0.00142   0.00034  -0.00108  -3.13678
   D27        1.06051  -0.00002  -0.00157   0.00073  -0.00084   1.05967
         Item               Value     Threshold  Converged?
 Maximum Force            0.000438     0.000450     YES
 RMS     Force            0.000129     0.000300     YES
 Maximum Displacement     0.012272     0.001800     NO 
 RMS     Displacement     0.003578     0.001200     NO 
 Predicted change in Energy=-6.998915D-06
 GradGradGradGradGradGradGradGradGradGradGradGradGradGradGradGradGradGrad

                          Input orientation:                          
 ---------------------------------------------------------------------
 Center     Atomic      Atomic             Coordinates (Angstroms)
 Number     Number       Type             X           Y           Z
 ---------------------------------------------------------------------
      1          6           0        0.271659   -1.114982    0.905657
      2          6           0        0.016189    0.220221    0.223422
      3          6           0       -1.380982    0.296858   -0.372739
      4          6           0        1.090184    0.550895   -0.801348
      5         35           0        0.117554    1.613140    1.632914
      6          1           0        1.259530   -1.132712    1.374119
      7          1           0       -0.481841   -1.312301    1.673073
      8          1           0        0.225566   -1.915413    0.156037
      9          1           0       -1.565493    1.280414   -0.813365
     10          1           0       -1.476807   -0.462474   -1.159522
     11          1           0       -2.142446    0.107907    0.388786
     12          1           0        0.922355    1.538283   -1.240050
     13          1           0        1.062541   -0.197760   -1.603524
     14          1           0        2.083891    0.536424   -0.345362
 ---------------------------------------------------------------------
                    Distance matrix (angstroms):
                    1          2          3          4          5
     1  C    0.000000
     2  C    1.521012   0.000000
     3  C    2.521668   1.520976   0.000000
     4  C    2.521704   1.520843   2.520893   0.000000
     5  Br   2.827596   1.984229   2.828578   2.828427   0.000000
     6  H    1.093463   2.168047   3.473829   2.756060   2.985094
     7  H    1.093446   2.167520   2.753760   3.473545   2.986485
     8  H    1.097609   2.146931   2.784734   2.783311   3.826685
     9  H    3.473915   2.168099   1.093425   2.754080   2.987915
    10  H    2.783499   2.146543   1.097631   2.782921   3.827252
    11  H    2.755089   2.167870   1.093366   3.473118   2.986835
    12  H    3.473799   2.167989   2.756579   1.093418   2.984498
    13  H    2.786176   2.146461   2.780339   1.097604   3.827125
    14  H    2.752521   2.167693   3.473253   1.093429   2.989878
                    6          7          8          9         10
     6  H    0.000000
     7  H    1.775950   0.000000
     8  H    1.779165   1.779204   0.000000
     9  H    4.311498   3.752179   3.789583   0.000000
    10  H    3.788944   3.120218   2.596113   1.779142   0.000000
    11  H    3.752793   2.534560   3.123376   1.775617   1.779232
    12  H    3.752570   4.310902   3.789801   2.537310   3.124979
    13  H    3.127187   3.789908   2.597482   3.117035   2.591428
    14  H    2.534206   3.751645   3.117094   3.753738   3.786717
                   11         12         13         14
    11  H    0.000000
    12  H    3.753943   0.000000
    13  H    3.786115   1.779217   0.000000
    14  H    4.310977   1.775769   1.779088   0.000000
 Stoichiometry    C4H9Br
 Framework group  C1[X(C4H9Br)]
 Deg. of freedom    36
 Full point group                 C1      NOp   1
 Largest Abelian subgroup         C1      NOp   1
 Largest concise Abelian subgroup C1      NOp   1
                         Standard orientation:                         
 ---------------------------------------------------------------------
 Center     Atomic      Atomic             Coordinates (Angstroms)
 Number     Number       Type             X           Y           Z
 ---------------------------------------------------------------------
      1          6           0       -1.269758   -1.456394   -0.010393
      2          6           0       -0.830540   -0.000215   -0.000086
      3          6           0       -1.271882    0.718641    1.265549
      4          6           0       -1.271616    0.736605   -1.255280
      5         35           0        1.153689    0.000348    0.000039
      6          1           0       -0.898765   -1.971038   -0.900992
      7          1           0       -0.901543   -1.981998    0.874922
      8          1           0       -2.366489   -1.500222   -0.012428
      9          1           0       -0.904147    1.748276    1.279764
     10          1           0       -2.368722    0.738393    1.302258
     11          1           0       -0.902388    0.204439    2.156907
     12          1           0       -0.898969    1.764560   -1.257488
     13          1           0       -2.368408    0.761882   -1.289064
     14          1           0       -0.906901    0.231722   -2.153981
 ---------------------------------------------------------------------
 Rotational constants (GHZ):      4.5339650      2.0604601      2.0601121
 Standard basis: 6-31+G(d) (6D, 7F)
 There are   128 symmetry adapted cartesian basis functions of A   symmetry.
 There are   128 symmetry adapted basis functions of A   symmetry.
   128 basis functions,   251 primitive gaussians,   128 cartesian basis functions
    34 alpha electrons       34 beta electrons
       nuclear repulsion energy       351.4059564968 Hartrees.
 NAtoms=   14 NActive=   14 NUniq=   14 SFac= 1.00D+00 NAtFMM=   60 NAOKFM=F Big=F
 Integral buffers will be    131072 words long.
 Raffenetti 2 integral format.
 Two-electron integral symmetry is turned on.
 One-electron integrals computed using PRISM.
 NBasis=   128 RedAO= T EigKep=  7.68D-05  NBF=   128
 NBsUse=   128 1.00D-06 EigRej= -1.00D+00 NBFU=   128
 Initial guess from the checkpoint file:  "/srv/scratch/z5358697/gauss/Gau-2756697.chk"
 B after Tr=     0.000000    0.000000    0.000000
         Rot=    0.999630   -0.027215   -0.000104   -0.000316 Ang=  -3.12 deg.
 Requested convergence on RMS density matrix=1.00D-08 within 128 cycles.
 Requested convergence on MAX density matrix=1.00D-06.
 Requested convergence on             energy=1.00D-06.
 No special actions if energy rises.
 SCF Done:  E(RM062X) =  -2729.57598403     A.U. after    9 cycles
            NFock=  9  Conv=0.33D-08     -V/T= 2.0070
 Calling FoFJK, ICntrl=      2127 FMM=F ISym2X=0 I1Cent= 0 IOpClX= 0 NMat=1 NMatS=1 NMatT=0.
 ***** Axes restored to original set *****
 -------------------------------------------------------------------
 Center     Atomic                   Forces (Hartrees/Bohr)
 Number     Number              X              Y              Z
 -------------------------------------------------------------------
      1        6          -0.000085876    0.000180723   -0.000169594
      2        6          -0.000056127   -0.000023736   -0.000105125
      3        6           0.000268525   -0.000021738    0.000105973
      4        6          -0.000097906   -0.000088471    0.000184304
      5       35           0.000000573    0.000079369    0.000059624
      6        1           0.000008054   -0.000006470   -0.000033892
      7        1          -0.000000171   -0.000060736    0.000013527
      8        1           0.000001372   -0.000068714    0.000017754
      9        1           0.000025875    0.000020537    0.000005786
     10        1          -0.000071065    0.000037185   -0.000023098
     11        1          -0.000010235   -0.000071045    0.000018604
     12        1          -0.000024763   -0.000012235   -0.000028659
     13        1           0.000047742    0.000030988   -0.000058495
     14        1          -0.000005997    0.000004342    0.000013291
 -------------------------------------------------------------------
 Cartesian Forces:  Max     0.000268525 RMS     0.000078806

 GradGradGradGradGradGradGradGradGradGradGradGradGradGradGradGradGradGrad
 Berny optimization.
 Using GEDIIS/GDIIS optimizer.
 FormGI is forming the generalized inverse of G from B-inverse, IUseBI=4.
 Internal  Forces:  Max     0.000235425 RMS     0.000053490
 Search for a local minimum.
 Step number   4 out of a maximum of   74
 All quantities printed in internal units (Hartrees-Bohrs-Radians)
 Mixed Optimization -- En-DIIS/RFO-DIIS
 Swapping is turned off.
 Update second derivatives using D2CorX and points    1    2    3    4
 DE=  3.68D-07 DEPred=-7.00D-06 R=-5.25D-02
 Trust test=-5.25D-02 RLast= 2.50D-02 DXMaxT set to 2.52D-01
 ITU= -1  1  1  0
     Eigenvalues ---    0.00408   0.00415   0.00467   0.03624   0.05489
     Eigenvalues ---    0.05561   0.05567   0.05777   0.05779   0.05790
     Eigenvalues ---    0.07039   0.07059   0.13845   0.15914   0.15988
     Eigenvalues ---    0.16000   0.16000   0.16000   0.16000   0.16000
     Eigenvalues ---    0.16239   0.18559   0.18848   0.19471   0.29681
     Eigenvalues ---    0.29896   0.33129   0.33870   0.34087   0.34098
     Eigenvalues ---    0.34107   0.34110   0.34133   0.34158   0.34204
     Eigenvalues ---    0.34367
 En-DIIS/RFO-DIIS IScMMF=        0 using points:     4    3    2
 RFO step:  Lambda=-4.06932587D-07.
 DidBck=F Rises=F RFO-DIIS coefs:    0.89880    0.08113    0.02007
 Iteration  1 RMS(Cart)=  0.00159520 RMS(Int)=  0.00000180
 Iteration  2 RMS(Cart)=  0.00000185 RMS(Int)=  0.00000023
 Iteration  3 RMS(Cart)=  0.00000000 RMS(Int)=  0.00000023
 Variable       Old X    -DE/DX   Delta X   Delta X   Delta X     New X
                                 (Linear)    (Quad)   (Total)
    R1        2.87430  -0.00014  -0.00012  -0.00026  -0.00038   2.87391
    R2        2.06634   0.00000   0.00004  -0.00006  -0.00001   2.06633
    R3        2.06631   0.00003   0.00003   0.00004   0.00007   2.06639
    R4        2.07418   0.00003  -0.00002   0.00007   0.00006   2.07424
    R5        2.87423  -0.00024  -0.00013  -0.00051  -0.00063   2.87359
    R6        2.87398  -0.00014  -0.00011  -0.00024  -0.00035   2.87363
    R7        3.74965   0.00010  -0.00053   0.00099   0.00046   3.75011
    R8        2.06627   0.00001   0.00004  -0.00002   0.00002   2.06630
    R9        2.07422   0.00000  -0.00002   0.00001  -0.00001   2.07422
   R10        2.06616   0.00003   0.00005   0.00004   0.00008   2.06625
   R11        2.06626   0.00000   0.00004  -0.00004   0.00000   2.06626
   R12        2.07417   0.00003  -0.00001   0.00006   0.00005   2.07422
   R13        2.06628   0.00000   0.00003  -0.00002   0.00001   2.06629
    A1        1.93707  -0.00005  -0.00005  -0.00022  -0.00027   1.93680
    A2        1.93635   0.00006   0.00006   0.00030   0.00036   1.93671
    A3        1.90369   0.00009   0.00004   0.00056   0.00060   1.90429
    A4        1.89542  -0.00001  -0.00012   0.00005  -0.00007   1.89536
    A5        1.89516  -0.00003   0.00007  -0.00041  -0.00034   1.89483
    A6        1.89524  -0.00007   0.00000  -0.00031  -0.00031   1.89493
    A7        1.95447  -0.00003  -0.00025   0.00028   0.00003   1.95450
    A8        1.95464  -0.00004  -0.00026   0.00024  -0.00002   1.95462
    A9        1.86402   0.00005   0.00032  -0.00024   0.00008   1.86410
   A10        1.95372   0.00006  -0.00012   0.00052   0.00040   1.95412
   A11        1.86501  -0.00003   0.00021  -0.00053  -0.00032   1.86468
   A12        1.86496  -0.00001   0.00017  -0.00038  -0.00021   1.86474
   A13        1.93723  -0.00005  -0.00003  -0.00016  -0.00019   1.93703
   A14        1.90318   0.00012   0.00000   0.00074   0.00075   1.90393
   A15        1.93697  -0.00003   0.00006  -0.00023  -0.00017   1.93680
   A16        1.89515  -0.00003   0.00006  -0.00033  -0.00027   1.89488
   A17        1.89505   0.00004  -0.00008   0.00033   0.00025   1.89530
   A18        1.89536  -0.00005  -0.00001  -0.00037  -0.00038   1.89498
   A19        1.93724  -0.00001  -0.00004   0.00002  -0.00002   1.93722
   A20        1.90325   0.00010   0.00000   0.00069   0.00069   1.90395
   A21        1.93682  -0.00003   0.00008  -0.00021  -0.00014   1.93668
   A22        1.89531  -0.00006   0.00004  -0.00053  -0.00048   1.89482
   A23        1.89522   0.00002  -0.00008   0.00015   0.00007   1.89529
   A24        1.89509  -0.00003   0.00000  -0.00014  -0.00014   1.89495
    D1       -3.08867   0.00001  -0.00033  -0.00077  -0.00109  -3.08976
    D2        0.98323  -0.00002   0.00024  -0.00188  -0.00164   0.98159
    D3       -1.05274  -0.00001  -0.00002  -0.00140  -0.00142  -1.05416
    D4       -0.97966   0.00000  -0.00047  -0.00065  -0.00111  -0.98077
    D5        3.09224  -0.00003   0.00010  -0.00176  -0.00166   3.09058
    D6        1.05627  -0.00001  -0.00016  -0.00128  -0.00144   1.05483
    D7        1.10726   0.00002  -0.00041  -0.00049  -0.00090   1.10636
    D8       -1.10403  -0.00001   0.00016  -0.00160  -0.00144  -1.10547
    D9       -3.13999   0.00000  -0.00010  -0.00112  -0.00122  -3.14122
   D10        3.09062   0.00000  -0.00021  -0.00236  -0.00257   3.08805
   D11       -1.10556   0.00001  -0.00015  -0.00239  -0.00254  -1.10810
   D12        0.98155   0.00000  -0.00012  -0.00252  -0.00263   0.97892
   D13       -0.98078  -0.00002  -0.00085  -0.00139  -0.00225  -0.98303
   D14        1.10623  -0.00002  -0.00079  -0.00143  -0.00222   1.10401
   D15       -3.08984  -0.00003  -0.00076  -0.00155  -0.00231  -3.09216
   D16        1.05528  -0.00002  -0.00059  -0.00190  -0.00248   1.05280
   D17       -3.14090  -0.00002  -0.00053  -0.00193  -0.00246   3.13983
   D18       -1.05378  -0.00002  -0.00050  -0.00205  -0.00255  -1.05633
   D19       -3.08491  -0.00003  -0.00047  -0.00191  -0.00238  -3.08730
   D20        1.11101  -0.00002  -0.00050  -0.00171  -0.00222   1.10879
   D21       -0.97573  -0.00003  -0.00055  -0.00185  -0.00240  -0.97813
   D22        0.98658  -0.00001   0.00016  -0.00290  -0.00273   0.98385
   D23       -1.10069   0.00000   0.00014  -0.00270  -0.00256  -1.10325
   D24        3.09576  -0.00001   0.00009  -0.00284  -0.00275   3.09301
   D25       -1.04951   0.00000  -0.00012  -0.00230  -0.00243  -1.05194
   D26       -3.13678   0.00001  -0.00015  -0.00211  -0.00226  -3.13904
   D27        1.05967  -0.00001  -0.00020  -0.00224  -0.00245   1.05723
         Item               Value     Threshold  Converged?
 Maximum Force            0.000235     0.000450     YES
 RMS     Force            0.000053     0.000300     YES
 Maximum Displacement     0.004512     0.001800     NO 
 RMS     Displacement     0.001595     0.001200     NO 
 Predicted change in Energy=-6.740672D-07
 GradGradGradGradGradGradGradGradGradGradGradGradGradGradGradGradGradGrad

                          Input orientation:                          
 ---------------------------------------------------------------------
 Center     Atomic      Atomic             Coordinates (Angstroms)
 Number     Number       Type             X           Y           Z
 ---------------------------------------------------------------------
      1          6           0        0.271301   -1.114910    0.905454
      2          6           0        0.016119    0.220070    0.223124
      3          6           0       -1.380829    0.297035   -0.372659
      4          6           0        1.090302    0.550544   -0.801237
      5         35           0        0.117541    1.613425    1.632520
      6          1           0        1.259742   -1.132971    1.372686
      7          1           0       -0.481305   -1.311706    1.673937
      8          1           0        0.224042   -1.916020    0.156588
      9          1           0       -1.565850    1.281500   -0.811067
     10          1           0       -1.476958   -0.460413   -1.161215
     11          1           0       -2.142018    0.105793    0.388633
     12          1           0        0.921283    1.536893   -1.241818
     13          1           0        1.064929   -0.199144   -1.602561
     14          1           0        2.083602    0.538404   -0.344286
 ---------------------------------------------------------------------
                    Distance matrix (angstroms):
                    1          2          3          4          5
     1  C    0.000000
     2  C    1.520810   0.000000
     3  C    2.521249   1.520640   0.000000
     4  C    2.521367   1.520657   2.520801   0.000000
     5  Br   2.827734   1.984470   2.828205   2.828278   0.000000
     6  H    1.093457   2.167674   3.473293   2.754791   2.985771
     7  H    1.093485   2.167631   2.754223   3.473386   2.986088
     8  H    1.097639   2.147217   2.784480   2.784201   3.827101
[...]
 Second derivative matrix not updated -- analytic derivatives used.
 ITU=  0
     Eigenvalues ---    0.00344   0.00497   0.00510   0.03584   0.04591
     Eigenvalues ---    0.04599   0.04617   0.04729   0.04795   0.04812
     Eigenvalues ---    0.06996   0.07019   0.12694   0.12714   0.13256
     Eigenvalues ---    0.14037   0.14150   0.14543   0.14859   0.15336
     Eigenvalues ---    0.15373   0.18446   0.20055   0.20093   0.30862
     Eigenvalues ---    0.30900   0.33788   0.33977   0.34001   0.34286
     Eigenvalues ---    0.34735   0.34969   0.34984   0.35337   0.35348
     Eigenvalues ---    0.35489
 Angle between quadratic step and forces=  68.27 degrees.
 Linear search not attempted -- first point.
 Iteration  1 RMS(Cart)=  0.00203311 RMS(Int)=  0.00000294
 Iteration  2 RMS(Cart)=  0.00000305 RMS(Int)=  0.00000004
 Iteration  3 RMS(Cart)=  0.00000000 RMS(Int)=  0.00000004
 Variable       Old X    -DE/DX   Delta X   Delta X   Delta X     New X
                                 (Linear)    (Quad)   (Total)
    R1        2.87358  -0.00005   0.00000  -0.00024  -0.00024   2.87334
    R2        2.06632   0.00000   0.00000   0.00003   0.00003   2.06635
    R3        2.06635  -0.00001   0.00000  -0.00005  -0.00005   2.06630
    R4        2.07431  -0.00002   0.00000  -0.00006  -0.00006   2.07425
    R5        2.87342   0.00007   0.00000   0.00019   0.00019   2.87361
    R6        2.87352   0.00003   0.00000   0.00015   0.00015   2.87366
    R7        3.75035   0.00000   0.00000   0.00006   0.00006   3.75041
    R8        2.06632  -0.00004   0.00000  -0.00009  -0.00009   2.06623
    R9        2.07424   0.00001   0.00000   0.00004   0.00004   2.07428
   R10        2.06633   0.00001   0.00000   0.00002   0.00002   2.06635
   R11        2.06631   0.00002   0.00000   0.00005   0.00005   2.06636
   R12        2.07431  -0.00002   0.00000  -0.00004  -0.00004   2.07427
   R13        2.06627   0.00005   0.00000   0.00013   0.00013   2.06640
    A1        1.93687  -0.00001   0.00000  -0.00006  -0.00006   1.93681
    A2        1.93690   0.00003   0.00000   0.00033   0.00033   1.93724
    A3        1.90436  -0.00005   0.00000  -0.00042  -0.00042   1.90394
    A4        1.89517   0.00000   0.00000   0.00010   0.00010   1.89527
    A5        1.89481   0.00001   0.00000  -0.00002  -0.00002   1.89479
    A6        1.89479   0.00001   0.00000   0.00007   0.00007   1.89486
    A7        1.95449  -0.00009   0.00000  -0.00042  -0.00042   1.95408
    A8        1.95423   0.00006   0.00000   0.00045   0.00045   1.95467
    A9        1.86419   0.00005   0.00000   0.00050   0.00050   1.86469
   A10        1.95432   0.00004   0.00000   0.00006   0.00006   1.95438
   A11        1.86457   0.00004   0.00000   0.00022   0.00022   1.86479
   A12        1.86500  -0.00009   0.00000  -0.00083  -0.00083   1.86417
   A13        1.93686   0.00004   0.00000   0.00025   0.00025   1.93711
   A14        1.90410  -0.00002   0.00000  -0.00019  -0.00019   1.90391
   A15        1.93685   0.00002   0.00000   0.00017   0.00017   1.93703
   A16        1.89509  -0.00002   0.00000  -0.00012  -0.00012   1.89497
   A17        1.89526  -0.00003   0.00000  -0.00015  -0.00015   1.89511
   A18        1.89476   0.00000   0.00000   0.00003   0.00003   1.89479
   A19        1.93706  -0.00007   0.00000  -0.00062  -0.00062   1.93644
   A20        1.90390   0.00005   0.00000   0.00044   0.00044   1.90434
   A21        1.93684   0.00003   0.00000   0.00018   0.00018   1.93702
   A22        1.89496   0.00001   0.00000  -0.00003  -0.00003   1.89493
   A23        1.89527   0.00002   0.00000   0.00014   0.00014   1.89541
   A24        1.89489  -0.00003   0.00000  -0.00010  -0.00010   1.89479
    D1       -3.09099  -0.00003   0.00000  -0.00414  -0.00414  -3.09513
    D2        0.98043  -0.00005   0.00000  -0.00425  -0.00425   0.97618
    D3       -1.05547  -0.00001   0.00000  -0.00379  -0.00379  -1.05926
    D4       -0.98206  -0.00001   0.00000  -0.00383  -0.00383  -0.98589
    D5        3.08935  -0.00004   0.00000  -0.00394  -0.00394   3.08541
    D6        1.05346   0.00001   0.00000  -0.00348  -0.00348   1.04997
    D7        1.10507  -0.00001   0.00000  -0.00381  -0.00381   1.10126
    D8       -1.10671  -0.00003   0.00000  -0.00392  -0.00392  -1.11062
    D9        3.14058   0.00001   0.00000  -0.00346  -0.00346   3.13712
   D10        3.08750   0.00002   0.00000   0.00276   0.00276   3.09026
   D11       -1.10839   0.00001   0.00000   0.00264   0.00264  -1.10575
   D12        0.97850   0.00001   0.00000   0.00266   0.00266   0.98116
   D13       -0.98396   0.00005   0.00000   0.00307   0.00307  -0.98089
   D14        1.10334   0.00004   0.00000   0.00295   0.00295   1.10629
   D15       -3.09296   0.00005   0.00000   0.00298   0.00298  -3.08998
   D16        1.05221  -0.00001   0.00000   0.00224   0.00224   1.05446
   D17        3.13951  -0.00002   0.00000   0.00212   0.00212  -3.14155
   D18       -1.05678  -0.00002   0.00000   0.00214   0.00214  -1.05464
   D19       -3.09089  -0.00003   0.00000  -0.00092  -0.00092  -3.09181
   D20        1.10516  -0.00002   0.00000  -0.00077  -0.00077   1.10439
   D21       -0.98175  -0.00004   0.00000  -0.00104  -0.00104  -0.98279
   D22        0.98043   0.00001   0.00000  -0.00077  -0.00077   0.97966
   D23       -1.10671   0.00002   0.00000  -0.00062  -0.00062  -1.10733
   D24        3.08956   0.00001   0.00000  -0.00089  -0.00089   3.08868
   D25       -1.05548   0.00000   0.00000  -0.00057  -0.00057  -1.05606
   D26        3.14057   0.00001   0.00000  -0.00043  -0.00043   3.14014
   D27        1.05365   0.00000   0.00000  -0.00069  -0.00069   1.05296
         Item               Value     Threshold  Converged?
 Maximum Force            0.000092     0.000450     YES
 RMS     Force            0.000034     0.000300     YES
 Maximum Displacement     0.007826     0.001800     NO 
 RMS     Displacement     0.002033     0.001200     NO 
 Predicted change in Energy=-7.191795D-07
 GradGradGradGradGradGradGradGradGradGradGradGradGradGradGradGradGradGrad

 1\1\GINC-KATANA3\Freq\RM062X\6-31+G(d)\C4H9Br1\Z5358697\17-Mar-2025\0\
 \#N Geom=AllCheck Guess=TCheck SCRF=Check GenChk RM062X/6-31+G(d) Freq
 \\2-bromo-2-methyl-propane\\0,1\C,0.2711540789,-1.1149153008,0.9049503
 614\C,0.0160785207,0.2201523932,0.2231514045\C,-1.3807875678,0.2973883
 887,-0.3725547075\C,1.0904638233,0.550331553,-0.8010070489\Br,0.117407
 9149,1.6132256274,1.6330169314\H,1.2600727534,-1.1337141252,1.37113020
 17\H,-0.4805955332,-1.3114962874,1.6742981602\H,0.2225341323,-1.915991
 3593,0.1560792424\H,-1.5657842356,1.2822583477,-0.8100951292\H,-1.4770
 510882,-0.4595492623,-1.1616036038\H,-2.1420339415,0.1055194345,0.3885
 837083\H,0.9196744018,1.535305947,-1.2440390097\H,1.0673335876,-0.2014
 217787,-1.6005231067\H,2.0834331533,0.5414064221,-0.3432874042\\Versio
 n=ES64L-G09RevD.01\State=1-A\HF=-2729.5759882\RMSD=1.527e-09\RMSF=3.29
 6e-05\ZeroPoint=0.1238859\Thermal=0.1303445\Dipole=-0.0497512,-0.68167
 92,-0.6897992\DipoleDeriv=0.0119961,-0.000515,-0.0135441,0.0137613,-0.
 0473647,0.0360938,-0.0051894,-0.0402812,-0.0425868,0.1712979,0.02908,0
 .0306037,0.0284357,0.5790041,0.4128128,0.0309393,0.4127839,0.5859848,-
 0.0383286,0.039328,0.0103109,-0.0142496,-0.0201903,-0.0415214,-0.04117
 13,-0.0147487,-0.0203109,-0.0195835,-0.0400899,-0.0001861,-0.0003741,-
 0.0258405,-0.0451936,0.0437069,0.0071533,-0.0330753,-0.2203683,-0.0170
 763,-0.0165342,-0.0167563,-0.4580733,-0.2420831,-0.0162293,-0.2424855,
 -0.4649307,-0.0730679,0.0301315,-0.0699108,-0.0291551,0.0535345,-0.004
 6262,-0.0560496,0.0287158,0.0461324,-0.0179099,-0.0364979,0.093229,0.0
 083162,0.0527852,0.0059817,0.0714555,0.0529292,-0.0038096,0.082443,-0.
 0022824,-0.0109626,0.0027585,-0.0952324,-0.0903559,-0.0091899,-0.11613
 64,-0.0306484,0.0476233,-0.0120715,-0.010771,0.0476217,-0.0641598,0.08
 4631,-0.0253944,0.0497609,0.0430315,0.0403508,-0.0098335,-0.0315028,-0
 .0279156,-0.0303498,-0.1241186,-0.0486493,-0.1159312,-0.0522483,-0.021
 9336,-0.0211923,0.0376461,-0.0255059,0.0698436,0.0263622,0.1060931,0.0
 337736,-0.0182032,0.0506271,0.0528617,-0.013412,0.0062586,-0.060784,0.
 0911605,0.0120144,0.0430955,0.0372374,0.0608008,-0.0122821,0.0163188,0
 .0003705,-0.0279797,-0.1231696,0.029545,-0.1071047,-0.0729533,-0.07394
 72,0.0004397,-0.0212848,0.006434,0.0748072,0.0140264,-0.0918809,0.0084
 757,0.0263804\Polar=61.8600686,0.5722817,70.0037561,0.6911565,8.139346
 4,70.0892915\PG=C01 [X(C4H9Br1)]\NImag=0\\0.60178763,0.01526786,0.4994
 7734,-0.00655791,0.02724537,0.58050365,-0.08457068,0.02018219,-0.00956
 425,0.50277109,0.01977205,-0.17408529,0.05923206,-0.00638104,0.4183051
 6,-0.00972107,0.06142654,-0.10067736,-0.00564972,-0.08729753,0.4167484
 7,-0.00808038,0.00506940,-0.00499887,-0.19212922,0.00827940,-0.0459612
 8,0.51439571,0.03117571,-0.00174595,0.01492342,0.00693015,-0.07363058,
 0.01007477,-0.00400474,0.59563013,-0.01621102,0.00437336,-0.00739434,-
 0.04739231,0.01081781,-0.09297882,-0.04576855,-0.01030361,0.57098570,0
 .00414136,-0.00209247,-0.00224627,-0.14675343,-0.02096804,0.06237078,-
 0.03005524,-0.00738979,0.02234596,0.55300700,-0.02341120,-0.00824196,0
 .02487112,-0.02014199,-0.08011153,0.02674394,0.00023073,0.00090362,-0.
 00028591,-0.01047831,0.59360290,0.01161109,0.00870946,-0.01296544,0.06
 387801,0.02807521,-0.13232997,-0.00691462,-0.00198144,0.01190958,0.054
 75038,0.00149690,0.53536124,-0.00099636,0.00220422,0.00242772,-0.02709
 650,-0.00157892,-0.00185585,-0.00249695,-0.01808808,-0.01834432,-0.000
 17383,0.01255959,0.01250103,0.03260793,-0.00178077,-0.02984356,-0.0272
 1007,-0.00159725,-0.04968736,-0.02274348,-0.00212998,-0.01107835,-0.01
 068675,0.00058026,-0.00776273,-0.00795370,0.00477281,0.09797381,0.0000
 6513,-0.00397182,-0.00313004,-0.00184335,-0.02285244,-0.05004359,-0.00
 268229,-0.01832119,-0.02043800,-0.00072540,-0.02346849,-0.02617557,0.0
 0502284,0.06626126,0.09931320,-0.27530719,0.00243309,-0.10564854,-0.00
 548080,-0.00078605,-0.00186110,0.00103336,0.00178212,-0.00013780,0.000
 74999,-0.00052624,0.00079272,0.00016860,-0.00010246,0.00053712,0.29562
 763,-0.00110632,-0.04712294,-0.00016043,0.02905779,-0.00208476,0.01285
 724,-0.00009311,-0.00557251,0.00259560,0.00093186,0.00098872,-0.001220
 40,0.00064282,0.00044882,0.00072510,-0.00271660,0.05351262,-0.10536538
 ,0.00224332,-0.09800317,-0.01302124,-0.00193118,-0.00765366,0.00033775
 ,0.00314623,-0.00079950,-0.00091621,-0.00083132,0.00014582,0.00118620,
 -0.00046534,0.00041923,0.11596083,-0.00327088,0.10350013,-0.18128584,-
 0.03284861,0.13413327,0.00337312,0.00129177,-0.00470627,0.00092689,0.0
 0021797,-0.00077103,0.00044019,0.00062430,-0.00085429,-0.00023238,-0.0
 0020548,-0.00046802,-0.01844679,-0.00487978,0.02160117,0.19258840,-0.0
 3046163,-0.05487344,0.03089773,-0.02210798,-0.00707617,0.02160559,-0.0
 0133592,0.00084081,-0.00100203,0.00225400,-0.00541610,0.00208591,-0.00
 049567,0.00031211,0.00078414,0.00036142,-0.00123011,-0.00109445,0.0342
 7789,0.06209221,0.13327839,0.03396709,-0.18358584,0.01011884,0.0002967
 8,-0.01146140,0.00080876,-0.00070776,0.00008544,-0.00151089,0.00313764
 ,-0.00031789,-0.00083512,-0.00069007,0.00099429,-0.01033465,-0.0033847
 2,0.01129832,-0.14568286,-0.03792851,0.19709740,-0.04953879,-0.0085756
 0,-0.00849671,-0.00140133,0.00344739,0.00369230,0.00008063,0.00016785,
 0.00037608,-0.00007924,-0.00034956,-0.00004825,0.00098685,0.00111030,0
 .00013664,0.00080769,-0.02246239,-0.01972763,0.00180819,0.01770801,0.0
 1448446,0.04752071,-0.00865165,-0.18633081,-0.13046472,-0.00145838,-0.
 02070194,-0.02004364,-0.00077089,0.00089699,-0.00078630,0.00024121,0.0
 0098167,-0.00100210,0.00066972,-0.00535499,0.00005094,-0.00033353,0.00
 085787,0.00140108,0.00100902,0.00519990,0.00468981,0.00900587,0.203811
 49,-0.00850366,-0.13008110,-0.17382257,0.00079851,0.00849647,0.0078553
 7,0.00007346,0.00007044,0.00034611,0.00005493,0.00023034,0.00040774,-0
 .00011347,0.00247869,0.00189701,0.00111208,-0.00885487,-0.00927631,-0.
 00321050,-0.01621262,-0.01445996,0.00974239,0.14374248,0.18693588,-0.0
 0596253,-0.00094534,-0.00207987,-0.00527926,0.02950448,-0.01261887,-0.
 05516771,0.03770818,-0.01607559,0.00161215,0.00093081,-0.00065196,0.00
 022874,0.00020555,0.00070121,-0.00016684,0.00168464,-0.00093769,0.0001
 4635,-0.00010709,-0.00012253,0.00000294,-0.00015291,0.00022031,0.06093
 413,0.00059606,0.00128077,0.00015603,-0.00127198,-0.00194556,-0.001282
 25,0.04120689,-0.27421979,0.10000305,-0.00037672,0.00023737,-0.0004443
 4,-0.00056881,0.00119218,-0.00033492,0.00008937,0.00013249,0.00020058,
 -0.00011661,0.00004907,-0.00011321,-0.00022122,0.00031826,-0.00006216,
 -0.04347659,0.29447918,-0.00293519,-0.00080858,-0.00063707,-0.00246667
 ,0.01241794,-0.00775175,-0.01637196,0.09762914,-0.09072785,0.00105330,
 -0.00079288,0.00002037,0.00003152,0.00080745,-0.00036968,-0.00035573,0
 .00094018,0.00004023,0.00002570,-0.00035075,0.00033561,-0.00000044,0.0
 0028061,0.00016347,0.02143331,-0.10763991,0.09659373,0.00087581,-0.000
 62665,0.00039420,-0.00252080,-0.01982044,-0.01980640,-0.05110470,-0.01
 413292,-0.01509938,0.00114170,-0.00026462,-0.00023511,-0.00309037,-0.0
 0217321,-0.00413628,0.00007925,-0.00004572,0.00035838,-0.00004651,0.00
 008438,0.00003070,-0.00017100,0.00066724,-0.00013014,-0.00057753,0.003
 08269,0.00465743,0.05306418,0.00022251,0.00014254,0.00050057,-0.000339
 12,-0.00116218,0.00032591,-0.01380082,-0.17474790,-0.13006031,0.000282
 47,0.00007234,0.00001291,-0.00050201,0.00142771,0.00010053,-0.00017671
 ,0.00013039,0.00000498,-0.00012015,-0.00001005,0.00007519,0.00038564,0
 .00013096,0.00023021,-0.00264723,-0.01789645,-0.02218885,0.01567462,0.
 18716347,0.00063291,-0.00047438,0.00030598,-0.00066398,-0.00906564,-0.
 01099975,-0.01477256,-0.13025246,-0.18374828,0.00093514,0.00031641,0.0
 0023014,-0.00249278,-0.00069018,-0.00080511,0.00006057,0.00025950,0.00
 027647,-0.00004801,-0.00012335,-0.00012203,-0.00050741,0.00074837,0.00
 000093,0.00187362,0.00924739,0.01093678,0.01827285,0.14528520,0.198279
 35,0.00121704,-0.00109397,0.00112022,-0.02211284,-0.00557201,0.0231198
 9,-0.17754205,-0.03273392,0.13185915,-0.00515649,0.00070036,-0.0044335
 2,0.00066778,0.00030311,0.00023967,0.00038884,-0.00022547,-0.00019508,
 -0.00003357,0.00072391,-0.00087585,-0.00003707,-0.00000639,-0.00006712
 ,0.00471265,0.00056855,-0.00528409,0.00295068,0.00143128,-0.00321723,0
 .19573726,0.00079981,-0.00002096,-0.00080117,0.00008562,-0.00166457,-0
 .00175242,-0.03225484,-0.05749121,0.03465979,0.00024223,0.00030037,-0.
 00009023,-0.00076015,-0.00045295,0.00056184,-0.00014743,-0.00000868,-0
 .00004031,0.00036279,0.00004180,0.00043453,0.00006002,-0.00009676,-0.0
 0012902,-0.02169558,-0.00397751,0.02001991,0.01717253,0.00448936,-0.01
 568371,0.03611218,0.05796849,-0.00020709,-0.00072481,0.00063645,-0.011
 33743,-0.00346361,0.00854866,0.13585781,0.03517641,-0.18491178,-0.0024
 7643,0.00036371,-0.00050880,-0.00090021,0.00028681,0.00096950,0.000038
 96,-0.00016903,0.00014706,0.00007217,-0.00010464,-0.00004057,0.0001604
 7,0.00005392,-0.00004951,0.00789224,0.00045967,-0.00891398,0.01505980,
 0.00543376,-0.01488771,-0.14333892,-0.03730615,0.19813783,-0.00358532,
 -0.00047462,0.00308352,0.00366394,-0.02279361,0.00949405,0.00142969,-0
 .00094493,0.00030923,-0.05660070,0.04258465,-0.01981282,-0.00012310,-0
 .00018072,-0.00071585,0.00017700,-0.00000277,0.00020058,0.00051324,-0.
 00121971,0.00075421,-0.00011763,0.00016768,-0.00010659,-0.00083308,0.0
 0041511,0.00018125,-0.00003507,-0.00000846,-0.00008871,0.00028648,0.00
 021644,-0.00007436,0.05931086,-0.00163601,0.00107386,0.00114798,0.0019
 7680,-0.00705786,0.00057815,0.00052555,0.00014203,-0.00049941,0.040241
 27,-0.27294634,0.10036533,0.00015114,0.00130443,-0.00067970,0.00009566
 ,0.00007769,-0.00011826,0.00005922,-0.00018411,0.00039934,0.00009360,0
 .00038819,-0.00015263,-0.00071498,0.00018751,-0.00003682,-0.00005962,-
 0.00010898,0.00012590,-0.00001650,0.00028658,-0.00009545,-0.04394874,0
 .29339924,0.00415507,-0.00010192,-0.00283311,-0.00439458,0.02129575,-0
 .01139159,-0.00138777,-0.00070615,0.00026373,-0.01873887,0.09713628,-0
 .09053513,-0.00027855,0.00083001,-0.00012609,0.00010032,-0.00035597,0.
 00026473,-0.00001833,0.00148664,-0.00033329,0.00004088,0.00021377,0.00
 021166,0.00036114,-0.00020631,0.00047409,0.00000959,-0.00016293,-0.000
 03856,-0.00014008,-0.00022795,-0.00005931,0.01712877,-0.10863194,0.098
 88633,0.00044798,0.00050432,-0.00058620,-0.00028038,0.01530526,0.01492
 860,0.00082209,0.00049871,-0.00003601,-0.04965719,-0.00538571,-0.00471
 801,-0.00109032,0.00116354,0.00409274,-0.00005232,-0.00013382,-0.00004
 550,-0.00008419,0.00011239,-0.00023742,0.00019541,-0.00042040,0.000032
 03,-0.00001666,0.00007377,0.00000185,-0.00088168,-0.00032955,0.0000665
 3,0.00027401,-0.00015782,-0.00022740,-0.00090922,0.00353809,0.00419689
 ,0.04960356,0.00002820,0.00024265,0.00043298,0.00068828,0.00258604,0.0
 0381162,-0.00008757,0.00010231,0.00008653,-0.00573441,-0.17360742,-0.1
 3046596,-0.00010770,0.00180636,0.00093608,0.00013675,-0.00001090,0.000
 03486,0.00012704,0.00018125,-0.00010989,-0.00026886,0.00000872,0.00032
 109,-0.00002620,-0.00007689,-0.00015704,0.00015298,0.00025671,0.000075
 64,0.00018075,0.00009664,0.00016235,-0.00160957,-0.01778066,-0.0223242
 2,0.00665544,0.18584033,-0.00057569,-0.00077072,0.00069987,-0.00131776
 ,-0.01511547,-0.01660836,-0.00116621,-0.00004482,0.00053636,-0.0050640
 8,-0.13097708,-0.18654426,0.00269271,-0.00072019,-0.00318876,0.0000411
 5,-0.00007974,-0.00009832,0.00000610,0.00020205,0.00039959,0.00030084,
 0.00109514,-0.00019050,0.00005478,0.00011037,-0.00006513,0.00051386,0.
 00020494,0.00051283,-0.00008185,0.00030446,0.00012460,0.00051872,0.009
 13391,0.01136793,0.00335046,0.14530142,0.20243897,0.00085728,0.0009961
 7,-0.00098030,-0.02218290,0.00029975,-0.01142507,-0.00211212,-0.001186
 32,0.00494557,-0.27261626,0.00292719,-0.10586464,0.00063990,0.00003430
 ,-0.00022416,0.00042159,-0.00065113,0.00056384,0.00033291,0.00020601,0
 .00012399,-0.00005737,0.00003341,0.00009778,0.00036665,-0.00000048,0.0
 0002972,0.00031603,-0.00007247,-0.00005095,-0.00135271,-0.00003579,-0.
 00051960,-0.00317708,-0.00030548,-0.00103448,0.00162890,-0.00013516,0.
 00072697,0.29693519,-0.00081463,0.00004775,-0.00077086,-0.00562310,-0.
 00168339,-0.00430445,-0.00083409,-0.00002960,0.00108818,0.00226644,-0.
 04900090,0.00241243,0.00110106,-0.00028548,0.00020866,-0.00010939,-0.0
 0011870,0.00072069,0.00020063,0.00007283,-0.00006623,-0.00010107,-0.00
 010952,-0.00007730,-0.00026775,0.00023937,-0.00012040,0.00028873,0.000
 11208,0.00023131,-0.00037189,0.00052938,-0.00007293,0.02779925,0.00121
 842,0.01175493,-0.02142422,0.00035485,-0.00864427,-0.00210998,0.048652
 91,0.00033441,-0.00103183,0.00090299,0.02285594,-0.00090614,0.00874376
 ,0.00294632,0.00129702,-0.00312835,-0.10983233,0.00205933,-0.09869783,
 0.00095829,0.00049554,0.00068361,-0.00030594,0.00011844,-0.00026103,-0
 .00007908,-0.00024571,0.00011032,-0.00015364,0.00002063,-0.00001932,-0
 .00005010,-0.00009400,-0.00009882,0.00011050,0.00023789,0.00005895,0.0
 0129481,0.00005044,0.00080755,-0.01087199,-0.00153641,-0.00615138,-0.0
 2081855,0.00189456,-0.00938481,0.11361134,-0.00235977,0.10643435\\0.00
 008821,0.00000510,0.00000928,-0.00004861,0.00009196,-0.00005146,0.0000
 3302,-0.00001325,-0.00000046,-0.00001928,-0.00002214,-0.00001133,-0.00
 004912,-0.00003398,0.00003525,-0.00002136,0.00000852,0.00004179,-0.000
 03416,-0.00000821,-0.00002016,0.00002738,-0.00003114,0.00000197,0.0000
 1353,0.00004845,0.00000421,0.00000942,0.00001357,-0.00000842,0.0000183
 2,-0.00004260,-0.00001649,0.00004893,-0.00001229,0.00000388,-0.0000114
 8,-0.00001693,0.00000223,-0.00005479,0.00001295,0.00000971\\\@


 THE BEST WAY TO CONVINCE A FOOL THAT HE IS WRONG 
 IS TO LET HIM HAVE HIS OWN WAY.

                                         JOSH BILLINGS
 Job cpu time:       0 days  0 hours  2 minutes 57.5 seconds.
 File lengths (MBytes):  RWF=    133 Int=      0 D2E=      0 Chk=      3 Scr=      2
 Normal termination of Gaussian 09 at Mon Mar 17 18:41:56 2025.
