 Entering Gaussian System, Link 0=g09
 Initial command:
 /apps/z_install_tree/linux-rocky8-ivybridge/gcc-12.2.0/gaussian-09-D.01-wczn3gur5lpur3omlkzwa2l5ecyxp5ef/g09/l1.exe "/srv/scratch/z5358697/gauss/Gau-2203633.inp" -scrdir="/srv/scratch/z5358697/gauss/"
 Entering Link 1 = /apps/z_install_tree/linux-rocky8-ivybridge/gcc-12.2.0/gaussian-09-D.01-wczn3gur5lpur3omlkzwa2l5ecyxp5ef/g09/l1.exe PID=   2203635.
  
 Copyright (c) 1988,1990,1992,1993,1995,1998,2003,2009,2013,
            Gaussian, Inc.  All Rights Reserved.
  
 This is part of the Gaussian(R) 09 program.  It is based on
 the Gaussian(R) 03 system (copyright 2003, Gaussian, Inc.),
 the Gaussian(R) 98 system (copyright 1998, Gaussian, Inc.),
 the Gaussian(R) 94 system (copyright 1995, Gaussian, Inc.),
 the Gaussian 92(TM) system (copyright 1992, Gaussian, Inc.),
 the Gaussian 90(TM) system (copyright 1990, Gaussian, Inc.),
 the Gaussian 88(TM) system (copyright 1988, Gaussian, Inc.),
 the Gaussian 86(TM) system (copyright 1986, Carnegie Mellon
 University), and the Gaussian 82(TM) system (copyright 1983,
 Carnegie Mellon University). Gaussian is a federally registered
 trademark of Gaussian, Inc.
  
 This software contains proprietary and confidential information,
 including trade secrets, belonging to Gaussian, Inc.
  
 This software is provided under written license and may be
 used, copied, transmitted, or stored only in accord with that
 written license.
  
 The following legend is applicable only to US Government
 contracts under FAR:
  
                    RESTRICTED RIGHTS LEGEND
  
 Use, reproduction and disclosure by the US Government is
 subject to restrictions as set forth in subparagraphs (a)
 and (c) of the Commercial Computer Software - Restricted
 Rights clause in FAR 52.227-19.
  
 Gaussian, Inc.
 340 Quinnipiac St., Bldg. 40, Wallingford CT 06492
  
  
 ---------------------------------------------------------------
 Warning -- This program may not be used in any manner that
 competes with the business of Gaussian, Inc. or will provide
 assistance to any competitor of Gaussian, Inc.  The licensee
 of this program is prohibited from giving any competitor of
 Gaussian, Inc. access to this program.  By using this program,
 the user acknowledges that Gaussian, Inc. is engaged in the
 business of creating and licensing software in the field of
 computational chemistry and represents and warrants to the
 licensee that it is not a competitor of Gaussian, Inc. and that
 it will not use this program in any manner prohibited above.
 ---------------------------------------------------------------
  

 Cite this work as:
 Gaussian 09, Revision D.01,
 M. J. Frisch, G. W. Trucks, H. B. Schlegel, G. E. Scuseria, 
 M. A. Robb, J. R. Cheeseman, G. Scalmani, V. Barone, B. Mennucci, 
 G. A. Petersson, H. Nakatsuji, M. Caricato, X. Li, H. P. Hratchian, 
 A. F. Izmaylov, J. Bloino, G. Zheng, J. L. Sonnenberg, M. Hada, 
 M. Ehara, K. Toyota, R. Fukuda, J. Hasegawa, M. Ishida, T. Nakajima, 
 Y. Honda, O. Kitao, H. Nakai, T. Vreven, J. A. Montgomery, Jr., 
 J. E. Peralta, F. Ogliaro, M. Bearpark, J. J. Heyd, E. Brothers, 
 K. N. Kudin, V. N. Staroverov, T. Keith, R. Kobayashi, J. Normand, 
 K. Raghavachari, A. Rendell, J. C. Burant, S. S. Iyengar, J. Tomasi, 
 M. Cossi, N. Rega, J. M. Millam, M. Klene, J. E. Knox, J. B. Cross, 
 V. Bakken, C. Adamo, J. Jaramillo, R. Gomperts, R. E. Stratmann, 
 O. Yazyev, A. J. Austin, R. Cammi, C. Pomelli, J. W. Ochterski, 
 R. L. Martin, K. Morokuma, V. G. Zakrzewski, G. A. Voth, 
 P. Salvador, J. J. Dannenberg, S. Dapprich, A. D. Daniels, 
 O. Farkas, J. B. Foresman, J. V. Ortiz, J. Cioslowski, 
 and D. J. Fox, Gaussian, Inc., Wallingford CT, 2013.
 
 ******************************************
 Gaussian 09:  ES64L-G09RevD.01 24-Apr-2013
                17-Mar-2025 
 ******************************************
 ---------------------------------
 #m062X/6-31+G(d) OPT Freq=noraman
 ---------------------------------
 1/14=-1,18=20,19=15,26=3,38=1/1,3;
 2/9=110,12=2,17=6,18=5,40=1/2;
 3/5=1,6=6,7=11,11=2,16=1,25=1,30=1,71=1,74=-55/1,2,3;
 4//1;
 5/5=2,38=5/2;
 6/7=2,8=2,9=2,10=2,28=1/1;
 7//1,2,3,16;
 1/14=-1,18=20,19=15,26=3/3(2);
 2/9=110/2;
 99//99;
 2/9=110/2;
 3/5=1,6=6,7=11,11=2,16=1,25=1,30=1,71=1,74=-55/1,2,3;
 4/5=5,16=3,69=1/1;
 5/5=2,38=5/2;
 7//1,2,3,16;
 1/14=-1,18=20,19=15,26=3/3(-5);
 2/9=110/2;
 6/7=2,8=2,9=2,10=2,19=2,28=1/1;
 99/9=1/99;
 -------------------------------------------
 5-(trifluoromethyl)-1H-pyrimidine-2,4-dione
 -------------------------------------------
 Symbolic Z-matrix:
 Charge =  0 Multiplicity = 1
 C                     1.1618    1.5074    2.5831 
 C                     0.7828    0.3892    1.9521 
 C                     1.5361   -0.8685    2.2312 
 O                     1.2394   -1.9284    1.6861 
 N                     2.578    -0.7394    3.1411 
 C                     2.9645    0.4331    3.7937 
 O                     3.9018    0.4728    4.5912 
 N                     2.2042    1.5449    3.4677 
 C                    -0.3527    0.329     0.9824 
 F                    -0.931     1.5398    0.836 
 F                     0.0668   -0.0757   -0.235 
 F                    -1.305    -0.5337    1.396 
 H                     0.661     2.456     2.4288 
 H                     3.1104   -1.5787    3.3526 
 H                     2.4248    2.436     3.9024 
 

 GradGradGradGradGradGradGradGradGradGradGradGradGradGradGradGradGradGrad
 Berny optimization.
 Initialization pass.
                           ----------------------------
                           !    Initial Parameters    !
                           ! (Angstroms and Degrees)  !
 --------------------------                            --------------------------
 ! Name  Definition              Value          Derivative Info.                !
 --------------------------------------------------------------------------------
 ! R1    R(1,2)                  1.3387         estimate D2E/DX2                !
 ! R2    R(1,8)                  1.3677         estimate D2E/DX2                !
 ! R3    R(1,13)                 1.0837         estimate D2E/DX2                !
 ! R4    R(2,3)                  1.4924         estimate D2E/DX2                !
 ! R5    R(2,9)                  1.4944         estimate D2E/DX2                !
 ! R6    R(3,4)                  1.2282         estimate D2E/DX2                !
 ! R7    R(3,5)                  1.3893         estimate D2E/DX2                !
 ! R8    R(5,6)                  1.3964         estimate D2E/DX2                !
 ! R9    R(5,14)                 1.0162         estimate D2E/DX2                !
 ! R10   R(6,7)                  1.2313         estimate D2E/DX2                !
 ! R11   R(6,8)                  1.3858         estimate D2E/DX2                !
 ! R12   R(8,15)                 1.0157         estimate D2E/DX2                !
 ! R13   R(9,10)                 1.3498         estimate D2E/DX2                !
 ! R14   R(9,11)                 1.3498         estimate D2E/DX2                !
 ! R15   R(9,12)                 1.3499         estimate D2E/DX2                !
 ! A1    A(2,1,8)              122.925          estimate D2E/DX2                !
 ! A2    A(2,1,13)             122.2215         estimate D2E/DX2                !
 ! A3    A(8,1,13)             114.8534         estimate D2E/DX2                !
 ! A4    A(1,2,3)              118.2213         estimate D2E/DX2                !
 ! A5    A(1,2,9)              123.6835         estimate D2E/DX2                !
 ! A6    A(3,2,9)              118.0952         estimate D2E/DX2                !
 ! A7    A(2,3,4)              121.4878         estimate D2E/DX2                !
 ! A8    A(2,3,5)              115.0066         estimate D2E/DX2                !
 ! A9    A(4,3,5)              123.5056         estimate D2E/DX2                !
 ! A10   A(3,5,6)              126.2753         estimate D2E/DX2                !
 ! A11   A(3,5,14)             116.9031         estimate D2E/DX2                !
 ! A12   A(6,5,14)             116.8217         estimate D2E/DX2                !
 ! A13   A(5,6,7)              122.714          estimate D2E/DX2                !
 ! A14   A(5,6,8)              114.3205         estimate D2E/DX2                !
 ! A15   A(7,6,8)              122.9655         estimate D2E/DX2                !
 ! A16   A(1,8,6)              123.2513         estimate D2E/DX2                !
 ! A17   A(1,8,15)             117.8007         estimate D2E/DX2                !
 ! A18   A(6,8,15)             118.948          estimate D2E/DX2                !
 ! A19   A(2,9,10)             111.0869         estimate D2E/DX2                !
 ! A20   A(2,9,11)             111.1726         estimate D2E/DX2                !
 ! A21   A(2,9,12)             111.2822         estimate D2E/DX2                !
 ! A22   A(10,9,11)            107.7156         estimate D2E/DX2                !
 ! A23   A(10,9,12)            107.7142         estimate D2E/DX2                !
 ! A24   A(11,9,12)            107.6974         estimate D2E/DX2                !
 ! D1    D(8,1,2,3)             -0.0101         estimate D2E/DX2                !
 ! D2    D(8,1,2,9)           -179.9767         estimate D2E/DX2                !
 ! D3    D(13,1,2,3)           179.9877         estimate D2E/DX2                !
 ! D4    D(13,1,2,9)             0.021          estimate D2E/DX2                !
 ! D5    D(2,1,8,6)              0.0053         estimate D2E/DX2                !
 ! D6    D(2,1,8,15)          -179.9937         estimate D2E/DX2                !
 ! D7    D(13,1,8,6)          -179.9926         estimate D2E/DX2                !
 ! D8    D(13,1,8,15)            0.0084         estimate D2E/DX2                !
 ! D9    D(1,2,3,4)            179.9764         estimate D2E/DX2                !
 ! D10   D(1,2,3,5)              0.0111         estimate D2E/DX2                !
 ! D11   D(9,2,3,4)             -0.0551         estimate D2E/DX2                !
 ! D12   D(9,2,3,5)            179.9796         estimate D2E/DX2                !
 ! D13   D(1,2,9,10)             0.0001         estimate D2E/DX2                !
 ! D14   D(1,2,9,11)           119.9402         estimate D2E/DX2                !
 ! D15   D(1,2,9,12)          -120.0116         estimate D2E/DX2                !
 ! D16   D(3,2,9,10)          -179.9666         estimate D2E/DX2                !
 ! D17   D(3,2,9,11)           -60.0264         estimate D2E/DX2                !
 ! D18   D(3,2,9,12)            60.0217         estimate D2E/DX2                !
 ! D19   D(2,3,5,6)             -0.0083         estimate D2E/DX2                !
 ! D20   D(2,3,5,14)           179.9838         estimate D2E/DX2                !
 ! D21   D(4,3,5,6)           -179.9728         estimate D2E/DX2                !
 ! D22   D(4,3,5,14)             0.0193         estimate D2E/DX2                !
 ! D23   D(3,5,6,7)            179.985          estimate D2E/DX2                !
 ! D24   D(3,5,6,8)              0.0036         estimate D2E/DX2                !
 ! D25   D(14,5,6,7)            -0.0071         estimate D2E/DX2                !
 ! D26   D(14,5,6,8)          -179.9885         estimate D2E/DX2                !
 ! D27   D(5,6,8,1)             -0.0015         estimate D2E/DX2                !
 ! D28   D(5,6,8,15)           179.9975         estimate D2E/DX2                !
 ! D29   D(7,6,8,1)           -179.9828         estimate D2E/DX2                !
 ! D30   D(7,6,8,15)             0.0162         estimate D2E/DX2                !
 --------------------------------------------------------------------------------
 Trust Radius=3.00D-01 FncErr=1.00D-07 GrdErr=1.00D-06
 Number of steps in this run=     79 maximum allowed number of steps=    100.
 GradGradGradGradGradGradGradGradGradGradGradGradGradGradGradGradGradGrad

                          Input orientation:                          
 ---------------------------------------------------------------------
 Center     Atomic      Atomic             Coordinates (Angstroms)
 Number     Number       Type             X           Y           Z
 ---------------------------------------------------------------------
      1          6           0        1.161800    1.507400    2.583100
      2          6           0        0.782800    0.389200    1.952100
      3          6           0        1.536100   -0.868500    2.231200
      4          8           0        1.239400   -1.928400    1.686100
      5          7           0        2.578000   -0.739400    3.141100
      6          6           0        2.964500    0.433100    3.793700
      7          8           0        3.901800    0.472800    4.591200
      8          7           0        2.204200    1.544900    3.467700
      9          6           0       -0.352700    0.329000    0.982400
     10          9           0       -0.931000    1.539800    0.836000
     11          9           0        0.066800   -0.075700   -0.235000
     12          9           0       -1.305000   -0.533700    1.396000
     13          1           0        0.661000    2.456000    2.428800
     14          1           0        3.110400   -1.578700    3.352600
     15          1           0        2.424800    2.436000    3.902400
 ---------------------------------------------------------------------
                    Distance matrix (angstroms):
                    1          2          3          4          5
     1  C    0.000000
     2  C    1.338721   0.000000
     3  C    2.430810   1.492370   0.000000
     4  O    3.551810   2.377080   1.228232   0.000000
     5  N    2.713871   2.431091   1.389295   2.307075   0.000000
     6  C    2.422684   2.855387   2.485135   3.604807   1.396433
     7  O    3.551121   4.086563   3.600725   4.614514   2.307524
     8  N    1.367670   2.377617   2.792810   4.021038   2.337610
     9  C    2.498915   1.494424   2.561459   2.850584   3.793477
    10  F    2.726393   2.346629   3.719284   4.178722   4.777166
    11  F    3.412758   2.347806   2.978173   2.915152   4.259657
    12  F    3.414732   2.349447   2.980184   2.916045   4.262086
    13  H    1.083721   2.124557   3.443421   4.484319   3.793790
    14  H    3.730038   3.354363   2.059209   2.529852   1.016172
    15  H    2.048907   3.269438   3.808204   5.036382   3.268977
                    6          7          8          9         10
     6  C    0.000000
     7  O    1.231306   0.000000
     8  N    1.385796   2.300760   0.000000
     9  C    4.349490   5.580760   3.767342   0.000000
    10  F    5.014748   6.212566   4.093330   1.349778   0.000000
    11  F    4.988584   6.188722   4.572178   1.349750   2.180020
    12  F    4.991222   6.191374   4.574604   1.349886   2.180110
    13  H    3.355769   4.371709   2.071445   2.764740   2.431234
    14  H    2.064751   2.523707   3.254431   4.609797   5.691330
    15  H    2.077186   2.551495   1.015720   4.547566   4.633290
                   11         12         13         14         15
    11  F    0.000000
    12  F    2.179853   0.000000
    13  H    3.722688   3.724263   0.000000
    14  H    4.938966   4.941262   4.809550   0.000000
    15  H    5.383946   5.386332   2.298453   4.109762   0.000000
 Stoichiometry    C5H3F3N2O2
 Framework group  C1[X(C5H3F3N2O2)]
 Deg. of freedom    39
 Full point group                 C1      NOp   1
 Largest Abelian subgroup         C1      NOp   1
 Largest concise Abelian subgroup C1      NOp   1
                         Standard orientation:                         
 ---------------------------------------------------------------------
 Center     Atomic      Atomic             Coordinates (Angstroms)
 Number     Number       Type             X           Y           Z
 ---------------------------------------------------------------------
      1          6           0        0.388565   -1.341148   -0.000459
      2          6           0       -0.351049   -0.225288   -0.000456
      3          6           0        0.355125    1.089431    0.000000
      4          8           0       -0.264009    2.150198   -0.000405
      5          7           0        1.742206    1.011032    0.000138
      6          6           0        2.503581   -0.159580    0.000056
      7          8           0        3.734867   -0.152568   -0.000082
      8          7           0        1.756157   -1.326536   -0.000267
      9          6           0       -1.845468   -0.221472   -0.000159
     10          9           0       -2.334310   -1.479619    0.000102
     11          9           0       -2.331147    0.408093    1.090524
     12          9           0       -2.334033    0.408772   -1.089328
     13          1           0       -0.056390   -2.329312   -0.000579
     14          1           0        2.252410    1.889837    0.000191
     15          1           0        2.239458   -2.219905   -0.000384
 ---------------------------------------------------------------------
 Rotational constants (GHZ):      1.9612708      0.6351629      0.5247573
 Standard basis: 6-31+G(d) (6D, 7F)
 There are   234 symmetry adapted cartesian basis functions of A   symmetry.
 There are   234 symmetry adapted basis functions of A   symmetry.
   234 basis functions,   396 primitive gaussians,   234 cartesian basis functions
    45 alpha electrons       45 beta electrons
       nuclear repulsion energy       742.7896333793 Hartrees.
 NAtoms=   15 NActive=   15 NUniq=   15 SFac= 1.00D+00 NAtFMM=   60 NAOKFM=F Big=F
 Integral buffers will be    131072 words long.
 Raffenetti 2 integral format.
 Two-electron integral symmetry is turned on.
 One-electron integrals computed using PRISM.
 NBasis=   234 RedAO= T EigKep=  7.64D-06  NBF=   234
 NBsUse=   234 1.00D-06 EigRej= -1.00D+00 NBFU=   234
 ExpMin= 4.38D-02 ExpMax= 7.00D+03 ExpMxC= 1.05D+03 IAcc=2 IRadAn=         4 AccDes= 0.00D+00
 Harris functional with IExCor= 1009 and IRadAn=       4 diagonalized for initial guess.
 HarFok:  IExCor= 1009 AccDes= 0.00D+00 IRadAn=         4 IDoV= 1 UseB2=F ITyADJ=14
 ICtDFT=  3500011 ScaDFX=  1.000000  1.000000  1.000000  1.000000
 FoFCou: FMM=F IPFlag=           0 FMFlag=      100000 FMFlg1=           0
         NFxFlg=           0 DoJE=T BraDBF=F KetDBF=T FulRan=T
         wScrn=  0.000000 ICntrl=     500 IOpCl=  0 I1Cent=   200000004 NGrid=           0
         NMat0=    1 NMatS0=      1 NMatT0=    0 NMatD0=    1 NMtDS0=    0 NMtDT0=    0
 Petite list used in FoFCou.
 Requested convergence on RMS density matrix=1.00D-08 within 128 cycles.
 Requested convergence on MAX density matrix=1.00D-06.
 Requested convergence on             energy=1.00D-06.
 No special actions if energy rises.
 SCF Done:  E(RM062X) =  -751.616670672     A.U. after   14 cycles
            NFock= 14  Conv=0.94D-08     -V/T= 2.0081

 **********************************************************************

            Population analysis using the SCF density.

 **********************************************************************

 Orbital symmetries:
       Occupied  (A) (A) (A) (A) (A) (A) (A) (A) (A) (A) (A) (A)
                 (A) (A) (A) (A) (A) (A) (A) (A) (A) (A) (A) (A)
                 (A) (A) (A) (A) (A) (A) (A) (A) (A) (A) (A) (A)
                 (A) (A) (A) (A) (A) (A) (A) (A) (A)
       Virtual   (A) (A) (A) (A) (A) (A) (A) (A) (A) (A) (A) (A)
                 (A) (A) (A) (A) (A) (A) (A) (A) (A) (A) (A) (A)
                 (A) (A) (A) (A) (A) (A) (A) (A) (A) (A) (A) (A)
                 (A) (A) (A) (A) (A) (A) (A) (A) (A) (A) (A) (A)
                 (A) (A) (A) (A) (A) (A) (A) (A) (A) (A) (A) (A)
                 (A) (A) (A) (A) (A) (A) (A) (A) (A) (A) (A) (A)
                 (A) (A) (A) (A) (A) (A) (A) (A) (A) (A) (A) (A)
                 (A) (A) (A) (A) (A) (A) (A) (A) (A) (A) (A) (A)
                 (A) (A) (A) (A) (A) (A) (A) (A) (A) (A) (A) (A)
                 (A) (A) (A) (A) (A) (A) (A) (A) (A) (A) (A) (A)
                 (A) (A) (A) (A) (A) (A) (A) (A) (A) (A) (A) (A)
                 (A) (A) (A) (A) (A) (A) (A) (A) (A) (A) (A) (A)
                 (A) (A) (A) (A) (A) (A) (A) (A) (A) (A) (A) (A)
                 (A) (A) (A) (A) (A) (A) (A) (A) (A) (A) (A) (A)
                 (A) (A) (A) (A) (A) (A) (A) (A) (A) (A) (A) (A)
                 (A) (A) (A) (A) (A) (A) (A) (A) (A)
 The electronic state is 1-A.
 Alpha  occ. eigenvalues --  -25.31984 -25.30605 -25.30601 -19.66163 -19.65515
 Alpha  occ. eigenvalues --  -14.87106 -14.85336 -10.83254 -10.74585 -10.71022
 Alpha  occ. eigenvalues --  -10.67048 -10.61375  -1.47353  -1.38673  -1.37755
 Alpha  occ. eigenvalues --   -1.22898  -1.19392  -1.12747  -1.07188  -0.95708
 Alpha  occ. eigenvalues --   -0.84411  -0.80515  -0.78451  -0.73713  -0.70911
 Alpha  occ. eigenvalues --   -0.69768  -0.66632  -0.64274  -0.63354  -0.59462
 Alpha  occ. eigenvalues --   -0.58055  -0.57896  -0.57531  -0.54400  -0.54091
 Alpha  occ. eigenvalues --   -0.53961  -0.51877  -0.51783  -0.50642  -0.49392
 Alpha  occ. eigenvalues --   -0.47010  -0.40064  -0.37797  -0.36957  -0.34195
 Alpha virt. eigenvalues --   -0.03924  -0.01841   0.00726   0.00980   0.02466
 Alpha virt. eigenvalues --    0.02601   0.03919   0.05426   0.05519   0.06446
 Alpha virt. eigenvalues --    0.07406   0.08128   0.08681   0.10417   0.10453
 Alpha virt. eigenvalues --    0.11789   0.12204   0.12461   0.13320   0.13888
 Alpha virt. eigenvalues --    0.14462   0.15594   0.16793   0.17317   0.17947
 Alpha virt. eigenvalues --    0.18930   0.20251   0.20909   0.21759   0.22032
 Alpha virt. eigenvalues --    0.22978   0.24042   0.24235   0.25562   0.26362
 Alpha virt. eigenvalues --    0.26756   0.27737   0.27751   0.28873   0.29913
 Alpha virt. eigenvalues --    0.30618   0.31380   0.32060   0.32507   0.32644
 Alpha virt. eigenvalues --    0.33930   0.35098   0.36105   0.37214   0.37349
 Alpha virt. eigenvalues --    0.38161   0.38522   0.39182   0.40197   0.41127
 Alpha virt. eigenvalues --    0.42542   0.43596   0.44491   0.45314   0.46380
 Alpha virt. eigenvalues --    0.46751   0.47338   0.52284   0.56368   0.57497
 Alpha virt. eigenvalues --    0.61086   0.67456   0.73095   0.73587   0.74400
 Alpha virt. eigenvalues --    0.76677   0.79273   0.81651   0.83941   0.84959
 Alpha virt. eigenvalues --    0.85264   0.88008   0.91941   0.93500   0.94369
 Alpha virt. eigenvalues --    0.94380   0.99257   1.01604   1.07809   1.09655
 Alpha virt. eigenvalues --    1.12193   1.15110   1.15816   1.19567   1.20520
 Alpha virt. eigenvalues --    1.22071   1.26731   1.29576   1.30553   1.32367
 Alpha virt. eigenvalues --    1.34231   1.35383   1.36739   1.39123   1.39655
 Alpha virt. eigenvalues --    1.40935   1.42776   1.43750   1.45412   1.46484
 Alpha virt. eigenvalues --    1.47380   1.49804   1.55140   1.56358   1.62611
 Alpha virt. eigenvalues --    1.65082   1.66152   1.67467   1.69962   1.70029
 Alpha virt. eigenvalues --    1.71346   1.73577   1.73725   1.73853   1.76529
 Alpha virt. eigenvalues --    1.77748   1.79475   1.81608   1.82209   1.83432
 Alpha virt. eigenvalues --    1.85068   1.87727   1.88405   1.89263   1.91763
 Alpha virt. eigenvalues --    1.92240   1.94150   1.95176   1.97083   1.97633
 Alpha virt. eigenvalues --    2.00237   2.05651   2.06313   2.09747   2.10396
 Alpha virt. eigenvalues --    2.10491   2.11698   2.12922   2.13127   2.15821
 Alpha virt. eigenvalues --    2.17792   2.18629   2.25367   2.26919   2.27887
 Alpha virt. eigenvalues --    2.28823   2.31594   2.36422   2.38006   2.48204
 Alpha virt. eigenvalues --    2.49093   2.51812   2.59636   2.60395   2.63049
 Alpha virt. eigenvalues --    2.67788   2.68240   2.73551   2.80430   2.80761
 Alpha virt. eigenvalues --    2.83294   2.85534   2.94444   2.95632   3.04790
 Alpha virt. eigenvalues --    3.15006   3.16747   3.21053   3.23374   3.28637
 Alpha virt. eigenvalues --    3.34067   3.41903   4.12819   4.18717   4.29498
 Alpha virt. eigenvalues --    4.34391   4.37194   4.50847   4.63214   4.71642
 Alpha virt. eigenvalues --    4.89463   5.56616   5.94639   6.91878
          Condensed to atoms (all electrons):
               1          2          3          4          5          6
     1  C   10.967800  -2.896770  -1.207581  -0.054773   0.184737  -0.409416
     2  C   -2.896770  10.048459  -1.160681  -0.238561  -0.237015   0.483453
     3  C   -1.207581  -1.160681   8.012816   0.478222  -0.068783  -0.374782
     4  O   -0.054773  -0.238561   0.478222   8.252002  -0.111526   0.039759
     5  N    0.184737  -0.237015  -0.068783  -0.111526   7.784615   0.175216
     6  C   -0.409416   0.483453  -0.374782   0.039759   0.175216   4.853903
     7  O    0.092489  -0.062542   0.028765   0.001592  -0.072687   0.372098
     8  N   -0.266600   0.127426   0.104705  -0.000859  -0.205753   0.276647
     9  C   -0.366557  -0.426734  -0.141557   0.085845   0.026680  -0.084163
    10  F    0.001936  -0.040119   0.015905   0.000846  -0.001421   0.001217
    11  F   -0.020576   0.066866  -0.050913   0.002038   0.000241   0.005014
    12  F   -0.020193   0.068178  -0.051622   0.002117   0.000250   0.005044
    13  H    0.454311  -0.069087  -0.034153  -0.000560  -0.000323   0.000508
    14  H   -0.020881   0.050386  -0.033703   0.003617   0.255150  -0.012508
    15  H   -0.070226   0.050543  -0.011574   0.000142   0.010579  -0.004684
               7          8          9         10         11         12
     1  C    0.092489  -0.266600  -0.366557   0.001936  -0.020576  -0.020193
     2  C   -0.062542   0.127426  -0.426734  -0.040119   0.066866   0.068178
     3  C    0.028765   0.104705  -0.141557   0.015905  -0.050913  -0.051622
     4  O    0.001592  -0.000859   0.085845   0.000846   0.002038   0.002117
     5  N   -0.072687  -0.205753   0.026680  -0.001421   0.000241   0.000250
     6  C    0.372098   0.276647  -0.084163   0.001217   0.005014   0.005044
     7  O    8.256918  -0.109836  -0.003688  -0.000036  -0.000016  -0.000017
     8  N   -0.109836   7.402425   0.055286  -0.000380   0.001412   0.001398
     9  C   -0.003688   0.055286   5.495375   0.150457   0.128747   0.128257
    10  F   -0.000036  -0.000380   0.150457   9.301486  -0.043544  -0.043668
    11  F   -0.000016   0.001412   0.128747  -0.043544   9.237001  -0.060694
    12  F   -0.000017   0.001398   0.128257  -0.043668  -0.060694   9.236533
    13  H   -0.000354  -0.053313   0.007937   0.008109   0.000088   0.000086
    14  H    0.000981   0.011774   0.004771   0.000008   0.000007   0.000007
    15  H    0.001177   0.274994   0.005942   0.000036   0.000009   0.000009
              13         14         15
     1  C    0.454311  -0.020881  -0.070226
     2  C   -0.069087   0.050386   0.050543
     3  C   -0.034153  -0.033703  -0.011574
     4  O   -0.000560   0.003617   0.000142
     5  N   -0.000323   0.255150   0.010579
     6  C    0.000508  -0.012508  -0.004684
     7  O   -0.000354   0.000981   0.001177
     8  N   -0.053313   0.011774   0.274994
     9  C    0.007937   0.004771   0.005942
    10  F    0.008109   0.000008   0.000036
    11  F    0.000088   0.000007   0.000009
    12  F    0.000086   0.000007   0.000009
    13  H    0.422933   0.000013  -0.003530
    14  H    0.000013   0.252894  -0.000062
    15  H   -0.003530  -0.000062   0.264822
 Mulliken charges:
               1
     1  C   -0.367701
     2  C    0.236199
     3  C    0.494936
     4  O   -0.459902
     5  N   -0.739960
     6  C    0.672693
     7  O   -0.504843
     8  N   -0.619328
     9  C    0.933402
    10  F   -0.350833
    11  F   -0.265681
    12  F   -0.265685
    13  H    0.267336
    14  H    0.487543
    15  H    0.481823
 Sum of Mulliken charges =   0.00000
 Mulliken charges with hydrogens summed into heavy atoms:
               1
     1  C   -0.100366
     2  C    0.236199
     3  C    0.494936
     4  O   -0.459902
     5  N   -0.252416
     6  C    0.672693
     7  O   -0.504843
     8  N   -0.137504
     9  C    0.933402
    10  F   -0.350833
    11  F   -0.265681
    12  F   -0.265685
 Electronic spatial extent (au):  <R**2>=           1962.5825
 Charge=              0.0000 electrons
 Dipole moment (field-independent basis, Debye):
    X=              1.7213    Y=             -4.2161    Z=             -0.0007  Tot=              4.5539
 Quadrupole moment (field-independent basis, Debye-Ang):
   XX=            -82.1668   YY=            -60.8081   ZZ=            -67.1769
   XY=              1.1869   XZ=              0.0012   YZ=              0.0042
 Traceless Quadrupole moment (field-independent basis, Debye-Ang):
   XX=            -12.1162   YY=              9.2425   ZZ=              2.8737
   XY=              1.1869   XZ=              0.0012   YZ=              0.0042
 Octapole moment (field-independent basis, Debye-Ang**2):
  XXX=            -90.9928  YYY=            -33.1311  ZZZ=              0.0072  XYY=             18.7359
  XXY=              4.0380  XXZ=              0.0076  XZZ=             -8.3296  YZZ=              0.4445
  YYZ=              0.0029  XYZ=              0.0012
 Hexadecapole moment (field-independent basis, Debye-Ang**3):
 XXXX=          -1924.7236 YYYY=           -492.0640 ZZZZ=           -130.0645 XXXY=             15.1607
 XXXZ=             -0.0148 YYYX=             -4.3466 YYYZ=              0.0188 ZZZX=              0.0049
 ZZZY=             -0.0051 XXYY=           -303.1868 XXZZ=           -292.5673 YYZZ=           -110.8688
 XXYZ=              0.0076 YYXZ=             -0.0054 ZZXY=              3.6308
 N-N= 7.427896333793D+02 E-N=-3.252685059766D+03  KE= 7.455683680736D+02
 Calling FoFJK, ICntrl=      2127 FMM=F ISym2X=0 I1Cent= 0 IOpClX= 0 NMat=1 NMatS=1 NMatT=0.
 ***** Axes restored to original set *****
 -------------------------------------------------------------------
 Center     Atomic                   Forces (Hartrees/Bohr)
 Number     Number              X              Y              Z
 -------------------------------------------------------------------
      1        6          -0.004906672    0.009169641   -0.001536465
      2        6           0.013836065   -0.014859209    0.007583248
      3        6          -0.025598964   -0.013932037   -0.025240768
      4        8           0.014307047    0.018345616    0.017082961
      5        7          -0.002313604    0.012779947    0.001604046
      6        6           0.029469741   -0.007291058    0.022737725
      7        8          -0.026180859    0.000022701   -0.021983827
      8        7          -0.004166770    0.000164916   -0.003474495
      9        6           0.000094290   -0.008236540   -0.002320639
     10        9           0.001243242   -0.004121223   -0.000068948
     11        9          -0.006084840    0.004421510    0.007997703
     12        9           0.005348675    0.008299418   -0.005206994
     13        1          -0.001250220    0.000879170   -0.000789953
     14        1           0.000794507    0.001402860    0.001058641
     15        1           0.005408361   -0.007045711    0.002557765
 -------------------------------------------------------------------
 Cartesian Forces:  Max     0.029469741 RMS     0.011678029

 GradGradGradGradGradGradGradGradGradGradGradGradGradGradGradGradGradGrad
 Berny optimization.
 FormGI is forming the generalized inverse of G from B-inverse, IUseBI=4.
 GSVD:  received Info=                   1 from GESDD.
 Internal  Forces:  Max     0.034167447 RMS     0.006838213
 Search for a local minimum.
 Step number   1 out of a maximum of   79
 All quantities printed in internal units (Hartrees-Bohrs-Radians)
 Mixed Optimization -- RFO/linear search
 Second derivative matrix not updated -- first step.
 ITU=  0
     Eigenvalues ---    0.00840   0.01282   0.01488   0.01537   0.01782
     Eigenvalues ---    0.01821   0.01858   0.02003   0.02328   0.02575
     Eigenvalues ---    0.11029   0.11061   0.16000   0.16000   0.16000
     Eigenvalues ---    0.22354   0.23456   0.24542   0.25000   0.25000
     Eigenvalues ---    0.25000   0.25000   0.25000   0.25000   0.32570
     Eigenvalues ---    0.32969   0.35548   0.43592   0.44954   0.45028
     Eigenvalues ---    0.45430   0.47415   0.50397   0.55046   0.55069
     Eigenvalues ---    0.55075   0.55989   0.90545   0.91827
 RFO step:  Lambda=-6.67741788D-03 EMin= 8.39710379D-03
 Linear search not attempted -- first point.
 Iteration  1 RMS(Cart)=  0.02506903 RMS(Int)=  0.00056643
 Iteration  2 RMS(Cart)=  0.00064702 RMS(Int)=  0.00007482
 Iteration  3 RMS(Cart)=  0.00000030 RMS(Int)=  0.00007481
 Variable       Old X    -DE/DX   Delta X   Delta X   Delta X     New X
                                 (Linear)    (Quad)   (Total)
    R1        2.52982   0.00562   0.00000   0.01088   0.01089   2.54071
    R2        2.58452   0.00274   0.00000   0.00631   0.00630   2.59082
    R3        2.04794   0.00146   0.00000   0.00404   0.00404   2.05198
    R4        2.82017  -0.01183   0.00000  -0.03448  -0.03446   2.78571
    R5        2.82405  -0.00073   0.00000  -0.00217  -0.00217   2.82188
    R6        2.32102  -0.02687   0.00000  -0.02905  -0.02905   2.29197
    R7        2.62539   0.00129   0.00000   0.00147   0.00147   2.62686
    R8        2.63888  -0.01072   0.00000  -0.02436  -0.02437   2.61451
    R9        1.92029  -0.00053   0.00000  -0.00115  -0.00115   1.91913
   R10        2.32683  -0.03417   0.00000  -0.03746  -0.03746   2.28937
   R11        2.61878  -0.00306   0.00000  -0.00648  -0.00650   2.61227
   R12        1.91943  -0.00391   0.00000  -0.00855  -0.00855   1.91088
   R13        2.55071  -0.00424   0.00000  -0.00760  -0.00760   2.54311
   R14        2.55066  -0.01042   0.00000  -0.01870  -0.01870   2.53196
   R15        2.55091  -0.01066   0.00000  -0.01914  -0.01914   2.53177
    A1        2.14545  -0.00596   0.00000  -0.02116  -0.02116   2.12429
    A2        2.13317   0.00203   0.00000   0.00488   0.00488   2.13805
    A3        2.00457   0.00393   0.00000   0.01628   0.01628   2.02085
    A4        2.06335   0.00452   0.00000   0.02085   0.02088   2.08423
    A5        2.15868  -0.00638   0.00000  -0.02648  -0.02649   2.13219
    A6        2.06115   0.00186   0.00000   0.00563   0.00562   2.06677
    A7        2.12036   0.01463   0.00000   0.05801   0.05799   2.17836
    A8        2.00724  -0.00475   0.00000  -0.02053  -0.02050   1.98675
    A9        2.15558  -0.00988   0.00000  -0.03748  -0.03750   2.11808
   A10        2.20392   0.00742   0.00000   0.02701   0.02701   2.23092
   A11        2.04034  -0.00191   0.00000  -0.00269  -0.00268   2.03766
   A12        2.03892  -0.00551   0.00000  -0.02432  -0.02432   2.01460
   A13        2.14176   0.00280   0.00000   0.01271   0.01273   2.15449
   A14        1.99527  -0.00286   0.00000  -0.01479  -0.01482   1.98044
   A15        2.14615   0.00007   0.00000   0.00208   0.00209   2.14825
   A16        2.15114   0.00163   0.00000   0.00862   0.00859   2.15973
   A17        2.05601   0.00720   0.00000   0.04379   0.04380   2.09981
   A18        2.07603  -0.00883   0.00000  -0.05241  -0.05239   2.02364
   A19        1.93883  -0.00103   0.00000  -0.00802  -0.00796   1.93087
   A20        1.94033   0.00501   0.00000   0.02169   0.02149   1.96182
   A21        1.94224   0.00459   0.00000   0.01975   0.01955   1.96179
   A22        1.87999  -0.00307   0.00000  -0.01545  -0.01540   1.86460
   A23        1.87997  -0.00300   0.00000  -0.01575  -0.01570   1.86427
   A24        1.87967  -0.00303   0.00000  -0.00428  -0.00468   1.87499
    D1       -0.00018   0.00001   0.00000   0.00038   0.00040   0.00022
    D2       -3.14119   0.00000   0.00000   0.00015   0.00017  -3.14102
    D3        3.14138   0.00001   0.00000   0.00028   0.00028  -3.14152
    D4        0.00037   0.00000   0.00000   0.00005   0.00006   0.00042
    D5        0.00009  -0.00001   0.00000  -0.00015  -0.00015  -0.00006
    D6       -3.14148  -0.00001   0.00000  -0.00022  -0.00022   3.14148
    D7       -3.14146   0.00000   0.00000  -0.00006  -0.00005  -3.14151
    D8        0.00015   0.00000   0.00000  -0.00012  -0.00012   0.00003
    D9        3.14118   0.00001   0.00000   0.00064   0.00067  -3.14133
   D10        0.00019  -0.00001   0.00000  -0.00057  -0.00057  -0.00038
   D11       -0.00096   0.00001   0.00000   0.00085   0.00088  -0.00008
   D12        3.14124  -0.00001   0.00000  -0.00037  -0.00037   3.14087
   D13        0.00000  -0.00006   0.00000  -0.00043  -0.00043  -0.00043
   D14        2.09335  -0.00128   0.00000  -0.01083  -0.01101   2.08235
   D15       -2.09460   0.00135   0.00000   0.01166   0.01183  -2.08277
   D16       -3.14101  -0.00007   0.00000  -0.00067  -0.00066   3.14151
   D17       -1.04766  -0.00129   0.00000  -0.01106  -0.01124  -1.05890
   D18        1.04758   0.00134   0.00000   0.01142   0.01160   1.05917
   D19       -0.00014   0.00001   0.00000   0.00059   0.00059   0.00045
   D20        3.14131   0.00001   0.00000   0.00060   0.00058  -3.14129
   D21       -3.14112  -0.00002   0.00000  -0.00068  -0.00065   3.14142
   D22        0.00034  -0.00002   0.00000  -0.00068  -0.00065  -0.00032
   D23        3.14133   0.00001   0.00000   0.00024   0.00024   3.14157
   D24        0.00006  -0.00001   0.00000  -0.00037  -0.00036  -0.00030
   D25       -0.00012   0.00001   0.00000   0.00023   0.00024   0.00012
   D26       -3.14139  -0.00001   0.00000  -0.00037  -0.00036   3.14144
   D27       -0.00003   0.00000   0.00000   0.00011   0.00010   0.00008
   D28        3.14155   0.00000   0.00000   0.00018   0.00017  -3.14147
   D29       -3.14129  -0.00001   0.00000  -0.00050  -0.00050   3.14140
   D30        0.00028  -0.00001   0.00000  -0.00043  -0.00043  -0.00015
         Item               Value     Threshold  Converged?
 Maximum Force            0.034167     0.000450     NO 
 RMS     Force            0.006838     0.000300     NO 
 Maximum Displacement     0.089934     0.001800     NO 
 RMS     Displacement     0.024984     0.001200     NO 
 Predicted change in Energy=-3.409271D-03
 GradGradGradGradGradGradGradGradGradGradGradGradGradGradGradGradGradGrad

                          Input orientation:                          
 ---------------------------------------------------------------------
 Center     Atomic      Atomic             Coordinates (Angstroms)
 Number     Number       Type             X           Y           Z
 ---------------------------------------------------------------------
      1          6           0        1.153296    1.506346    2.575728
      2          6           0        0.789641    0.371727    1.952802
      3          6           0        1.530289   -0.873331    2.225465
      4          8           0        1.286991   -1.948569    1.719806
      5          7           0        2.567868   -0.721292    3.137945
      6          6           0        2.960891    0.433288    3.791131
      7          8           0        3.882846    0.475529    4.575928
      8          7           0        2.198991    1.538709    3.461800
      9          6           0       -0.347012    0.325099    0.985478
     10          9           0       -0.908760    1.541019    0.854969
     11          9           0        0.039900   -0.057027   -0.239061
     12          9           0       -1.317958   -0.510236    1.378448
     13          1           0        0.643166    2.450897    2.412381
     14          1           0        3.108330   -1.552407    3.358205
     15          1           0        2.454423    2.404048    3.918375
 ---------------------------------------------------------------------
                    Distance matrix (angstroms):
                    1          2          3          4          5
     1  C    0.000000
     2  C    1.344486   0.000000
     3  C    2.434681   1.474135   0.000000
     4  O    3.561869   2.384411   1.212857   0.000000
     5  N    2.698049   2.400280   1.390074   2.271118   0.000000
     6  C    2.428180   2.845623   2.491021   3.572894   1.383537
     7  O    3.537488   4.057028   3.588680   4.557647   2.286775
     8  N    1.371003   2.371748   2.791707   4.003423   2.312694
     9  C    2.484988   1.493275   2.549130   2.894611   3.771549
    10  F    2.685943   2.336033   3.695444   4.212658   4.734657
    11  F    3.406878   2.355887   2.993577   2.995051   4.270368
    12  F    3.406931   2.355783   2.993625   2.995177   4.270834
    13  H    1.085860   2.134389   3.445637   4.499941   3.780701
    14  H    3.713542   3.324720   2.057779   2.481647   1.015561
    15  H    2.074007   3.281053   3.802786   5.014168   3.223304
                    6          7          8          9         10
     6  C    0.000000
     7  O    1.211483   0.000000
     8  N    1.382355   2.281885   0.000000
     9  C    4.338850   5.550285   3.753286   0.000000
    10  F    4.982200   6.159569   4.056315   1.345754   0.000000
    11  F    5.001504   6.183524   4.572135   1.339856   2.156526
    12  F    5.001982   6.184171   4.572468   1.339756   2.156182
    13  H    3.368018   4.367898   2.086614   2.745091   2.379472
    14  H    2.037682   2.489026   3.223759   4.592848   5.654422
    15  H    2.038773   2.488363   1.011196   4.557626   4.630365
                   11         12         13         14         15
    11  F    0.000000
    12  F    2.159979   0.000000
    13  H    3.699156   3.699099   0.000000
    14  H    4.959006   4.959595   4.795628   0.000000
    15  H    5.401026   5.401402   2.356027   4.049064   0.000000
 Stoichiometry    C5H3F3N2O2
 Framework group  C1[X(C5H3F3N2O2)]
 Deg. of freedom    39
 Full point group                 C1      NOp   1
 Largest Abelian subgroup         C1      NOp   1
 Largest concise Abelian subgroup C1      NOp   1
                         Standard orientation:                         
 ---------------------------------------------------------------------
 Center     Atomic      Atomic             Coordinates (Angstroms)
 Number     Number       Type             X           Y           Z
 ---------------------------------------------------------------------
      1          6           0        0.372179   -1.340230   -0.000332
      2          6           0       -0.346427   -0.203900   -0.000369
      3          6           0        0.351843    1.094366   -0.000461
      4          8           0       -0.197194    2.175837   -0.000241
      5          7           0        1.737743    0.986722   -0.000016
      6          6           0        2.498976   -0.168569   -0.000002
      7          8           0        3.710459   -0.169882    0.000382
      8          7           0        1.743108   -1.325966   -0.000121
      9          6           0       -1.839698   -0.207638    0.000130
     10          9           0       -2.310710   -1.468274    0.000051
     11          9           0       -2.351516    0.397735    1.080305
     12          9           0       -2.352164    0.397630   -1.079674
     13          1           0       -0.089984   -2.322827   -0.000326
     14          1           0        2.263688    1.855483    0.000214
     15          1           0        2.262496   -2.193580    0.000000
 ---------------------------------------------------------------------
 Rotational constants (GHZ):      1.9684866      0.6386314      0.5267413
 Standard basis: 6-31+G(d) (6D, 7F)
 There are   234 symmetry adapted cartesian basis functions of A   symmetry.
 There are   234 symmetry adapted basis functions of A   symmetry.
   234 basis functions,   396 primitive gaussians,   234 cartesian basis functions
    45 alpha electrons       45 beta electrons
       nuclear repulsion energy       745.3669821511 Hartrees.
 NAtoms=   15 NActive=   15 NUniq=   15 SFac= 1.00D+00 NAtFMM=   60 NAOKFM=F Big=F
 Integral buffers will be    131072 words long.
 Raffenetti 2 integral format.
 Two-electron integral symmetry is turned on.
 One-electron integrals computed using PRISM.
 NBasis=   234 RedAO= T EigKep=  8.02D-06  NBF=   234
 NBsUse=   234 1.00D-06 EigRej= -1.00D+00 NBFU=   234
 Initial guess from the checkpoint file:  "/srv/scratch/z5358697/gauss/Gau-2203635.chk"
 B after Tr=     0.000000    0.000000    0.000000
         Rot=    0.999998    0.000056    0.000056    0.002016 Ang=   0.23 deg.
 ExpMin= 4.38D-02 ExpMax= 7.00D+03 ExpMxC= 1.05D+03 IAcc=2 IRadAn=         4 AccDes= 0.00D+00
 Harris functional with IExCor= 1009 and IRadAn=       4 diagonalized for initial guess.
 HarFok:  IExCor= 1009 AccDes= 0.00D+00 IRadAn=         4 IDoV= 1 UseB2=F ITyADJ=14
 ICtDFT=  3500011 ScaDFX=  1.000000  1.000000  1.000000  1.000000
 FoFCou: FMM=F IPFlag=           0 FMFlag=      100000 FMFlg1=           0
         NFxFlg=           0 DoJE=T BraDBF=F KetDBF=T FulRan=T
         wScrn=  0.000000 ICntrl=     500 IOpCl=  0 I1Cent=   200000004 NGrid=           0
         NMat0=    1 NMatS0=      1 NMatT0=    0 NMatD0=    1 NMtDS0=    0 NMtDT0=    0
 Petite list used in FoFCou.
 Requested convergence on RMS density matrix=1.00D-08 within 128 cycles.
 Requested convergence on MAX density matrix=1.00D-06.
 Requested convergence on             energy=1.00D-06.
 No special actions if energy rises.
 SCF Done:  E(RM062X) =  -751.620289374     A.U. after   12 cycles
            NFock= 12  Conv=0.95D-08     -V/T= 2.0077
 Calling FoFJK, ICntrl=      2127 FMM=F ISym2X=0 I1Cent= 0 IOpClX= 0 NMat=1 NMatS=1 NMatT=0.
 ***** Axes restored to original set *****
 -------------------------------------------------------------------
 Center     Atomic                   Forces (Hartrees/Bohr)
 Number     Number              X              Y              Z
 -------------------------------------------------------------------
      1        6           0.001485627    0.003373331    0.002173153
      2        6           0.004034363   -0.005455173    0.001857427
      3        6          -0.007860645   -0.003354040   -0.007645047
      4        8           0.000967660    0.002052299    0.001428640
      5        7           0.003294620    0.003769024    0.003861551
      6        6           0.006767167   -0.006814650    0.003721375
      7        8          -0.001926309    0.001380166   -0.001210995
      8        7          -0.007222305    0.004765517   -0.004692175
      9        6          -0.002403117   -0.001294740   -0.002365168
     10        9          -0.001022029    0.004341441    0.000297813
     11        9           0.001101583   -0.000740447    0.001211684
     12        9           0.001516475   -0.000689888    0.000673501
     13        1           0.000078167   -0.000788102   -0.000163206
     14        1          -0.000185856   -0.000382708   -0.000260588
     15        1           0.001374599   -0.000162031    0.001112037
 -------------------------------------------------------------------
 Cartesian Forces:  Max     0.007860645 RMS     0.003333450

 GradGradGradGradGradGradGradGradGradGradGradGradGradGradGradGradGradGrad
 Berny optimization.
 Using GEDIIS/GDIIS optimizer.
 FormGI is forming the generalized inverse of G from B-inverse, IUseBI=4.
 GSVD:  received Info=                   1 from GESDD.
 Internal  Forces:  Max     0.006282527 RMS     0.001622068
 Search for a local minimum.
 Step number   2 out of a maximum of   79
 All quantities printed in internal units (Hartrees-Bohrs-Radians)
 Mixed Optimization -- RFO/linear search
 Update second derivatives using D2CorX and points    1    2
 DE= -3.62D-03 DEPred=-3.41D-03 R= 1.06D+00
 TightC=F SS=  1.41D+00  RLast= 1.43D-01 DXNew= 5.0454D-01 4.3045D-01
 Trust test= 1.06D+00 RLast= 1.43D-01 DXMaxT set to 4.30D-01
 ITU=  1  0
 Use linear search instead of GDIIS.
     Eigenvalues ---    0.00840   0.01256   0.01488   0.01540   0.01782
     Eigenvalues ---    0.01820   0.01858   0.02009   0.02322   0.02576
     Eigenvalues ---    0.10819   0.11049   0.15111   0.16000   0.16058
     Eigenvalues ---    0.21554   0.22413   0.23936   0.24737   0.25000
     Eigenvalues ---    0.25000   0.25000   0.25000   0.26788   0.31955
     Eigenvalues ---    0.32996   0.35584   0.44294   0.44955   0.44966
     Eigenvalues ---    0.45142   0.48187   0.50596   0.54324   0.55060
     Eigenvalues ---    0.55709   0.57489   0.90227   0.91366
 RFO step:  Lambda=-5.37418532D-04 EMin= 8.39710388D-03
 Quartic linear search produced a step of  0.08012.
 Iteration  1 RMS(Cart)=  0.00647184 RMS(Int)=  0.00003685
 Iteration  2 RMS(Cart)=  0.00004303 RMS(Int)=  0.00002140
 Iteration  3 RMS(Cart)=  0.00000000 RMS(Int)=  0.00002140
 Variable       Old X    -DE/DX   Delta X   Delta X   Delta X     New X
                                 (Linear)    (Quad)   (Total)
    R1        2.54071   0.00235   0.00087   0.00414   0.00502   2.54573
    R2        2.59082  -0.00281   0.00050  -0.00610  -0.00560   2.58522
    R3        2.05198  -0.00070   0.00032  -0.00212  -0.00180   2.05018
    R4        2.78571  -0.00250  -0.00276  -0.00819  -0.01095   2.77476
    R5        2.82188   0.00068  -0.00017   0.00224   0.00206   2.82394
    R6        2.29197  -0.00261  -0.00233  -0.00306  -0.00539   2.28658
    R7        2.62686   0.00628   0.00012   0.01451   0.01463   2.64149
    R8        2.61451  -0.00024  -0.00195  -0.00021  -0.00217   2.61234
    R9        1.91913   0.00016  -0.00009   0.00038   0.00029   1.91942
   R10        2.28937  -0.00220  -0.00300  -0.00262  -0.00562   2.28375
   R11        2.61227   0.00591  -0.00052   0.01336   0.01284   2.62511
   R12        1.91088   0.00071  -0.00069   0.00172   0.00103   1.91192
   R13        2.54311   0.00432  -0.00061   0.00846   0.00785   2.55096
   R14        2.53196  -0.00058  -0.00150  -0.00111  -0.00261   2.52936
   R15        2.53177  -0.00047  -0.00153  -0.00090  -0.00243   2.52934
    A1        2.12429  -0.00006  -0.00170  -0.00143  -0.00312   2.12117
    A2        2.13805  -0.00039   0.00039  -0.00210  -0.00171   2.13634
    A3        2.02085   0.00045   0.00130   0.00353   0.00483   2.02568
    A4        2.08423   0.00239   0.00167   0.00932   0.01101   2.09524
    A5        2.13219  -0.00242  -0.00212  -0.00989  -0.01202   2.12017
    A6        2.06677   0.00003   0.00045   0.00057   0.00101   2.06778
    A7        2.17836   0.00179   0.00465   0.00741   0.01206   2.19041
    A8        1.98675  -0.00215  -0.00164  -0.00904  -0.01068   1.97607
    A9        2.11808   0.00036  -0.00300   0.00163  -0.00138   2.11670
   A10        2.23092   0.00095   0.00216   0.00556   0.00772   2.23864
   A11        2.03766  -0.00093  -0.00021  -0.00587  -0.00608   2.03158
   A12        2.01460  -0.00003  -0.00195   0.00031  -0.00164   2.01296
   A13        2.15449   0.00233   0.00102   0.00963   0.01065   2.16515
   A14        1.98044  -0.00123  -0.00119  -0.00449  -0.00569   1.97475
   A15        2.14825  -0.00110   0.00017  -0.00514  -0.00496   2.14328
   A16        2.15973   0.00009   0.00069   0.00008   0.00076   2.16049
   A17        2.09981   0.00151   0.00351   0.01008   0.01359   2.11340
   A18        2.02364  -0.00159  -0.00420  -0.01015  -0.01435   2.00929
   A19        1.93087  -0.00074  -0.00064  -0.00051  -0.00114   1.92973
   A20        1.96182  -0.00205   0.00172  -0.01034  -0.00868   1.95314
   A21        1.96179  -0.00204   0.00157  -0.01014  -0.00863   1.95316
   A22        1.86460   0.00197  -0.00123   0.01087   0.00964   1.87423
   A23        1.86427   0.00204  -0.00126   0.01145   0.01020   1.87447
   A24        1.87499   0.00126  -0.00038   0.00076   0.00027   1.87526
    D1        0.00022  -0.00001   0.00003  -0.00061  -0.00058  -0.00036
    D2       -3.14102  -0.00002   0.00001  -0.00085  -0.00084   3.14132
    D3       -3.14152   0.00000   0.00002  -0.00017  -0.00015   3.14151
    D4        0.00042  -0.00001   0.00000  -0.00042  -0.00041   0.00001
    D5       -0.00006   0.00001  -0.00001   0.00016   0.00014   0.00008
    D6        3.14148   0.00001  -0.00002   0.00040   0.00038  -3.14133
    D7       -3.14151   0.00000   0.00000  -0.00025  -0.00026   3.14142
    D8        0.00003   0.00000  -0.00001  -0.00001  -0.00002   0.00001
    D9       -3.14133  -0.00002   0.00005  -0.00133  -0.00129   3.14057
   D10       -0.00038   0.00002  -0.00005   0.00098   0.00094   0.00055
   D11       -0.00008  -0.00001   0.00007  -0.00110  -0.00103  -0.00111
   D12        3.14087   0.00002  -0.00003   0.00122   0.00119  -3.14112
   D13       -0.00043   0.00003  -0.00003   0.00038   0.00035  -0.00008
   D14        2.08235   0.00067  -0.00088   0.00696   0.00603   2.08838
   D15       -2.08277  -0.00069   0.00095  -0.00708  -0.00608  -2.08885
   D16        3.14151   0.00003  -0.00005   0.00014   0.00008  -3.14159
   D17       -1.05890   0.00066  -0.00090   0.00671   0.00577  -1.05313
   D18        1.05917  -0.00070   0.00093  -0.00732  -0.00635   1.05283
   D19        0.00045  -0.00001   0.00005  -0.00106  -0.00101  -0.00056
   D20       -3.14129  -0.00001   0.00005  -0.00102  -0.00097   3.14092
   D21        3.14142   0.00002  -0.00005   0.00117   0.00111  -3.14065
   D22       -0.00032   0.00002  -0.00005   0.00121   0.00115   0.00083
   D23        3.14157   0.00000   0.00002  -0.00017  -0.00015   3.14142
   D24       -0.00030   0.00001  -0.00003   0.00064   0.00061   0.00032
   D25        0.00012   0.00000   0.00002  -0.00020  -0.00019  -0.00007
   D26        3.14144   0.00001  -0.00003   0.00061   0.00058  -3.14117
   D27        0.00008   0.00000   0.00001  -0.00013  -0.00012  -0.00004
   D28       -3.14147   0.00000   0.00001  -0.00035  -0.00034   3.14138
   D29        3.14140   0.00001  -0.00004   0.00069   0.00064  -3.14114
   D30       -0.00015   0.00001  -0.00003   0.00046   0.00042   0.00027
         Item               Value     Threshold  Converged?
 Maximum Force            0.006283     0.000450     NO 
 RMS     Force            0.001622     0.000300     NO 
 Maximum Displacement     0.021620     0.001800     NO 
 RMS     Displacement     0.006484     0.001200     NO 
 Predicted change in Energy=-2.909184D-04
 GradGradGradGradGradGradGradGradGradGradGradGradGradGradGradGradGradGrad

                          Input orientation:                          
 ---------------------------------------------------------------------
 Center     Atomic      Atomic             Coordinates (Angstroms)
 Number     Number       Type             X           Y           Z
 ---------------------------------------------------------------------
      1          6           0        1.151557    1.505902    2.573472
      2          6           0        0.792288    0.365632    1.952587
      3          6           0        1.525194   -0.878650    2.218372
      4          8           0        1.287366   -1.954685    1.718674
      5          7           0        2.566523   -0.719390    3.137155
      6          6           0        2.962067    0.432178    3.791709
      7          8           0        3.879631    0.483285    4.576542
      8          7           0        2.194369    1.540864    3.458265
      9          6           0       -0.347265    0.328836    0.986566
     10          9           0       -0.903783    1.552460    0.862909
     11          9           0        0.044669   -0.057429   -0.233561
     12          9           0       -1.311106   -0.511012    1.383005
     13          1           0        0.637145    2.446235    2.405603
     14          1           0        3.105951   -1.551440    3.357113
     15          1           0        2.458294    2.401012    3.920987
 ---------------------------------------------------------------------
                    Distance matrix (angstroms):
                    1          2          3          4          5
     1  C    0.000000
     2  C    1.347141   0.000000
     3  C    2.439628   1.468342   0.000000
     4  O    3.567181   2.384048   1.210005   0.000000
     5  N    2.696625   2.393404   1.397817   2.274706   0.000000
     6  C    2.432063   2.845126   2.501652   3.577599   1.382391
     7  O    3.535594   4.053476   3.599890   4.564094   2.289654
     8  N    1.368042   2.369402   2.799853   4.008452   2.313083
     9  C    2.479964   1.494367   2.545873   2.902149   3.770142
    10  F    2.674438   2.339363   3.694253   4.222976   4.730382
    11  F    3.398329   2.348863   2.979653   2.992506   4.261416
    12  F    3.398508   2.348871   2.979528   2.991474   4.261040
    13  H    1.084908   2.134994   3.446526   4.501416   3.778736
    14  H    3.712288   3.316759   2.061109   2.480795   1.015712
    15  H    2.079563   3.285262   3.811267   5.019298   3.219163
                    6          7          8          9         10
     6  C    0.000000
     7  O    1.208511   0.000000
     8  N    1.389147   2.282350   0.000000
     9  C    4.339492   5.547831   3.746760   0.000000
    10  F    4.977721   6.149411   4.041603   1.349910   0.000000
    11  F    4.995370   6.175467   4.561286   1.338477   2.166460
    12  F    4.995144   6.175035   4.561277   1.338469   2.166640
    13  H    3.373867   4.368050   2.086322   2.732418   2.356523
    14  H    2.035759   2.495134   3.225454   4.591256   5.650948
    15  H    2.036372   2.475404   1.011743   4.558059   4.623359
                   11         12         13         14         15
    11  F    0.000000
    12  F    2.158043   0.000000
    13  H    3.685722   3.686013   0.000000
    14  H    4.949389   4.948735   4.793931   0.000000
    15  H    5.397202   5.397186   2.369603   4.044662   0.000000
 Stoichiometry    C5H3F3N2O2
 Framework group  C1[X(C5H3F3N2O2)]
 Deg. of freedom    39
 Full point group                 C1      NOp   1
 Largest Abelian subgroup         C1      NOp   1
 Largest concise Abelian subgroup C1      NOp   1
                         Standard orientation:                         
 ---------------------------------------------------------------------
 Center     Atomic      Atomic             Coordinates (Angstroms)
 Number     Number       Type             X           Y           Z
 ---------------------------------------------------------------------
      1          6           0        0.368843   -1.338829    0.000115
      2          6           0       -0.345758   -0.196842    0.000187
      3          6           0        0.341663    1.100648    0.000652
      4          8           0       -0.199816    2.182734   -0.000256
      5          7           0        1.734791    0.986246    0.000270
      6          6           0        2.499196   -0.165573    0.000146
      7          8           0        3.707663   -0.175773   -0.000371
      8          7           0        1.736832   -1.326836    0.000048
      9          6           0       -1.840054   -0.211443   -0.000083
     10          9           0       -2.301871   -1.479900   -0.000493
     11          9           0       -2.345603    0.397891    1.079108
     12          9           0       -2.345241    0.398773   -1.078935
     13          1           0       -0.099253   -2.317558   -0.000149
     14          1           0        2.259369    1.856010   -0.000045
     15          1           0        2.266840   -2.188645   -0.000238
 ---------------------------------------------------------------------
 Rotational constants (GHZ):      1.9595296      0.6409390      0.5275753
 Standard basis: 6-31+G(d) (6D, 7F)
 There are   234 symmetry adapted cartesian basis functions of A   symmetry.
 There are   234 symmetry adapted basis functions of A   symmetry.
   234 basis functions,   396 primitive gaussians,   234 cartesian basis functions
    45 alpha electrons       45 beta electrons
       nuclear repulsion energy       745.4844414516 Hartrees.
 NAtoms=   15 NActive=   15 NUniq=   15 SFac= 1.00D+00 NAtFMM=   60 NAOKFM=F Big=F
 Integral buffers will be    131072 words long.
 Raffenetti 2 integral format.
 Two-electron integral symmetry is turned on.
 One-electron integrals computed using PRISM.
 NBasis=   234 RedAO= T EigKep=  8.11D-06  NBF=   234
 NBsUse=   234 1.00D-06 EigRej= -1.00D+00 NBFU=   234
 Initial guess from the checkpoint file:  "/srv/scratch/z5358697/gauss/Gau-2203635.chk"
 B after Tr=     0.000000    0.000000    0.000000
         Rot=    1.000000   -0.000072    0.000025   -0.000232 Ang=  -0.03 deg.
 ExpMin= 4.38D-02 ExpMax= 7.00D+03 ExpMxC= 1.05D+03 IAcc=2 IRadAn=         4 AccDes= 0.00D+00
 Harris functional with IExCor= 1009 and IRadAn=       4 diagonalized for initial guess.
 HarFok:  IExCor= 1009 AccDes= 0.00D+00 IRadAn=         4 IDoV= 1 UseB2=F ITyADJ=14
 ICtDFT=  3500011 ScaDFX=  1.000000  1.000000  1.000000  1.000000
 FoFCou: FMM=F IPFlag=           0 FMFlag=      100000 FMFlg1=           0
         NFxFlg=           0 DoJE=T BraDBF=F KetDBF=T FulRan=T
         wScrn=  0.000000 ICntrl=     500 IOpCl=  0 I1Cent=   200000004 NGrid=           0
         NMat0=    1 NMatS0=      1 NMatT0=    0 NMatD0=    1 NMtDS0=    0 NMtDT0=    0
 Petite list used in FoFCou.
 Requested convergence on RMS density matrix=1.00D-08 within 128 cycles.
 Requested convergence on MAX density matrix=1.00D-06.
 Requested convergence on             energy=1.00D-06.
 No special actions if energy rises.
 SCF Done:  E(RM062X) =  -751.620591553     A.U. after   11 cycles
            NFock= 11  Conv=0.82D-08     -V/T= 2.0077
 Calling FoFJK, ICntrl=      2127 FMM=F ISym2X=0 I1Cent= 0 IOpClX= 0 NMat=1 NMatS=1 NMatT=0.
 ***** Axes restored to original set *****
 -------------------------------------------------------------------
 Center     Atomic                   Forces (Hartrees/Bohr)
 Number     Number              X              Y              Z
 -------------------------------------------------------------------
      1        6           0.002180581    0.000090156    0.001879196
      2        6           0.000392777    0.000118144    0.000272876
      3        6          -0.002289995    0.000422351   -0.001526131
      4        8           0.000192800   -0.000673586   -0.000142294
      5        7           0.002493595    0.000875163    0.002254153
      6        6          -0.000231757   -0.003241213   -0.001031656
      7        8           0.001255943    0.000566915    0.001181181
      8        7          -0.002895942    0.002307322   -0.001822067
      9        6           0.001050453   -0.000829839    0.000615203
     10        9          -0.000711803   -0.000466738   -0.000691600
     11        9          -0.000482423    0.000609595   -0.000655928
     12        9          -0.000880878    0.000523536   -0.000184698
     13        1          -0.000029755   -0.000258164   -0.000091481
     14        1          -0.000167323   -0.000338644   -0.000238669
     15        1           0.000123728    0.000295003    0.000181915
 -------------------------------------------------------------------
 Cartesian Forces:  Max     0.003241213 RMS     0.001217608

 GradGradGradGradGradGradGradGradGradGradGradGradGradGradGradGradGradGrad
 Berny optimization.
 Using GEDIIS/GDIIS optimizer.
 FormGI is forming the generalized inverse of G from B-inverse, IUseBI=4.
 GSVD:  received Info=                   1 from GESDD.
 Internal  Forces:  Max     0.002632746 RMS     0.000705147
 Search for a local minimum.
 Step number   3 out of a maximum of   79
 All quantities printed in internal units (Hartrees-Bohrs-Radians)
 Mixed Optimization -- En-DIIS/RFO-DIIS
 Update second derivatives using D2CorX and points    1    2    3
 DE= -3.02D-04 DEPred=-2.91D-04 R= 1.04D+00
 TightC=F SS=  1.41D+00  RLast= 4.94D-02 DXNew= 7.2393D-01 1.4808D-01
 Trust test= 1.04D+00 RLast= 4.94D-02 DXMaxT set to 4.30D-01
 ITU=  1  1  0
 Use linear search instead of GDIIS.
     Eigenvalues ---    0.00840   0.01253   0.01488   0.01543   0.01782
     Eigenvalues ---    0.01820   0.01858   0.02011   0.02323   0.02575
     Eigenvalues ---    0.11090   0.11345   0.13702   0.16001   0.16161
     Eigenvalues ---    0.20037   0.22446   0.23805   0.24717   0.25000
     Eigenvalues ---    0.25000   0.25000   0.25496   0.30317   0.31636
     Eigenvalues ---    0.34417   0.35583   0.41421   0.44293   0.44957
     Eigenvalues ---    0.45110   0.46229   0.50420   0.55058   0.55180
     Eigenvalues ---    0.55847   0.56976   0.91284   0.95201
 RFO step:  Lambda=-1.02756330D-04 EMin= 8.39711390D-03
 Quartic linear search produced a step of  0.04594.
 Iteration  1 RMS(Cart)=  0.00359803 RMS(Int)=  0.00000926
 Iteration  2 RMS(Cart)=  0.00000947 RMS(Int)=  0.00000444
 Iteration  3 RMS(Cart)=  0.00000000 RMS(Int)=  0.00000444
 Variable       Old X    -DE/DX   Delta X   Delta X   Delta X     New X
                                 (Linear)    (Quad)   (Total)
    R1        2.54573   0.00065   0.00023   0.00179   0.00202   2.54774
    R2        2.58522  -0.00185  -0.00026  -0.00446  -0.00472   2.58051
    R3        2.05018  -0.00019  -0.00008  -0.00071  -0.00079   2.04939
    R4        2.77476   0.00011  -0.00050  -0.00152  -0.00202   2.77275
    R5        2.82394   0.00138   0.00009   0.00455   0.00464   2.82858
    R6        2.28658   0.00062  -0.00025  -0.00041  -0.00066   2.28592
    R7        2.64149   0.00263   0.00067   0.00769   0.00836   2.64985
    R8        2.61234  -0.00061  -0.00010  -0.00184  -0.00194   2.61040
    R9        1.91942   0.00014   0.00001   0.00033   0.00034   1.91976
   R10        2.28375   0.00174  -0.00026   0.00072   0.00047   2.28422
   R11        2.62511   0.00262   0.00059   0.00702   0.00761   2.63271
   R12        1.91192   0.00037   0.00005   0.00082   0.00087   1.91279
   R13        2.55096  -0.00007   0.00036   0.00065   0.00101   2.55197
   R14        2.52936   0.00028  -0.00012  -0.00008  -0.00020   2.52915
   R15        2.52934   0.00025  -0.00011  -0.00013  -0.00024   2.52910
    A1        2.12117   0.00076  -0.00014   0.00204   0.00190   2.12307
    A2        2.13634  -0.00058  -0.00008  -0.00280  -0.00288   2.13346
    A3        2.02568  -0.00018   0.00022   0.00076   0.00098   2.02666
    A4        2.09524  -0.00019   0.00051   0.00043   0.00094   2.09618
    A5        2.12017   0.00024  -0.00055  -0.00065  -0.00120   2.11897
    A6        2.06778  -0.00005   0.00005   0.00022   0.00026   2.06804
    A7        2.19041   0.00041   0.00055   0.00386   0.00441   2.19483
    A8        1.97607  -0.00002  -0.00049  -0.00125  -0.00175   1.97433
    A9        2.11670  -0.00039  -0.00006  -0.00260  -0.00267   2.11403
   A10        2.23864  -0.00041   0.00035   0.00022   0.00057   2.23921
   A11        2.03158  -0.00020  -0.00028  -0.00281  -0.00309   2.02849
   A12        2.01296   0.00061  -0.00008   0.00260   0.00252   2.01549
   A13        2.16515   0.00060   0.00049   0.00376   0.00425   2.16940
   A14        1.97475  -0.00005  -0.00026  -0.00076  -0.00102   1.97373
   A15        2.14328  -0.00055  -0.00023  -0.00300  -0.00323   2.14006
   A16        2.16049  -0.00010   0.00003  -0.00067  -0.00064   2.15985
   A17        2.11340   0.00008   0.00062   0.00296   0.00358   2.11699
   A18        2.00929   0.00002  -0.00066  -0.00229  -0.00294   2.00635
   A19        1.92973   0.00126  -0.00005   0.00366   0.00361   1.93334
   A20        1.95314   0.00088  -0.00040   0.00372   0.00331   1.95644
   A21        1.95316   0.00089  -0.00040   0.00364   0.00324   1.95639
   A22        1.87423  -0.00141   0.00044  -0.00617  -0.00572   1.86851
   A23        1.87447  -0.00146   0.00047  -0.00646  -0.00599   1.86848
   A24        1.87526  -0.00039   0.00001   0.00073   0.00072   1.87599
    D1       -0.00036   0.00002  -0.00003   0.00090   0.00088   0.00052
    D2        3.14132   0.00002  -0.00004   0.00072   0.00069  -3.14117
    D3        3.14151   0.00001  -0.00001   0.00038   0.00038  -3.14130
    D4        0.00001   0.00001  -0.00002   0.00021   0.00019   0.00020
    D5        0.00008  -0.00001   0.00001   0.00000   0.00001   0.00009
    D6       -3.14133  -0.00001   0.00002  -0.00048  -0.00047   3.14139
    D7        3.14142   0.00001  -0.00001   0.00049   0.00048  -3.14129
    D8        0.00001   0.00000   0.00000   0.00001   0.00001   0.00001
    D9        3.14057   0.00004  -0.00006   0.00341   0.00336  -3.13926
   D10        0.00055  -0.00003   0.00004  -0.00177  -0.00173  -0.00117
   D11       -0.00111   0.00004  -0.00005   0.00358   0.00354   0.00243
   D12       -3.14112  -0.00003   0.00005  -0.00160  -0.00155   3.14051
   D13       -0.00008  -0.00001   0.00002   0.00023   0.00025   0.00016
   D14        2.08838  -0.00036   0.00028  -0.00263  -0.00236   2.08602
   D15       -2.08885   0.00038  -0.00028   0.00351   0.00323  -2.08562
   D16       -3.14159  -0.00001   0.00000   0.00006   0.00006  -3.14152
   D17       -1.05313  -0.00036   0.00026  -0.00280  -0.00254  -1.05567
   D18        1.05283   0.00038  -0.00029   0.00334   0.00305   1.05588
   D19       -0.00056   0.00003  -0.00005   0.00206   0.00201   0.00145
   D20        3.14092   0.00003  -0.00004   0.00207   0.00202  -3.14025
   D21       -3.14065  -0.00004   0.00005  -0.00288  -0.00282   3.13971
   D22        0.00083  -0.00004   0.00005  -0.00287  -0.00281  -0.00198
   D23        3.14142   0.00001  -0.00001   0.00016   0.00015   3.14157
   D24        0.00032  -0.00002   0.00003  -0.00125  -0.00122  -0.00091
   D25       -0.00007   0.00001  -0.00001   0.00015   0.00014   0.00007
   D26       -3.14117  -0.00002   0.00003  -0.00126  -0.00123   3.14078
   D27       -0.00004   0.00000  -0.00001   0.00009   0.00008   0.00005
   D28        3.14138   0.00001  -0.00002   0.00055   0.00053  -3.14127
   D29       -3.14114  -0.00002   0.00003  -0.00130  -0.00127   3.14078
   D30        0.00027  -0.00001   0.00002  -0.00084  -0.00082  -0.00054
         Item               Value     Threshold  Converged?
 Maximum Force            0.002633     0.000450     NO 
 RMS     Force            0.000705     0.000300     NO 
 Maximum Displacement     0.011417     0.001800     NO 
 RMS     Displacement     0.003595     0.001200     NO 
 Predicted change in Energy=-5.200901D-05
 GradGradGradGradGradGradGradGradGradGradGradGradGradGradGradGradGradGrad

                          Input orientation:                          
 ---------------------------------------------------------------------
 Center     Atomic      Atomic             Coordinates (Angstroms)
 Number     Number       Type             X           Y           Z
 ---------------------------------------------------------------------
      1          6           0        1.152893    1.504700    2.574991
      2          6           0        0.793144    0.363595    1.953602
      3          6           0        1.523898   -0.880775    2.218997
      4          8           0        1.291142   -1.957482    1.719202
      5          7           0        2.569182   -0.719806    3.139731
      6          6           0        2.964327    0.430975    3.793745
      7          8           0        3.882071    0.487525    4.578373
      8          7           0        2.193514    1.541978    3.458412
      9          6           0       -0.348129    0.328846    0.985734
     10          9           0       -0.906244    1.552043    0.859240
     11          9           0        0.039875   -0.053956   -0.236619
     12          9           0       -1.317147   -0.505912    1.379869
     13          1           0        0.637120    2.443411    2.404943
     14          1           0        3.108043   -1.553070    3.357309
     15          1           0        2.459210    2.401727    3.921870
 ---------------------------------------------------------------------
                    Distance matrix (angstroms):
                    1          2          3          4          5
     1  C    0.000000
     2  C    1.348208   0.000000
     3  C    2.440260   1.467274   0.000000
     4  O    3.569060   2.385444   1.209657   0.000000
     5  N    2.696894   2.394781   1.402241   2.276649   0.000000
     6  C    2.433011   2.846876   2.505066   3.578827   1.381366
     7  O    3.535053   4.055398   3.605535   4.567913   2.291510
     8  N    1.365545   2.369404   2.802546   4.010654   2.314812
     9  C    2.482224   1.496823   2.547274   2.907315   3.774927
    10  F    2.680688   2.344771   3.697719   4.229043   4.737143
    11  F    3.401966   2.353473   2.985968   3.002385   4.270889
    12  F    3.401761   2.353410   2.986000   3.004226   4.271583
    13  H    1.084489   2.133937   3.445455   4.501760   3.778720
    14  H    3.712760   3.317040   2.063310   2.479530   1.015893
    15  H    2.079712   3.286919   3.814367   5.021835   3.219907
                    6          7          8          9         10
     6  C    0.000000
     7  O    1.208757   0.000000
     8  N    1.393173   2.284165   0.000000
     9  C    4.343699   5.552191   3.747768   0.000000
    10  F    4.984921   6.155738   4.045280   1.350445   0.000000
    11  F    5.003141   6.183836   4.564912   1.338370   2.162240
    12  F    5.003556   6.184595   4.564968   1.338342   2.162192
    13  H    3.375584   4.367951   2.084404   2.730614   2.359175
    14  H    2.036557   2.500829   3.228917   4.594681   5.656551
    15  H    2.038485   2.473803   1.012203   4.560578   4.629032
                   11         12         13         14         15
    11  F    0.000000
    12  F    2.158427   0.000000
    13  H    3.683937   3.683537   0.000000
    14  H    4.957551   4.958741   4.794196   0.000000
    15  H    5.401536   5.401574   2.371248   4.047237   0.000000
 Stoichiometry    C5H3F3N2O2
 Framework group  C1[X(C5H3F3N2O2)]
 Deg. of freedom    39
 Full point group                 C1      NOp   1
 Largest Abelian subgroup         C1      NOp   1
 Largest concise Abelian subgroup C1      NOp   1
                         Standard orientation:                         
 ---------------------------------------------------------------------
 Center     Atomic      Atomic             Coordinates (Angstroms)
 Number     Number       Type             X           Y           Z
 ---------------------------------------------------------------------
      1          6           0        0.370532   -1.337320   -0.000161
      2          6           0       -0.344131   -0.194113   -0.000440
      3          6           0        0.342145    1.102774   -0.001363
      4          8           0       -0.194935    2.186661    0.000607
      5          7           0        1.739537    0.986268   -0.000361
      6          6           0        2.502599   -0.165214   -0.000244
      7          8           0        3.711247   -0.181370    0.000631
      8          7           0        1.736049   -1.328541   -0.000117
      9          6           0       -1.840871   -0.209874    0.000051
     10          9           0       -2.306487   -1.477510    0.000974
     11          9           0       -2.350368    0.396292    1.079036
     12          9           0       -2.350987    0.394897   -1.079390
     13          1           0       -0.100631   -2.314112    0.000246
     14          1           0        2.262603    1.857153    0.000286
     15          1           0        2.267371   -2.190082    0.000264
 ---------------------------------------------------------------------
 Rotational constants (GHZ):      1.9583935      0.6391508      0.5262984
 Standard basis: 6-31+G(d) (6D, 7F)
 There are   234 symmetry adapted cartesian basis functions of A   symmetry.
 There are   234 symmetry adapted basis functions of A   symmetry.
   234 basis functions,   396 primitive gaussians,   234 cartesian basis functions
    45 alpha electrons       45 beta electrons
       nuclear repulsion energy       744.9190510194 Hartrees.
 NAtoms=   15 NActive=   15 NUniq=   15 SFac= 1.00D+00 NAtFMM=   60 NAOKFM=F Big=F
 Integral buffers will be    131072 words long.
 Raffenetti 2 integral format.
 Two-electron integral symmetry is turned on.
 One-electron integrals computed using PRISM.
 NBasis=   234 RedAO= T EigKep=  8.18D-06  NBF=   234
 NBsUse=   234 1.00D-06 EigRej= -1.00D+00 NBFU=   234
 Initial guess from the checkpoint file:  "/srv/scratch/z5358697/gauss/Gau-2203635.chk"
 B after Tr=     0.000000    0.000000    0.000000
         Rot=    1.000000    0.000166   -0.000024    0.000285 Ang=   0.04 deg.
 Requested convergence on RMS density matrix=1.00D-08 within 128 cycles.
 Requested convergence on MAX density matrix=1.00D-06.
 Requested convergence on             energy=1.00D-06.
 No special actions if energy rises.
 SCF Done:  E(RM062X) =  -751.620641375     A.U. after   11 cycles
            NFock= 11  Conv=0.41D-08     -V/T= 2.0078
 Calling FoFJK, ICntrl=      2127 FMM=F ISym2X=0 I1Cent= 0 IOpClX= 0 NMat=1 NMatS=1 NMatT=0.
 ***** Axes restored to original set *****
 -------------------------------------------------------------------
 Center     Atomic                   Forces (Hartrees/Bohr)
 Number     Number              X              Y              Z
 -------------------------------------------------------------------
      1        6           0.001060993   -0.000451329    0.000758793
      2        6          -0.001152223    0.000373656   -0.000677570
      3        6           0.000121710    0.000897236   -0.000259789
      4        8          -0.000181771   -0.000484478   -0.000034307
      5        7           0.000843464    0.000288756    0.000968647
      6        6          -0.000940796   -0.001111947   -0.001214382
      7        8           0.000617406    0.000185289    0.000620978
      8        7          -0.000487876    0.000396232   -0.000238103
      9        6           0.000140768    0.000332488    0.000191093
     10        9           0.000281832    0.000216897    0.000288313
     11        9           0.000339696   -0.000260888   -0.000266541
     12        9          -0.000139722   -0.000457676    0.000278537
     13        1          -0.000177713    0.000087811   -0.000148587
     14        1          -0.000140386   -0.000107170   -0.000142249
     15        1          -0.000185380    0.000095123   -0.000124832
 -------------------------------------------------------------------
 Cartesian Forces:  Max     0.001214382 RMS     0.000530813

 GradGradGradGradGradGradGradGradGradGradGradGradGradGradGradGradGradGrad
 Berny optimization.
 Using GEDIIS/GDIIS optimizer.
 FormGI is forming the generalized inverse of G from B-inverse, IUseBI=4.
 Internal  Forces:  Max     0.000880545 RMS     0.000284295
 Search for a local minimum.
 Step number   4 out of a maximum of   79
 All quantities printed in internal units (Hartrees-Bohrs-Radians)
 Mixed Optimization -- En-DIIS/RFO-DIIS
 Swapping is turned off.
 Update second derivatives using D2CorX and points    1    2    3    4
 DE= -4.98D-05 DEPred=-5.20D-05 R= 9.58D-01
 TightC=F SS=  1.41D+00  RLast= 2.23D-02 DXNew= 7.2393D-01 6.6781D-02
 Trust test= 9.58D-01 RLast= 2.23D-02 DXMaxT set to 4.30D-01
 ITU=  1  1  1  0
     Eigenvalues ---    0.00840   0.01271   0.01488   0.01559   0.01782
     Eigenvalues ---    0.01821   0.01858   0.02011   0.02326   0.02575
     Eigenvalues ---    0.11043   0.11252   0.13083   0.16014   0.16179
     Eigenvalues ---    0.19806   0.22457   0.23686   0.24792   0.25000
     Eigenvalues ---    0.25000   0.25089   0.25813   0.30724   0.31779
     Eigenvalues ---    0.35591   0.37009   0.39283   0.44432   0.44963
     Eigenvalues ---    0.45127   0.46934   0.50448   0.55062   0.55279
     Eigenvalues ---    0.55859   0.57554   0.90969   0.91478
 En-DIIS/RFO-DIIS IScMMF=        0 using points:     4    3
 RFO step:  Lambda=-8.97143302D-06.
 DidBck=F Rises=F RFO-DIIS coefs:    0.96455    0.03545
 Iteration  1 RMS(Cart)=  0.00175449 RMS(Int)=  0.00000574
 Iteration  2 RMS(Cart)=  0.00000464 RMS(Int)=  0.00000367
 Iteration  3 RMS(Cart)=  0.00000000 RMS(Int)=  0.00000367
 Variable       Old X    -DE/DX   Delta X   Delta X   Delta X     New X
                                 (Linear)    (Quad)   (Total)
    R1        2.54774  -0.00016  -0.00007   0.00012   0.00004   2.54779
    R2        2.58051  -0.00074   0.00017  -0.00225  -0.00208   2.57842
    R3        2.04939   0.00018   0.00003   0.00038   0.00040   2.04979
    R4        2.77275  -0.00002   0.00007  -0.00052  -0.00045   2.77230
    R5        2.82858  -0.00079  -0.00016  -0.00143  -0.00160   2.82699
    R6        2.28592   0.00048   0.00002   0.00025   0.00028   2.28620
    R7        2.64985   0.00040  -0.00030   0.00237   0.00207   2.65192
    R8        2.61040  -0.00072   0.00007  -0.00191  -0.00184   2.60856
[...]
 ! A6    A(3,2,9)              118.4874         -DE/DX =    0.0                 !
 ! A7    A(2,3,4)              125.7591         -DE/DX =    0.0                 !
 ! A8    A(2,3,5)              113.2188         -DE/DX =    0.0                 !
 ! A9    A(4,3,5)              121.0222         -DE/DX =    0.0                 !
 ! A10   A(3,5,6)              128.2151         -DE/DX =    0.0                 !
 ! A11   A(3,5,14)             116.1282         -DE/DX =    0.0                 !
 ! A12   A(6,5,14)             115.6567         -DE/DX =    0.0                 !
 ! A13   A(5,6,7)              124.3766         -DE/DX =    0.0                 !
 ! A14   A(5,6,8)              113.1207         -DE/DX =    0.0                 !
 ! A15   A(7,6,8)              122.5027         -DE/DX =    0.0                 !
 ! A16   A(1,8,6)              123.7277         -DE/DX =    0.0                 !
 ! A17   A(1,8,15)             121.2265         -DE/DX =    0.0                 !
 ! A18   A(6,8,15)             115.0458         -DE/DX =    0.0                 !
 ! A19   A(2,9,10)             110.7068         -DE/DX =   -0.0001              !
 ! A20   A(2,9,11)             112.064          -DE/DX =    0.0                 !
 ! A21   A(2,9,12)             112.0645         -DE/DX =    0.0                 !
 ! A22   A(10,9,11)            107.136          -DE/DX =    0.0                 !
 ! A23   A(10,9,12)            107.1364         -DE/DX =    0.0                 !
 ! A24   A(11,9,12)            107.4638         -DE/DX =    0.0001              !
 ! D1    D(8,1,2,3)             -0.0041         -DE/DX =    0.0                 !
 ! D2    D(8,1,2,9)            179.9982         -DE/DX =    0.0                 !
 ! D3    D(13,1,2,3)          -180.0038         -DE/DX =    0.0                 !
 ! D4    D(13,1,2,9)            -0.0016         -DE/DX =    0.0                 !
 ! D5    D(2,1,8,6)             -0.0044         -DE/DX =    0.0                 !
 ! D6    D(2,1,8,15)          -180.0012         -DE/DX =    0.0                 !
 ! D7    D(13,1,8,6)           179.9954         -DE/DX =    0.0                 !
 ! D8    D(13,1,8,15)           -0.0014         -DE/DX =    0.0                 !
 ! D9    D(1,2,3,4)           -180.0045         -DE/DX =    0.0                 !
 ! D10   D(1,2,3,5)              0.0066         -DE/DX =    0.0                 !
 ! D11   D(9,2,3,4)             -0.0068         -DE/DX =    0.0                 !
 ! D12   D(9,2,3,5)           -179.9957         -DE/DX =    0.0                 !
 ! D13   D(1,2,9,10)            -0.0012         -DE/DX =    0.0                 !
 ! D14   D(1,2,9,11)           119.5431         -DE/DX =    0.0                 !
 ! D15   D(1,2,9,12)          -119.5462         -DE/DX =    0.0                 !
 ! D16   D(3,2,9,10)           180.0011         -DE/DX =    0.0                 !
 ! D17   D(3,2,9,11)           -60.4547         -DE/DX =    0.0                 !
 ! D18   D(3,2,9,12)            60.456          -DE/DX =    0.0                 !
 ! D19   D(2,3,5,6)             -0.0013         -DE/DX =    0.0                 !
 ! D20   D(2,3,5,14)           179.998          -DE/DX =    0.0                 !
 ! D21   D(4,3,5,6)           -179.9908         -DE/DX =    0.0                 !
 ! D22   D(4,3,5,14)             0.0085         -DE/DX =    0.0                 !
 ! D23   D(3,5,6,7)           -179.9887         -DE/DX =    0.0                 !
 ! D24   D(3,5,6,8)             -0.006          -DE/DX =    0.0                 !
 ! D25   D(14,5,6,7)             0.012          -DE/DX =    0.0                 !
 ! D26   D(14,5,6,8)           179.9946         -DE/DX =    0.0                 !
 ! D27   D(5,6,8,1)              0.009          -DE/DX =    0.0                 !
 ! D28   D(5,6,8,15)          -179.994          -DE/DX =    0.0                 !
 ! D29   D(7,6,8,1)            179.9921         -DE/DX =    0.0                 !
 ! D30   D(7,6,8,15)            -0.0109         -DE/DX =    0.0                 !
 --------------------------------------------------------------------------------
 GradGradGradGradGradGradGradGradGradGradGradGradGradGradGradGradGradGrad

 1\1\GINC-KATANA1\Freq\RM062X\6-31+G(d)\C5H3F3N2O2\Z5358697\17-Mar-2025
 \0\\#N Geom=AllCheck Guess=TCheck SCRF=Check GenChk RM062X/6-31+G(d) F
 req\\5-(trifluoromethyl)-1H-pyrimidine-2,4-dione\\0,1\C,1.1538320227,1
 .5046836662,2.5753200045\C,0.7925309448,0.3646217826,1.9527583929\C,1.
 5240773944,-0.8789986261,2.2179541887\O,1.2904023014,-1.9567057725,1.7
 200336555\N,2.5698718776,-0.7198098712,3.1400637682\C,2.9643454071,0.4
 298837408,3.7933040003\O,3.8817731902,0.4881841076,4.5791652293\N,2.19
 34440159,1.5419195507,3.4579825914\C,-0.3479840589,0.3290265031,0.9859
 518097\F,-0.9060307829,1.5523321169,0.8605883698\F,0.0407399325,-0.054
 3749919,-0.2364718075\F,-1.3158953207,-0.5075404711,1.3805812665\H,0.6
 371528207,2.4431858957,2.4047905906\H,3.1065509844,-1.5547558692,3.356
 3579246\H,2.4580892709,2.4021482384,3.9210200156\\Version=ES64L-G09Rev
 D.01\State=1-A\HF=-751.620651\RMSD=4.503e-09\RMSF=2.693e-05\ZeroPoint=
 0.0934183\Thermal=0.1030035\Dipole=0.2384544,1.6056857,0.6499959\Dipol
 eDeriv=0.6622599,0.4431089,0.620803,0.2301634,0.4519927,0.3000594,0.56
 11352,0.4787006,0.6752374,-0.434324,0.1214404,-0.1412818,-0.156827,-0.
 8572957,-0.3086481,-0.21922,-0.0751904,-0.4303703,0.9686398,0.0051789,
 0.5107926,0.1518215,1.7377794,0.5130417,0.5518871,0.3899713,0.9339112,
 -0.5132695,-0.0468965,-0.1403861,-0.2245219,-1.304099,-0.4525003,-0.19
 01381,-0.3033743,-0.6061693,-0.8368866,-0.3073491,-0.4904644,-0.295492
 6,-0.7302433,-0.353075,-0.4872293,-0.3630826,-0.865474,1.6794464,0.033
 7456,1.070848,-0.2606627,1.2335345,0.0108366,0.9882933,0.2578053,1.315
 8678,-1.203818,-0.0893887,-0.6917089,0.0077942,-0.5266094,-0.0263434,-
 0.664292,-0.1078577,-0.9968599,-1.0697662,-0.2079567,-0.7034216,0.4889
 668,-0.5894448,0.3293472,-0.5082063,-0.2552968,-0.7987172,1.9716761,0.
 1008832,0.2708323,0.0324789,1.4672059,-0.0330958,0.2516604,0.0242837,1
 .9005001,-0.5535697,0.2573735,-0.1416115,0.2740739,-0.7274383,0.109814
 9,-0.1369299,0.095809,-0.3868357,-0.43667,0.0030171,0.0045504,0.010526
 5,-0.3074127,-0.1707547,0.0038702,-0.1850837,-0.9693898,-0.8104815,-0.
 3328502,-0.0088798,-0.3186605,-0.487851,0.0683052,-0.0021205,0.064426,
 -0.4151255,0.1108539,0.0140686,-0.0225732,0.0296485,0.0789941,0.007093
 2,-0.0182306,-0.0059995,0.1254832,0.2440407,-0.0433904,-0.0653507,-0.0
 413338,0.2495585,-0.0509015,-0.0647737,-0.0526287,0.2383335,0.2218687,
 0.0490153,-0.0721483,0.0720249,0.3113289,0.0568205,-0.0657059,0.037517
 9,0.2796085\Polar=76.1478322,2.8892835,82.9769004,25.311503,12.5206539
 ,71.6870311\PG=C01 [X(C5H3F3N2O2)]\NImag=0\\0.48966916,-0.06395990,0.8
 3992552,0.27283338,0.14157556,0.41169468,-0.12122642,-0.07458506,-0.07
 898811,0.46564289,-0.05143470,-0.39316970,-0.13875286,0.00198281,0.741
 16659,-0.07250079,-0.15817528,-0.15713245,0.27569959,0.17077208,0.4168
 3063,0.04056878,0.00515697,0.03479660,-0.13961405,0.05346249,-0.041891
 42,0.42337051,-0.01084979,-0.04525990,-0.02201419,0.06004743,-0.169787
 56,0.02291395,0.00368276,0.94817152,0.03031202,-0.00858082,0.02384105,
 -0.04004828,0.01739132,-0.10054402,0.19533689,0.21500867,0.41589048,-0
 .00701260,0.00273622,-0.00790506,0.02346138,0.01652977,0.00672124,-0.1
 0979944,-0.09796999,-0.05838067,0.10283327,0.01424054,0.00340829,0.011
 97146,0.00372332,-0.06886748,-0.02204452,-0.09413866,-0.62920137,-0.23
 481143,0.13031960,0.71126846,-0.00468197,0.00231846,0.00004542,0.00313
 355,-0.01130288,0.02043277,-0.05730719,-0.23802148,-0.18767979,0.09429
 458,0.29907705,0.19684869,-0.01202641,-0.00491840,-0.01292449,-0.01943
 848,0.01643819,-0.01772451,-0.16740306,0.02136820,-0.09512399,-0.01147
 134,-0.04020493,-0.03613184,0.47789250,-0.01655707,-0.00940105,-0.0170
 1185,0.02474587,0.02058442,0.02452089,0.04960845,-0.13932365,0.0157181
 6,-0.05823367,-0.01468616,-0.05806337,-0.14055818,0.78857239,-0.016188
 49,-0.00724832,-0.01387614,-0.01539411,0.01754989,-0.00082241,-0.08720
 741,-0.00797593,-0.12230704,-0.04118441,-0.04293802,-0.02841900,0.3139
 6435,0.08716091,0.34459950,-0.03317691,0.01461077,-0.01915965,0.004476
 61,0.01006408,0.00470315,-0.00347359,-0.03100478,0.00366990,-0.0002967
 2,0.00533508,-0.00520209,-0.11692081,-0.02024413,-0.05921301,0.7136709
 4,0.04918325,0.03229342,0.05184247,-0.00123035,-0.03593934,-0.01172871
 ,-0.07656317,0.02879381,-0.05106752,0.02034666,0.00635484,0.01669773,0
 .01286557,-0.25883105,-0.04686101,-0.02510642,0.60643363,-0.00946964,0
 .02283380,-0.00701557,0.00153750,-0.00225062,0.00289217,-0.00909287,-0
 .01284544,-0.02943952,-0.00099499,0.00410601,0.00800226,-0.04993311,-0
 .07464207,-0.11593281,0.41918677,0.09124899,0.58281633,0.00567591,0.00
 617620,0.00210105,-0.00409931,-0.00067147,-0.00259637,0.01065603,0.002
 71712,0.00319011,-0.00317778,-0.00456316,-0.00263411,-0.02005315,-0.03
 061216,-0.04238271,-0.45996566,-0.02017351,-0.32319425,0.52381198,-0.0
 0714266,-0.00941569,-0.01009767,-0.00056351,0.00747719,0.00196681,0.01
 779012,-0.00767182,0.01060155,-0.00549502,-0.00217411,-0.00478162,-0.0
 5181035,0.00014441,-0.04909863,-0.01953642,-0.10494246,-0.02298041,0.0
 1810855,0.09906729,-0.00163163,0.00107734,0.00416971,-0.00256546,0.001
 87555,-0.00285601,0.00740987,-0.00204555,0.01341115,-0.00289466,-0.003
 99986,-0.00511234,-0.04832420,-0.03131472,-0.02907458,-0.32300973,-0.0
 2351352,-0.35894972,0.41210612,0.03213647,0.39328308,-0.22371521,0.026
 07189,-0.14653426,-0.01308408,-0.04198146,-0.02927809,-0.03171128,0.02
 376409,-0.01794972,0.00602939,-0.00757352,0.00319452,0.02569400,0.0151
 8852,0.02022229,-0.12769366,0.03316916,-0.04862923,-0.04593696,0.05102
 901,-0.04112863,0.48354785,-0.01203925,-0.14632375,-0.03978541,-0.0314
 7996,0.01532958,-0.02429960,0.02011732,-0.00667101,0.01567559,-0.00637
 214,-0.00149025,-0.00567747,0.01113495,-0.05896214,-0.00904615,0.05949
 060,-0.22674457,0.00283153,0.03177811,0.00820734,0.02331991,-0.0192915
 2,0.76882943,-0.15721295,-0.00781073,-0.17444526,-0.02633563,-0.033109
 27,-0.02357923,-0.01897340,0.01873667,-0.01304880,0.00353137,-0.006685
 69,0.00078260,0.01908574,-0.00564793,0.02109793,-0.04125532,-0.0192526
 1,-0.09867113,-0.04651928,0.03947008,-0.00784247,0.35242587,0.18321934
 ,0.40407308,-0.01470328,-0.01656141,-0.01516871,-0.16411562,0.00602344
 ,-0.08160152,-0.01117397,0.01721954,-0.00582565,-0.00259164,-0.0109092
 5,-0.00062074,0.00189654,-0.00201764,-0.00067461,-0.00892777,0.0098472
 2,-0.00520901,0.00557312,-0.00166700,0.00480601,0.01902680,-0.00036469
 ,0.00909166,0.60198614,-0.02121717,0.01043658,-0.01427267,0.00967823,-
 0.09586026,-0.00057419,0.02408440,0.02630642,0.02715102,-0.00791884,-0
 .00887843,-0.00759090,0.00174935,-0.00844137,-0.00146615,0.00012705,0.
 00095884,0.00021533,0.00021039,-0.00037317,0.00027173,0.00016567,-0.00
 868944,-0.00455665,0.00226764,0.55537666,-0.01647226,-0.01036677,-0.01
 888037,-0.08057762,-0.00363918,-0.13345946,-0.00390069,0.02139090,0.00
 424225,0.00021660,-0.01010088,-0.00814188,0.00038069,-0.00462549,0.001
 05035,-0.00793231,0.00836999,-0.00373979,0.00533264,-0.00130319,0.0033
 9512,0.00923922,-0.00500187,0.01442010,0.04395604,0.00331140,0.5881572
 2,0.00046376,0.00258941,0.00145731,-0.01616336,0.03766333,-0.01073034,
 -0.00186043,-0.00713404,-0.00501624,0.00064143,0.00185847,0.00074851,-
 0.00227144,0.00233605,-0.00098693,0.00210318,-0.00008589,0.00179820,-0
 .00149111,-0.00017652,-0.00134868,-0.00236753,0.00070148,-0.00193313,-
 0.12801328,0.08315305,-0.02357102,0.13893860,-0.00427217,-0.00696402,-
 0.00542115,0.01474988,-0.01485863,0.00562937,0.00097350,0.00090122,0.0
 0058297,0.00077482,0.00131647,0.00091523,0.00170522,-0.00064560,0.0013
 3817,-0.00167064,-0.00087823,-0.00162835,0.00089136,0.00050390,0.00087
 271,0.00238653,0.00245996,0.00264358,0.08642100,-0.22159474,0.03062205
 ,-0.12132175,0.34971469,-0.00046582,0.00033521,-0.00070462,-0.01715203
 ,0.02485337,0.00178403,-0.00274430,-0.00621876,-0.00230911,0.00044500,
 0.00182440,0.00125412,-0.00116349,0.00186700,-0.00076807,0.00135399,-0
 .00029876,0.00098351,-0.00104960,-0.00002308,-0.00082919,-0.00146069,0
 .00122989,-0.00071024,-0.02265525,0.02788047,-0.08333444,0.01664460,-0
 .02579922,0.08530583,0.00220564,0.00373375,0.00042829,0.00940461,-0.00
 851608,-0.02286796,-0.00006647,-0.00047646,0.00105955,0.00023164,0.001
 00739,-0.00139351,0.00006219,-0.00008096,0.00022153,0.00161968,-0.0018
 6010,0.00090233,-0.00096520,0.00033046,-0.00085273,-0.00367667,-0.0001
 2284,-0.00130162,-0.08868527,0.01208849,0.03899677,-0.00537499,0.03070
 077,0.02809040,0.10970633,0.00163732,0.00090114,0.00114818,-0.00149389
 ,0.00738269,-0.01271657,-0.00140727,-0.00660234,-0.00379526,0.00179442
 ,0.00222618,0.00378036,0.00047682,0.00157826,0.00103075,0.00094992,-0.
 00213889,0.00010062,-0.00053804,0.00048059,-0.00032351,-0.00201167,0.0
 0119952,-0.00054721,0.01556336,-0.09143280,-0.06103588,0.02896990,-0.0
 3777704,-0.04810227,-0.03044098,0.11228154,0.00186286,0.00725153,-0.00
 067128,0.00072311,-0.01988535,-0.04401655,0.00058585,-0.00845263,-0.00
 278451,-0.00020061,0.00537962,0.00227386,-0.00016255,0.00169156,0.0011
 0722,0.00411151,-0.00482988,0.00131319,-0.00240449,0.00097729,-0.00163
 451,-0.00709173,0.00003216,-0.00309789,0.03833673,-0.05750262,-0.27568
 325,0.01923477,-0.03309213,-0.00488425,-0.09859974,0.09509470,0.368553
 88,-0.00236498,0.00598774,0.00410255,-0.03380875,-0.03477002,0.0010485
 4,0.00054174,-0.00643851,-0.00095944,-0.00056585,0.00470546,0.00079248
 ,0.00040740,0.00138393,0.00001441,0.00330332,-0.00459298,0.00218240,-0
 .00225336,0.00088643,-0.00171743,-0.00423890,0.00058299,-0.00623949,-0
 .21138240,-0.10253347,0.03263872,0.01902547,-0.01149558,0.00244578,-0.
 02419894,-0.01391590,0.04332599,0.25639284,0.00043666,0.00176296,0.001
 98677,-0.01974591,-0.00266239,-0.00017742,-0.00231662,-0.00896572,-0.0
 0314360,0.00367189,0.00417672,0.00195674,0.00070906,0.00210666,0.00082
 233,0.00140056,-0.00308919,0.00066137,-0.00093207,0.00067844,-0.000655
 55,-0.00201361,0.00149739,-0.00241823,-0.10564356,-0.15651754,0.032462
 65,-0.02862130,-0.07382999,0.02169373,-0.00649592,0.01151479,0.0124517
 5,0.15976070,0.22298164,0.00052493,0.00229887,0.00303775,-0.01636448,-
 0.01150470,0.00924238,0.00040797,-0.00116353,-0.00102957,-0.00046936,0
 .00056539,0.00112015,0.00036580,0.00025932,0.00023349,0.00143999,-0.00
 179414,0.00057938,-0.00091897,0.00029783,-0.00054428,-0.00170573,0.000
 76592,-0.00283341,0.03340115,0.02862287,-0.08789652,0.00601674,0.02250
 363,0.00677017,0.05554341,0.02537714,-0.03975800,-0.07805184,-0.066353
 71,0.11116082,-0.11657451,0.11955212,-0.02744355,0.01204846,-0.0059749
 1,-0.00015045,0.00241230,0.00055604,-0.00672630,-0.00034940,-0.0013958
 9,0.00131743,0.00026679,0.00023656,0.00085593,0.00100192,-0.00375912,-
 0.00402692,-0.00141036,0.00118396,-0.00044289,-0.01208063,0.02402656,-
 0.00675154,-0.00075849,-0.00234442,0.00244852,-0.00309965,-0.00024814,
 -0.00222756,0.00011012,0.00062298,0.00095473,-0.00079132,-0.00004790,-
 0.00044994,0.11983313,0.12405963,-0.28634118,0.03616661,0.01287331,-0.
 01476938,0.00379441,-0.00162448,-0.00079226,-0.00455846,0.00050536,-0.
 00162815,0.00063620,-0.00018616,0.00047595,0.00016615,-0.00043531,0.00
 089277,-0.00138953,-0.00049139,0.00020792,-0.00021739,-0.00270387,0.00
 784740,-0.00118791,0.00068607,-0.00258857,0.00109959,0.00011289,0.0018
 7513,0.00076799,-0.00002736,0.00038261,0.00049035,-0.00016229,0.000214
 10,-0.00017665,-0.13236298,0.29357564,-0.02617955,0.03238569,-0.056827
 58,0.00513100,-0.01202059,0.01116732,-0.00733792,-0.00272865,0.0036945
 9,0.00185023,-0.00095963,-0.00110241,0.00073805,0.00052127,0.00009090,
 -0.00309644,-0.00417906,0.00077931,-0.00091256,0.00118840,-0.00091971,
 -0.01424180,0.02123951,-0.00200981,0.00329826,-0.00144245,-0.00209683,
 -0.00212640,0.00046530,-0.00218113,-0.00064559,-0.00000691,-0.00082503
 ,0.00093560,0.00096200,0.00024520,0.04123659,-0.03621310,0.05093050,-0
 .00103549,-0.00077368,-0.00051998,-0.00125325,-0.00135563,-0.00474667,
 -0.01105513,0.02452816,-0.00328708,0.00178341,-0.00255499,0.00414872,-
 0.15479194,0.17055712,-0.06893815,0.01180248,-0.00903127,0.00858886,-0
 .00364226,0.00062949,0.00004795,0.00151586,-0.00323561,-0.00324619,0.0
 0028053,0.00132682,0.00007269,-0.00041617,0.00016447,-0.00017645,0.000
 05551,-0.00013945,0.00005879,-0.00007394,-0.00019904,0.00009438,-0.000
 17607,-0.00002413,0.00020682,0.15604020,-0.00059359,0.00027256,-0.0002
 3272,-0.00127446,0.00068206,-0.00198531,-0.00056635,0.01220810,0.00265
 041,-0.00031635,-0.00302817,0.00001123,0.16727888,-0.32039257,0.054947
 38,0.01703806,-0.02166229,0.00863244,-0.00036091,0.00400703,0.00179761
 ,-0.00247252,-0.00252966,-0.00399030,0.00051085,0.00051881,0.00039547,
 -0.00039745,0.00023003,-0.00022670,-0.00008011,-0.00007433,-0.00016344
 ,-0.00021046,-0.00012332,-0.00004773,0.00001154,-0.00001504,0.00012614
 ,-0.17943936,0.33046827,-0.00046971,-0.00038408,-0.00117566,-0.0047236
 0,-0.00205390,-0.00058815,-0.01032113,0.02370683,-0.00096039,0.0047756
 0,-0.00186762,-0.00053098,-0.06985511,0.05770113,-0.05810518,0.0158962
 6,-0.01324512,0.00817426,-0.00023072,0.00262831,-0.00294514,-0.0030328
 1,-0.00462917,0.00046253,-0.00015580,0.00108024,0.00080883,-0.00033408
 ,0.00024482,-0.00036251,0.00009880,-0.00013026,-0.00021157,0.00006779,
 -0.00012113,-0.00003312,0.00021681,0.00009623,-0.00022167,0.06784735,-
 0.06221011,0.05473757,-0.00674744,-0.02581663,-0.00707536,-0.00223062,
 0.00254017,-0.00408442,-0.00139194,-0.00000978,-0.00025109,0.00028425,
 0.00015055,0.00034164,-0.00184280,0.00424732,-0.00310869,0.01247700,0.
 01699095,0.01635397,-0.00272189,-0.00356653,-0.00045391,-0.07130899,-0
 .07492599,-0.07436609,0.00158858,-0.00083719,-0.00082800,-0.00011449,0
 .00024072,0.00011542,-0.00042817,-0.00006752,-0.00073520,0.00000769,0.
 00003707,0.00016593,-0.00043228,-0.00021929,0.00114371,0.00096626,0.00
 087225,0.00022034,0.07189484,-0.00149110,0.00787481,0.00289747,0.00257
 228,0.00329219,0.00210407,0.00174054,-0.00210546,0.00117739,-0.0003727
 2,0.00120317,0.00004473,0.00395180,-0.00277849,0.00161862,-0.01101841,
 -0.02150129,-0.01489367,-0.00153903,0.00380315,0.00071879,-0.07372669,
 -0.35395979,-0.15886312,-0.00137556,0.00077902,-0.00157878,0.00035236,
 -0.00045313,0.00021672,0.00023995,0.00007806,0.00055707,0.00081197,0.0
 0025545,0.00034949,-0.00005638,0.00066308,0.00066207,-0.00045291,-0.00
 056149,-0.00081617,0.08036390,0.36341072,-0.00026038,-0.01751046,-0.01
 205966,-0.00407543,0.00207713,0.00064899,0.00023914,-0.00029087,-0.000
 97677,0.00019512,0.00048372,0.00022653,-0.00319134,0.00186518,0.001125
 86,0.00850697,0.00861114,0.00820812,0.00011312,-0.00098213,-0.00355111
 ,-0.07402920,-0.15987417,-0.11459798,-0.00097857,-0.00112743,0.0011586
 9,0.00014671,0.00012302,-0.00001410,0.00032006,0.00012611,0.00031868,-
 0.00058605,-0.00012771,-0.00029443,0.00118915,0.00052551,-0.00072366,-
 0.00015104,0.00029562,0.00095117,0.07256174,0.16580531,0.11957969\\0.0
 0003717,-0.00002266,0.00002222,0.00000215,-0.00001906,0.00000789,0.000
 00064,0.00003769,-0.00003075,-0.00002092,-0.00000956,-0.00000400,0.000
 03922,-0.00001583,0.00002234,-0.00005962,-0.00003745,0.00000334,0.0000
 4151,0.00001054,0.00001212,-0.00001629,0.00003904,-0.00001773,0.000028
 02,-0.00001895,0.00001902,-0.00005468,0.00006183,-0.00003009,-0.000032
 09,-0.00002836,0.00003464,0.00003093,-0.00001014,-0.00004334,0.0000016
 0,-0.00000288,-0.00000084,0.00000772,0.00001238,0.00000901,-0.00000535
 ,0.00000342,-0.00000384\\\@


 ... SUBJECTS WHICH DISCLOSE THEIR FULL POWER, MEANING AND BEAUTY AS SOON
 AS THEY ARE PRESENTED TO THE MIND HAVE VERY LITTLE OF THOSE QUALITIES
 TO DISCLOSE.
                           -- CHARLES DUTTON (1882)
 Job cpu time:       0 days  0 hours 10 minutes 36.6 seconds.
 File lengths (MBytes):  RWF=    223 Int=      0 D2E=      0 Chk=      6 Scr=      2
 Normal termination of Gaussian 09 at Mon Mar 17 19:22:32 2025.
