 Entering Gaussian System, Link 0=g09
 Initial command:
 /apps/z_install_tree/linux-rocky8-ivybridge/gcc-12.2.0/gaussian-09-D.01-wczn3gur5lpur3omlkzwa2l5ecyxp5ef/g09/l1.exe "/srv/scratch/z5358697/gauss/Gau-4063996.inp" -scrdir="/srv/scratch/z5358697/gauss/"
 Entering Link 1 = /apps/z_install_tree/linux-rocky8-ivybridge/gcc-12.2.0/gaussian-09-D.01-wczn3gur5lpur3omlkzwa2l5ecyxp5ef/g09/l1.exe PID=   4064004.
  
 Copyright (c) 1988,1990,1992,1993,1995,1998,2003,2009,2013,
            Gaussian, Inc.  All Rights Reserved.
  
 This is part of the Gaussian(R) 09 program.  It is based on
 the Gaussian(R) 03 system (copyright 2003, Gaussian, Inc.),
 the Gaussian(R) 98 system (copyright 1998, Gaussian, Inc.),
 the Gaussian(R) 94 system (copyright 1995, Gaussian, Inc.),
 the Gaussian 92(TM) system (copyright 1992, Gaussian, Inc.),
 the Gaussian 90(TM) system (copyright 1990, Gaussian, Inc.),
 the Gaussian 88(TM) system (copyright 1988, Gaussian, Inc.),
 the Gaussian 86(TM) system (copyright 1986, Carnegie Mellon
 University), and the Gaussian 82(TM) system (copyright 1983,
 Carnegie Mellon University). Gaussian is a federally registered
 trademark of Gaussian, Inc.
  
 This software contains proprietary and confidential information,
 including trade secrets, belonging to Gaussian, Inc.
  
 This software is provided under written license and may be
 used, copied, transmitted, or stored only in accord with that
 written license.
  
 The following legend is applicable only to US Government
 contracts under FAR:
  
                    RESTRICTED RIGHTS LEGEND
  
 Use, reproduction and disclosure by the US Government is
 subject to restrictions as set forth in subparagraphs (a)
 and (c) of the Commercial Computer Software - Restricted
 Rights clause in FAR 52.227-19.
  
 Gaussian, Inc.
 340 Quinnipiac St., Bldg. 40, Wallingford CT 06492
  
  
 ---------------------------------------------------------------
 Warning -- This program may not be used in any manner that
 competes with the business of Gaussian, Inc. or will provide
 assistance to any competitor of Gaussian, Inc.  The licensee
 of this program is prohibited from giving any competitor of
 Gaussian, Inc. access to this program.  By using this program,
 the user acknowledges that Gaussian, Inc. is engaged in the
 business of creating and licensing software in the field of
 computational chemistry and represents and warrants to the
 licensee that it is not a competitor of Gaussian, Inc. and that
 it will not use this program in any manner prohibited above.
 ---------------------------------------------------------------
  

 Cite this work as:
 Gaussian 09, Revision D.01,
 M. J. Frisch, G. W. Trucks, H. B. Schlegel, G. E. Scuseria, 
 M. A. Robb, J. R. Cheeseman, G. Scalmani, V. Barone, B. Mennucci, 
 G. A. Petersson, H. Nakatsuji, M. Caricato, X. Li, H. P. Hratchian, 
 A. F. Izmaylov, J. Bloino, G. Zheng, J. L. Sonnenberg, M. Hada, 
 M. Ehara, K. Toyota, R. Fukuda, J. Hasegawa, M. Ishida, T. Nakajima, 
 Y. Honda, O. Kitao, H. Nakai, T. Vreven, J. A. Montgomery, Jr., 
 J. E. Peralta, F. Ogliaro, M. Bearpark, J. J. Heyd, E. Brothers, 
 K. N. Kudin, V. N. Staroverov, T. Keith, R. Kobayashi, J. Normand, 
 K. Raghavachari, A. Rendell, J. C. Burant, S. S. Iyengar, J. Tomasi, 
 M. Cossi, N. Rega, J. M. Millam, M. Klene, J. E. Knox, J. B. Cross, 
 V. Bakken, C. Adamo, J. Jaramillo, R. Gomperts, R. E. Stratmann, 
 O. Yazyev, A. J. Austin, R. Cammi, C. Pomelli, J. W. Ochterski, 
 R. L. Martin, K. Morokuma, V. G. Zakrzewski, G. A. Voth, 
 P. Salvador, J. J. Dannenberg, S. Dapprich, A. D. Daniels, 
 O. Farkas, J. B. Foresman, J. V. Ortiz, J. Cioslowski, 
 and D. J. Fox, Gaussian, Inc., Wallingford CT, 2013.
 
 ******************************************
 Gaussian 09:  ES64L-G09RevD.01 24-Apr-2013
                17-Mar-2025 
 ******************************************
 ---------------------------------
 #m062X/6-31+G(d) OPT Freq=noraman
 ---------------------------------
 1/14=-1,18=20,19=15,26=3,38=1/1,3;
 2/9=110,12=2,17=6,18=5,40=1/2;
 3/5=1,6=6,7=11,11=2,16=1,25=1,30=1,71=1,74=-55/1,2,3;
 4//1;
 5/5=2,38=5/2;
 6/7=2,8=2,9=2,10=2,28=1/1;
 7//1,2,3,16;
 1/14=-1,18=20,19=15,26=3/3(2);
 2/9=110/2;
 99//99;
 2/9=110/2;
 3/5=1,6=6,7=11,11=2,16=1,25=1,30=1,71=1,74=-55/1,2,3;
 4/5=5,16=3,69=1/1;
 5/5=2,38=5/2;
 7//1,2,3,16;
 1/14=-1,18=20,19=15,26=3/3(-5);
 2/9=110/2;
 6/7=2,8=2,9=2,10=2,19=2,28=1/1;
 99/9=1/99;
 ------------
 cyclopentane
 ------------
 Symbolic Z-matrix:
 Charge =  0 Multiplicity = 1
 C                    -0.2457    0.8538   -0.9315 
 C                     1.1261    0.4809   -0.3704 
 C                     0.8452   -0.3299    0.8861 
 C                    -0.4578   -1.0394    0.5622 
 C                    -1.2679    0.0346   -0.1465 
 H                    -0.2939    0.6216   -2.001 
 H                    -0.4438    1.9254   -0.8209 
 H                     1.6661   -0.1349   -1.0998 
 H                     1.7403    1.3619   -0.1613 
 H                     1.6549   -1.0272    1.1195 
 H                     0.7094    0.3391    1.744 
 H                    -0.2738   -1.8833   -0.1131 
 H                    -0.9615   -1.4188    1.4556 
 H                    -2.0428   -0.3896   -0.792 
 H                    -1.7643    0.6757    0.5918 
 

 GradGradGradGradGradGradGradGradGradGradGradGradGradGradGradGradGradGrad
 Berny optimization.
 Initialization pass.
                           ----------------------------
                           !    Initial Parameters    !
                           ! (Angstroms and Degrees)  !
 --------------------------                            --------------------------
 ! Name  Definition              Value          Derivative Info.                !
 --------------------------------------------------------------------------------
 ! R1    R(1,2)                  1.5283         estimate D2E/DX2                !
 ! R2    R(1,5)                  1.5272         estimate D2E/DX2                !
 ! R3    R(1,6)                  1.0955         estimate D2E/DX2                !
 ! R4    R(1,7)                  1.0954         estimate D2E/DX2                !
 ! R5    R(2,3)                  1.5215         estimate D2E/DX2                !
 ! R6    R(2,8)                  1.0967         estimate D2E/DX2                !
 ! R7    R(2,9)                  1.0941         estimate D2E/DX2                !
 ! R8    R(3,4)                  1.5186         estimate D2E/DX2                !
 ! R9    R(3,10)                 1.0938         estimate D2E/DX2                !
 ! R10   R(3,11)                 1.0964         estimate D2E/DX2                !
 ! R11   R(4,5)                  1.5205         estimate D2E/DX2                !
 ! R12   R(4,12)                 1.0964         estimate D2E/DX2                !
 ! R13   R(4,13)                 1.0935         estimate D2E/DX2                !
 ! R14   R(5,14)                 1.0941         estimate D2E/DX2                !
 ! R15   R(5,15)                 1.0966         estimate D2E/DX2                !
 ! A1    A(2,1,5)              106.3318         estimate D2E/DX2                !
 ! A2    A(2,1,6)              110.2555         estimate D2E/DX2                !
 ! A3    A(2,1,7)              111.344          estimate D2E/DX2                !
 ! A4    A(5,1,6)              111.0195         estimate D2E/DX2                !
 ! A5    A(5,1,7)              110.5994         estimate D2E/DX2                !
 ! A6    A(6,1,7)              107.3367         estimate D2E/DX2                !
 ! A7    A(1,2,3)              105.5153         estimate D2E/DX2                !
 ! A8    A(1,2,8)              109.559          estimate D2E/DX2                !
 ! A9    A(1,2,9)              112.1832         estimate D2E/DX2                !
 ! A10   A(3,2,8)              109.9323         estimate D2E/DX2                !
 ! A11   A(3,2,9)              112.0177         estimate D2E/DX2                !
 ! A12   A(8,2,9)              107.6267         estimate D2E/DX2                !
 ! A13   A(2,3,4)              103.3699         estimate D2E/DX2                !
 ! A14   A(2,3,10)             112.2888         estimate D2E/DX2                !
 ! A15   A(2,3,11)             110.1145         estimate D2E/DX2                !
 ! A16   A(4,3,10)             112.5103         estimate D2E/DX2                !
 ! A17   A(4,3,11)             110.2253         estimate D2E/DX2                !
 ! A18   A(10,3,11)            108.2845         estimate D2E/DX2                !
 ! A19   A(3,4,5)              103.0938         estimate D2E/DX2                !
 ! A20   A(3,4,12)             110.3034         estimate D2E/DX2                !
 ! A21   A(3,4,13)             112.5238         estimate D2E/DX2                !
 ! A22   A(5,4,12)             110.2434         estimate D2E/DX2                !
 ! A23   A(5,4,13)             112.3611         estimate D2E/DX2                !
 ! A24   A(12,4,13)            108.2679         estimate D2E/DX2                !
 ! A25   A(1,5,4)              105.1806         estimate D2E/DX2                !
 ! A26   A(1,5,14)             112.2579         estimate D2E/DX2                !
 ! A27   A(1,5,15)             109.601          estimate D2E/DX2                !
 ! A28   A(4,5,14)             112.2385         estimate D2E/DX2                !
 ! A29   A(4,5,15)             109.8962         estimate D2E/DX2                !
 ! A30   A(14,5,15)            107.6544         estimate D2E/DX2                !
 ! D1    D(5,1,2,3)            -10.523          estimate D2E/DX2                !
 ! D2    D(5,1,2,8)            107.7776         estimate D2E/DX2                !
 ! D3    D(5,1,2,9)           -132.7562         estimate D2E/DX2                !
 ! D4    D(6,1,2,3)           -130.9566         estimate D2E/DX2                !
 ! D5    D(6,1,2,8)            -12.6561         estimate D2E/DX2                !
 ! D6    D(6,1,2,9)            106.8101         estimate D2E/DX2                !
 ! D7    D(7,1,2,3)            110.0162         estimate D2E/DX2                !
 ! D8    D(7,1,2,8)           -131.6832         estimate D2E/DX2                !
 ! D9    D(7,1,2,9)            -12.217          estimate D2E/DX2                !
 ! D10   D(2,1,5,4)            -14.8291         estimate D2E/DX2                !
 ! D11   D(2,1,5,14)          -137.1572         estimate D2E/DX2                !
 ! D12   D(2,1,5,15)           103.2659         estimate D2E/DX2                !
 ! D13   D(6,1,5,4)            105.1099         estimate D2E/DX2                !
 ! D14   D(6,1,5,14)           -17.2182         estimate D2E/DX2                !
 ! D15   D(6,1,5,15)          -136.7951         estimate D2E/DX2                !
 ! D16   D(7,1,5,4)           -135.8475         estimate D2E/DX2                !
 ! D17   D(7,1,5,14)           101.8244         estimate D2E/DX2                !
 ! D18   D(7,1,5,15)           -17.7525         estimate D2E/DX2                !
 ! D19   D(1,2,3,4)             31.8459         estimate D2E/DX2                !
 ! D20   D(1,2,3,10)           153.3605         estimate D2E/DX2                !
 ! D21   D(1,2,3,11)           -85.8948         estimate D2E/DX2                !
 ! D22   D(8,2,3,4)            -86.2045         estimate D2E/DX2                !
 ! D23   D(8,2,3,10)            35.3101         estimate D2E/DX2                !
 ! D24   D(8,2,3,11)           156.0548         estimate D2E/DX2                !
 ! D25   D(9,2,3,4)            154.1856         estimate D2E/DX2                !
 ! D26   D(9,2,3,10)           -84.2999         estimate D2E/DX2                !
 ! D27   D(9,2,3,11)            36.4449         estimate D2E/DX2                !
 ! D28   D(2,3,4,5)            -40.9858         estimate D2E/DX2                !
 ! D29   D(2,3,4,12)            76.7136         estimate D2E/DX2                !
 ! D30   D(2,3,4,13)          -162.2718         estimate D2E/DX2                !
 ! D31   D(10,3,4,5)          -162.3511         estimate D2E/DX2                !
 ! D32   D(10,3,4,12)          -44.6517         estimate D2E/DX2                !
 ! D33   D(10,3,4,13)           76.3629         estimate D2E/DX2                !
 ! D34   D(11,3,4,5)            76.6773         estimate D2E/DX2                !
 ! D35   D(11,3,4,12)         -165.6233         estimate D2E/DX2                !
 ! D36   D(11,3,4,13)          -44.6086         estimate D2E/DX2                !
 ! D37   D(3,4,5,1)             34.5061         estimate D2E/DX2                !
 ! D38   D(3,4,5,14)           156.8467         estimate D2E/DX2                !
 ! D39   D(3,4,5,15)           -83.3895         estimate D2E/DX2                !
 ! D40   D(12,4,5,1)           -83.2355         estimate D2E/DX2                !
 ! D41   D(12,4,5,14)           39.1051         estimate D2E/DX2                !
 ! D42   D(12,4,5,15)          158.8688         estimate D2E/DX2                !
 ! D43   D(13,4,5,1)           155.9024         estimate D2E/DX2                !
 ! D44   D(13,4,5,14)          -81.757          estimate D2E/DX2                !
 ! D45   D(13,4,5,15)           38.0068         estimate D2E/DX2                !
 --------------------------------------------------------------------------------
 Trust Radius=3.00D-01 FncErr=1.00D-07 GrdErr=1.00D-06
 Number of steps in this run=    100 maximum allowed number of steps=    100.
 GradGradGradGradGradGradGradGradGradGradGradGradGradGradGradGradGradGrad

                          Input orientation:                          
 ---------------------------------------------------------------------
 Center     Atomic      Atomic             Coordinates (Angstroms)
 Number     Number       Type             X           Y           Z
 ---------------------------------------------------------------------
      1          6           0       -0.245700    0.853800   -0.931500
      2          6           0        1.126100    0.480900   -0.370400
      3          6           0        0.845200   -0.329900    0.886100
      4          6           0       -0.457800   -1.039400    0.562200
      5          6           0       -1.267900    0.034600   -0.146500
      6          1           0       -0.293900    0.621600   -2.001000
      7          1           0       -0.443800    1.925400   -0.820900
      8          1           0        1.666100   -0.134900   -1.099800
      9          1           0        1.740300    1.361900   -0.161300
     10          1           0        1.654900   -1.027200    1.119500
     11          1           0        0.709400    0.339100    1.744000
     12          1           0       -0.273800   -1.883300   -0.113100
     13          1           0       -0.961500   -1.418800    1.455600
     14          1           0       -2.042800   -0.389600   -0.792000
     15          1           0       -1.764300    0.675700    0.591800
 ---------------------------------------------------------------------
                    Distance matrix (angstroms):
                    1          2          3          4          5
     1  C    0.000000
     2  C    1.528307   0.000000
     3  C    2.427937   1.521543   0.000000
     4  C    2.420812   2.385329   1.518588   0.000000
     5  C    1.527156   2.445516   2.379982   1.520524   0.000000
     6  H    1.095477   2.166807   3.246267   3.058722   2.175412
     7  H    1.095355   2.180394   3.108335   3.271575   2.170042
     8  H    2.158896   1.096738   2.157707   2.844524   3.089639
     9  H    2.189879   1.094132   2.181843   3.334867   3.288041
    10  H    3.370021   2.184902   1.093763   2.185002   3.357519
    11  H    2.887115   2.159730   1.096355   2.158534   2.752531
    12  H    2.856971   2.759595   2.159540   1.096382   2.160484
    13  H    3.372733   3.361727   2.184994   1.093536   2.184714
    14  H    2.189765   3.313223   3.340678   2.183649   1.094114
    15  H    2.158311   3.052571   2.811998   2.156244   1.096590
                    6          7          8          9         10
     6  H    0.000000
     7  H    1.764936   0.000000
     8  H    2.286056   2.962144   0.000000
     9  H    2.840864   2.350085   1.768247   0.000000
    10  H    4.031610   4.109445   2.391990   2.712110   0.000000
    11  H    3.887344   3.228766   3.037622   2.395630   1.775034
    12  H    3.136733   3.877638   2.791718   3.819718   2.443787
    13  H    4.069030   4.078497   3.883652   4.200760   2.666808
    14  H    2.354327   2.813692   3.730355   4.216323   4.211099
    15  H    2.981210   2.302432   3.909760   3.649692   3.856069
                   11         12         13         14         15
    11  H    0.000000
    12  H    3.058523   0.000000
    13  H    2.442395   1.774686   0.000000
    14  H    3.812729   2.412759   2.698179   0.000000
    15  H    2.749556   3.044167   2.403657   1.768426   0.000000
 Stoichiometry    C5H10
 Framework group  C1[X(C5H10)]
 Deg. of freedom    39
 Full point group                 C1      NOp   1
 Largest Abelian subgroup         C1      NOp   1
 Largest concise Abelian subgroup C1      NOp   1
                         Standard orientation:                         
 ---------------------------------------------------------------------
 Center     Atomic      Atomic             Coordinates (Angstroms)
 Number     Number       Type             X           Y           Z
 ---------------------------------------------------------------------
      1          6           0        1.282390   -0.075061    0.012347
      2          6           0        0.438526    1.194024    0.126540
      3          6           0       -0.978253    0.774794   -0.236886
      4          6           0       -1.054276   -0.662518    0.247331
      5          6           0        0.298582   -1.231800   -0.149769
      6          1           0        1.896362   -0.204339    0.910343
      7          1           0        1.963293   -0.025334   -0.844217
      8          1           0        0.466307    1.561716    1.159431
      9          1           0        0.807889    1.995338   -0.520447
     10          1           0       -1.732774    1.414396    0.229938
     11          1           0       -1.116717    0.816450   -1.323664
     12          1           0       -1.172868   -0.691126    1.336904
     13          1           0       -1.885413   -1.212686   -0.202500
     14          1           0        0.576305   -2.099954    0.455427
     15          1           0        0.275800   -1.551104   -1.198595
 ---------------------------------------------------------------------
 Rotational constants (GHZ):      6.6271355      6.6189876      3.8323681
 Standard basis: 6-31+G(d) (6D, 7F)
 There are   115 symmetry adapted cartesian basis functions of A   symmetry.
 There are   115 symmetry adapted basis functions of A   symmetry.
   115 basis functions,   200 primitive gaussians,   115 cartesian basis functions
    20 alpha electrons       20 beta electrons
       nuclear repulsion energy       189.1078058116 Hartrees.
 NAtoms=   15 NActive=   15 NUniq=   15 SFac= 1.00D+00 NAtFMM=   60 NAOKFM=F Big=F
 Integral buffers will be    131072 words long.
 Raffenetti 2 integral format.
 Two-electron integral symmetry is turned on.
 One-electron integrals computed using PRISM.
 NBasis=   115 RedAO= T EigKep=  2.94D-05  NBF=   115
 NBsUse=   115 1.00D-06 EigRej= -1.00D+00 NBFU=   115
 ExpMin= 4.38D-02 ExpMax= 3.05D+03 ExpMxC= 4.57D+02 IAcc=2 IRadAn=         4 AccDes= 0.00D+00
 Harris functional with IExCor= 1009 and IRadAn=       4 diagonalized for initial guess.
 HarFok:  IExCor= 1009 AccDes= 0.00D+00 IRadAn=         4 IDoV= 1 UseB2=F ITyADJ=14
 ICtDFT=  3500011 ScaDFX=  1.000000  1.000000  1.000000  1.000000
 FoFCou: FMM=F IPFlag=           0 FMFlag=      100000 FMFlg1=           0
         NFxFlg=           0 DoJE=T BraDBF=F KetDBF=T FulRan=T
         wScrn=  0.000000 ICntrl=     500 IOpCl=  0 I1Cent=   200000004 NGrid=           0
         NMat0=    1 NMatS0=      1 NMatT0=    0 NMatD0=    1 NMtDS0=    0 NMtDT0=    0
 Petite list used in FoFCou.
 Keep R1 ints in memory in canonical form, NReq=23244378.
 Requested convergence on RMS density matrix=1.00D-08 within 128 cycles.
 Requested convergence on MAX density matrix=1.00D-06.
 Requested convergence on             energy=1.00D-06.
 No special actions if energy rises.
 DSYEVD-2 returned Info=        6843 IAlg= 4 N=   115 NDim=   115 NE2=       97678 trying  DSYEV.
 SCF Done:  E(RM062X) =  -196.450811291     A.U. after   10 cycles
            NFock= 10  Conv=0.30D-08     -V/T= 2.0084

 **********************************************************************

            Population analysis using the SCF density.

 **********************************************************************

 Orbital symmetries:
       Occupied  (A) (A) (A) (A) (A) (A) (A) (A) (A) (A) (A) (A)
                 (A) (A) (A) (A) (A) (A) (A) (A)
       Virtual   (A) (A) (A) (A) (A) (A) (A) (A) (A) (A) (A) (A)
                 (A) (A) (A) (A) (A) (A) (A) (A) (A) (A) (A) (A)
                 (A) (A) (A) (A) (A) (A) (A) (A) (A) (A) (A) (A)
                 (A) (A) (A) (A) (A) (A) (A) (A) (A) (A) (A) (A)
                 (A) (A) (A) (A) (A) (A) (A) (A) (A) (A) (A) (A)
                 (A) (A) (A) (A) (A) (A) (A) (A) (A) (A) (A) (A)
                 (A) (A) (A) (A) (A) (A) (A) (A) (A) (A) (A) (A)
                 (A) (A) (A) (A) (A) (A) (A) (A) (A) (A) (A)
 The electronic state is 1-A.
 Alpha  occ. eigenvalues --  -10.53360 -10.53325 -10.53278 -10.53262 -10.53205
 Alpha  occ. eigenvalues --   -0.93921  -0.79978  -0.79976  -0.64701  -0.63619
 Alpha  occ. eigenvalues --   -0.55508  -0.54800  -0.48160  -0.48032  -0.39352
 Alpha  occ. eigenvalues --   -0.39289  -0.39190  -0.38677  -0.38157  -0.36910
 Alpha virt. eigenvalues --    0.03058   0.04079   0.04237   0.04299   0.05568
 Alpha virt. eigenvalues --    0.07215   0.08294   0.08397   0.08553   0.12132
 Alpha virt. eigenvalues --    0.12137   0.12351   0.12471   0.13534   0.13867
 Alpha virt. eigenvalues --    0.14143   0.16281   0.17378   0.18574   0.19694
 Alpha virt. eigenvalues --    0.20639   0.25070   0.25557   0.29229   0.29374
 Alpha virt. eigenvalues --    0.32441   0.33611   0.36043   0.36141   0.37187
 Alpha virt. eigenvalues --    0.39065   0.40128   0.40301   0.41402   0.44358
 Alpha virt. eigenvalues --    0.66535   0.68610   0.69178   0.70759   0.71111
 Alpha virt. eigenvalues --    0.71847   0.76700   0.77641   0.79766   0.79912
 Alpha virt. eigenvalues --    0.81647   0.84282   0.88948   0.91792   1.01238
 Alpha virt. eigenvalues --    1.02127   1.02771   1.03766   1.04292   1.13010
 Alpha virt. eigenvalues --    1.14817   1.17518   1.17633   1.19221   1.22870
 Alpha virt. eigenvalues --    1.24325   1.38437   1.40063   1.40867   1.64466
 Alpha virt. eigenvalues --    1.68434   1.73253   1.86744   1.88066   1.90112
 Alpha virt. eigenvalues --    1.92361   2.02009   2.06270   2.07958   2.08974
 Alpha virt. eigenvalues --    2.14495   2.15625   2.16895   2.25249   2.30809
 Alpha virt. eigenvalues --    2.32433   2.45389   2.49902   2.51931   2.60216
 Alpha virt. eigenvalues --    2.61636   2.70176   2.70374   2.70881   2.88856
 Alpha virt. eigenvalues --    4.23008   4.34743   4.35137   4.63396   4.73564
          Condensed to atoms (all electrons):
               1          2          3          4          5          6
     1  C    6.107391  -0.169631   0.007453  -0.028706  -0.146613   0.423466
     2  C   -0.169631   6.031056   0.015737  -0.200013   0.109111  -0.061401
     3  C    0.007453   0.015737   5.800295   0.158616  -0.225004   0.013707
     4  C   -0.028706  -0.200013   0.158616   5.772989   0.051891  -0.000741
     5  C   -0.146613   0.109111  -0.225004   0.051891   5.994584  -0.046767
     6  H    0.423466  -0.061401   0.013707  -0.000741  -0.046767   0.497927
     7  H    0.419007  -0.045581  -0.001650   0.015136  -0.057677  -0.027187
     8  H   -0.070724   0.435839  -0.051416   0.004210   0.004303  -0.008884
     9  H   -0.045009   0.401462  -0.046276   0.019000   0.000548   0.002321
    10  H    0.007709  -0.046857   0.396318  -0.048223   0.019327  -0.000128
    11  H    0.002909  -0.070614   0.441694  -0.053756  -0.002429  -0.000095
    12  H    0.002374  -0.002477  -0.055776   0.442187  -0.068673   0.000427
    13  H    0.009159   0.018007  -0.047947   0.395795  -0.046681  -0.000092
    14  H   -0.045773   0.001861   0.019687  -0.046127   0.399771  -0.006626
    15  H   -0.071457   0.003166   0.003606  -0.051720   0.437408   0.003462
               7          8          9         10         11         12
     1  C    0.419007  -0.070724  -0.045009   0.007709   0.002909   0.002374
     2  C   -0.045581   0.435839   0.401462  -0.046857  -0.070614  -0.002477
     3  C   -0.001650  -0.051416  -0.046276   0.396318   0.441694  -0.055776
     4  C    0.015136   0.004210   0.019000  -0.048223  -0.053756   0.442187
     5  C   -0.057677   0.004303   0.000548   0.019327  -0.002429  -0.068673
     6  H   -0.027187  -0.008884   0.002321  -0.000128  -0.000095   0.000427
     7  H    0.497426   0.003314  -0.006711  -0.000088   0.000322  -0.000089
     8  H    0.003314   0.500741  -0.026783  -0.005924   0.003808   0.000733
     9  H   -0.006711  -0.026783   0.497436   0.000860  -0.006206  -0.000063
    10  H   -0.000088  -0.005924   0.000860   0.499242  -0.026422  -0.005073
    11  H    0.000322   0.003808  -0.006206  -0.026422   0.499952   0.003785
    12  H   -0.000089   0.000733  -0.000063  -0.005073   0.003785   0.499531
    13  H   -0.000128  -0.000095  -0.000127   0.000245  -0.005098  -0.026489
    14  H    0.002049  -0.000077  -0.000076  -0.000128  -0.000063  -0.005829
    15  H   -0.008478  -0.000108  -0.000041  -0.000090   0.000750   0.003824
              13         14         15
     1  C    0.009159  -0.045773  -0.071457
     2  C    0.018007   0.001861   0.003166
     3  C   -0.047947   0.019687   0.003606
     4  C    0.395795  -0.046127  -0.051720
     5  C   -0.046681   0.399771   0.437408
     6  H   -0.000092  -0.006626   0.003462
     7  H   -0.000128   0.002049  -0.008478
     8  H   -0.000095  -0.000077  -0.000108
     9  H   -0.000127  -0.000076  -0.000041
    10  H    0.000245  -0.000128  -0.000090
    11  H   -0.005098  -0.000063   0.000750
    12  H   -0.026489  -0.005829   0.003824
    13  H    0.499225   0.000678  -0.005738
    14  H    0.000678   0.497930  -0.026805
    15  H   -0.005738  -0.026805   0.501107
 Mulliken charges:
               1
     1  C   -0.401555
     2  C   -0.419667
     3  C   -0.429045
     4  C   -0.430539
     5  C   -0.423099
     6  H    0.210611
     7  H    0.210335
     8  H    0.211063
     9  H    0.209666
    10  H    0.209233
    11  H    0.211463
    12  H    0.211608
    13  H    0.209286
    14  H    0.209527
    15  H    0.211114
 Sum of Mulliken charges =   0.00000
 Mulliken charges with hydrogens summed into heavy atoms:
               1
     1  C    0.019391
     2  C    0.001061
     3  C   -0.008350
     4  C   -0.009644
     5  C   -0.002458
 Electronic spatial extent (au):  <R**2>=            407.8411
 Charge=              0.0000 electrons
 Dipole moment (field-independent basis, Debye):
    X=             -0.0160    Y=             -0.0016    Z=              0.0000  Tot=              0.0161
 Quadrupole moment (field-independent basis, Debye-Ang):
   XX=            -34.3620   YY=            -34.3569   ZZ=            -32.8257
   XY=              0.0028   XZ=             -0.0202   YZ=             -0.0742
 Traceless Quadrupole moment (field-independent basis, Debye-Ang):
   XX=             -0.5138   YY=             -0.5087   ZZ=              1.0225
   XY=              0.0028   XZ=             -0.0202   YZ=             -0.0742
 Octapole moment (field-independent basis, Debye-Ang**2):
  XXX=             -0.7325  YYY=             -0.0708  ZZZ=              0.0096  XYY=             -0.1640
  XXY=              0.0052  XXZ=             -0.1846  XZZ=              0.5864  YZZ=              0.0347
  YYZ=              0.1653  XYZ=             -1.0459
 Hexadecapole moment (field-independent basis, Debye-Ang**3):
 XXXX=           -253.5743 YYYY=           -252.8121 ZZZZ=            -78.9535 XXXY=              0.3130
 XXXZ=             -0.1343 YYYX=             -0.2963 YYYZ=             -2.1161 ZZZX=              0.0783
 ZZZY=              0.3329 XXYY=            -83.2611 XXZZ=            -53.3848 YYZZ=            -53.6253
 XXYZ=              0.7294 YYXZ=             -0.2108 ZZXY=              0.0103
 N-N= 1.891078058116D+02 E-N=-8.319769242896D+02  KE= 1.948166970789D+02
 Calling FoFJK, ICntrl=      2127 FMM=F ISym2X=0 I1Cent= 0 IOpClX= 0 NMat=1 NMatS=1 NMatT=0.
 ***** Axes restored to original set *****
 -------------------------------------------------------------------
 Center     Atomic                   Forces (Hartrees/Bohr)
 Number     Number              X              Y              Z
 -------------------------------------------------------------------
      1        6          -0.002932089    0.009162854   -0.010435224
      2        6           0.011297022    0.003090401   -0.002683045
      3        6           0.006249402   -0.004382068    0.004541999
      4        6          -0.003728591   -0.004864433    0.005768152
      5        6          -0.011258477   -0.000754026   -0.000090650
      6        1          -0.000734767    0.001920151   -0.000023147
      7        1          -0.000057506   -0.000277449   -0.002057486
      8        1           0.001406467    0.000276387    0.001268498
      9        1           0.001738710   -0.000612520   -0.001288170
     10        1           0.001128960    0.000767588    0.002486284
     11        1          -0.000629455   -0.000340848    0.001211265
     12        1           0.000824886   -0.000931663   -0.000130049
     13        1          -0.000604009   -0.002646950   -0.000159520
     14        1          -0.001763198    0.000985398    0.000981403
     15        1          -0.000937353   -0.001392822    0.000609690
 -------------------------------------------------------------------
 Cartesian Forces:  Max     0.011297022 RMS     0.003850995

 GradGradGradGradGradGradGradGradGradGradGradGradGradGradGradGradGradGrad
 Berny optimization.
 FormGI is forming the generalized inverse of G from B-inverse, IUseBI=4.
 Internal  Forces:  Max     0.014009711 RMS     0.002779472
 Search for a local minimum.
 Step number   1 out of a maximum of  100
 All quantities printed in internal units (Hartrees-Bohrs-Radians)
 Mixed Optimization -- RFO/linear search
 Second derivative matrix not updated -- first step.
 ITU=  0
     Eigenvalues ---    0.00448   0.00672   0.02166   0.02183   0.04240
     Eigenvalues ---    0.04356   0.04548   0.04929   0.05206   0.05287
     Eigenvalues ---    0.05628   0.05750   0.06226   0.06879   0.06916
     Eigenvalues ---    0.07177   0.07221   0.07333   0.08803   0.08814
     Eigenvalues ---    0.11107   0.11345   0.20292   0.20656   0.27716
     Eigenvalues ---    0.27784   0.29218   0.29856   0.30103   0.34045
     Eigenvalues ---    0.34062   0.34085   0.34088   0.34187   0.34201
     Eigenvalues ---    0.34339   0.34341   0.34381   0.34407
 RFO step:  Lambda=-2.78117972D-03 EMin= 4.48037391D-03
 Linear search not attempted -- first point.
 Iteration  1 RMS(Cart)=  0.01935317 RMS(Int)=  0.00011989
 Iteration  2 RMS(Cart)=  0.00010865 RMS(Int)=  0.00003297
 Iteration  3 RMS(Cart)=  0.00000000 RMS(Int)=  0.00003297
 Variable       Old X    -DE/DX   Delta X   Delta X   Delta X     New X
                                 (Linear)    (Quad)   (Total)
    R1        2.88808   0.01401   0.00000   0.04763   0.04763   2.93571
    R2        2.88591   0.01335   0.00000   0.04511   0.04511   2.93102
    R3        2.07015  -0.00036   0.00000  -0.00104  -0.00104   2.06911
    R4        2.06992  -0.00046   0.00000  -0.00134  -0.00134   2.06858
    R5        2.87530   0.01042   0.00000   0.03402   0.03402   2.90932
    R6        2.07253  -0.00030   0.00000  -0.00088  -0.00088   2.07165
    R7        2.06761   0.00023   0.00000   0.00067   0.00067   2.06828
    R8        2.86972   0.00870   0.00000   0.02760   0.02759   2.89731
    R9        2.06691   0.00088   0.00000   0.00255   0.00255   2.06947
   R10        2.07181   0.00081   0.00000   0.00234   0.00234   2.07415
   R11        2.87337   0.00968   0.00000   0.03125   0.03125   2.90462
   R12        2.07186   0.00094   0.00000   0.00273   0.00273   2.07459
   R13        2.06648   0.00106   0.00000   0.00307   0.00307   2.06955
   R14        2.06758   0.00028   0.00000   0.00081   0.00081   2.06839
   R15        2.07225   0.00003   0.00000   0.00009   0.00009   2.07235
    A1        1.85584  -0.00128   0.00000  -0.00510  -0.00505   1.85079
    A2        1.92432   0.00102   0.00000   0.00951   0.00951   1.93383
    A3        1.94332   0.00047   0.00000   0.00444   0.00442   1.94774
    A4        1.93766   0.00033   0.00000   0.00306   0.00304   1.94070
    A5        1.93032   0.00083   0.00000   0.00652   0.00652   1.93684
    A6        1.87338  -0.00131   0.00000  -0.01778  -0.01776   1.85561
    A7        1.84159  -0.00028   0.00000  -0.00166  -0.00163   1.83996
    A8        1.91217   0.00122   0.00000   0.01177   0.01176   1.92392
    A9        1.95797   0.00023   0.00000   0.00792   0.00787   1.96584
   A10        1.91868  -0.00082   0.00000  -0.00980  -0.00979   1.90889
   A11        1.95508   0.00067   0.00000   0.00782   0.00777   1.96285
   A12        1.87844  -0.00099   0.00000  -0.01563  -0.01564   1.86280
   A13        1.80414   0.00085   0.00000   0.00205   0.00201   1.80616
   A14        1.95981  -0.00018   0.00000   0.00911   0.00897   1.96878
   A15        1.92186   0.00051   0.00000   0.00291   0.00290   1.92476
   A16        1.96367   0.00073   0.00000   0.01401   0.01391   1.97758
   A17        1.92379  -0.00121   0.00000  -0.01378  -0.01377   1.91003
   A18        1.88992  -0.00065   0.00000  -0.01380  -0.01374   1.87618
   A19        1.79933   0.00107   0.00000   0.00263   0.00258   1.80191
   A20        1.92516  -0.00103   0.00000  -0.01170  -0.01169   1.91347
   A21        1.96391   0.00047   0.00000   0.01233   0.01224   1.97615
   A22        1.92411   0.00021   0.00000   0.00048   0.00048   1.92459
   A23        1.96107  -0.00016   0.00000   0.00912   0.00900   1.97007
   A24        1.88963  -0.00052   0.00000  -0.01238  -0.01233   1.87730
   A25        1.83575   0.00004   0.00000  -0.00090  -0.00089   1.83486
   A26        1.95927   0.00003   0.00000   0.00763   0.00756   1.96683
   A27        1.91290   0.00119   0.00000   0.01113   0.01112   1.92402
   A28        1.95893   0.00070   0.00000   0.00909   0.00904   1.96797
   A29        1.91805  -0.00109   0.00000  -0.01241  -0.01240   1.90565
   A30        1.87892  -0.00084   0.00000  -0.01421  -0.01422   1.86471
    D1       -0.18366   0.00030   0.00000   0.00135   0.00135  -0.18232
    D2        1.88107  -0.00021   0.00000  -0.00513  -0.00514   1.87594
    D3       -2.31703  -0.00048   0.00000  -0.01180  -0.01182  -2.32885
    D4       -2.28562   0.00009   0.00000  -0.00457  -0.00457  -2.29019
    D5       -0.22089  -0.00041   0.00000  -0.01104  -0.01105  -0.23194
    D6        1.86419  -0.00068   0.00000  -0.01772  -0.01773   1.84646
    D7        1.92015   0.00077   0.00000   0.00861   0.00862   1.92877
    D8       -2.29831   0.00027   0.00000   0.00214   0.00214  -2.29617
    D9       -0.21323  -0.00001   0.00000  -0.00454  -0.00454  -0.21777
   D10       -0.25882   0.00033   0.00000  -0.00218  -0.00218  -0.26099
   D11       -2.39384  -0.00057   0.00000  -0.01716  -0.01717  -2.41102
   D12        1.80233  -0.00034   0.00000  -0.01169  -0.01170   1.79063
   D13        1.83451   0.00097   0.00000   0.00791   0.00792   1.84243
   D14       -0.30051   0.00007   0.00000  -0.00708  -0.00708  -0.30759
   D15       -2.38752   0.00030   0.00000  -0.00160  -0.00160  -2.38913
   D16       -2.37099   0.00008   0.00000  -0.00811  -0.00811  -2.37910
   D17        1.77717  -0.00083   0.00000  -0.02310  -0.02311   1.75406
   D18       -0.30984  -0.00059   0.00000  -0.01762  -0.01763  -0.32747
   D19        0.55582  -0.00041   0.00000   0.00149   0.00147   0.55728
   D20        2.67665   0.00090   0.00000   0.02446   0.02448   2.70112
   D21       -1.49915   0.00030   0.00000   0.01503   0.01502  -1.48413
   D22       -1.50455  -0.00128   0.00000  -0.00649  -0.00651  -1.51106
   D23        0.61628   0.00003   0.00000   0.01649   0.01651   0.63278
   D24        2.72367  -0.00057   0.00000   0.00706   0.00705   2.73072
   D25        2.69105   0.00008   0.00000   0.01469   0.01468   2.70572
   D26       -1.47131   0.00139   0.00000   0.03766   0.03769  -1.43362
   D27        0.63608   0.00079   0.00000   0.02823   0.02823   0.66432
   D28       -0.71534  -0.00006   0.00000  -0.00542  -0.00538  -0.72072
   D29        1.33890   0.00029   0.00000  -0.00879  -0.00875   1.33015
   D30       -2.83218  -0.00078   0.00000  -0.02450  -0.02451  -2.85669
   D31       -2.83356  -0.00076   0.00000  -0.02513  -0.02515  -2.85871
   D32       -0.77932  -0.00041   0.00000  -0.02850  -0.02853  -0.80785
   D33        1.33278  -0.00149   0.00000  -0.04421  -0.04428   1.28850
   D34        1.33827   0.00043   0.00000  -0.00729  -0.00725   1.33102
   D35       -2.89067   0.00078   0.00000  -0.01066  -0.01063  -2.90130
   D36       -0.77857  -0.00029   0.00000  -0.02637  -0.02638  -0.80495
   D37        0.60225  -0.00024   0.00000   0.00440   0.00438   0.60663
   D38        2.73749   0.00023   0.00000   0.01843   0.01843   2.75592
   D39       -1.45542  -0.00111   0.00000  -0.00199  -0.00201  -1.45743
   D40       -1.45273   0.00028   0.00000   0.01633   0.01632  -1.43641
   D41        0.68251   0.00075   0.00000   0.03036   0.03037   0.71288
   D42        2.77278  -0.00059   0.00000   0.00995   0.00993   2.78272
   D43        2.72101   0.00091   0.00000   0.02563   0.02565   2.74666
   D44       -1.42693   0.00138   0.00000   0.03966   0.03969  -1.38724
   D45        0.66334   0.00004   0.00000   0.01924   0.01926   0.68260
         Item               Value     Threshold  Converged?
 Maximum Force            0.014010     0.000450     NO 
 RMS     Force            0.002779     0.000300     NO 
 Maximum Displacement     0.063931     0.001800     NO 
 RMS     Displacement     0.019327     0.001200     NO 
 Predicted change in Energy=-1.427135D-03
 GradGradGradGradGradGradGradGradGradGradGradGradGradGradGradGradGradGrad

                          Input orientation:                          
 ---------------------------------------------------------------------
 Center     Atomic      Atomic             Coordinates (Angstroms)
 Number     Number       Type             X           Y           Z
 ---------------------------------------------------------------------
      1          6           0       -0.249979    0.866963   -0.948097
      2          6           0        1.143131    0.484913   -0.376539
      3          6           0        0.853592   -0.333719    0.894763
      4          6           0       -0.462458   -1.048946    0.567446
      5          6           0       -1.285060    0.036219   -0.145502
      6          1           0       -0.306169    0.642164   -2.018223
      7          1           0       -0.446147    1.939259   -0.848347
      8          1           0        1.689274   -0.138613   -1.094004
      9          1           0        1.770754    1.359110   -0.177098
     10          1           0        1.667292   -1.019943    1.152178
     11          1           0        0.702434    0.335159    1.751774
     12          1           0       -0.267127   -1.887277   -0.113928
     13          1           0       -0.966219   -1.452631    1.452115
     14          1           0       -2.075354   -0.379157   -0.778686
     15          1           0       -1.777464    0.666400    0.604848
 ---------------------------------------------------------------------
                    Distance matrix (angstroms):
                    1          2          3          4          5
     1  C    0.000000
     2  C    1.553511   0.000000
     3  C    2.460821   1.539545   0.000000
     4  C    2.452086   2.412830   1.533190   0.000000
     5  C    1.551028   2.480084   2.406832   1.537060   0.000000
     6  H    1.094925   2.195524   3.283730   3.093536   2.198290
     7  H    1.094647   2.205342   3.145502   3.306675   2.195296
     8  H    2.189331   1.096272   2.166016   2.866893   3.126801
     9  H    2.218109   1.094489   2.203575   3.367538   3.330021
    10  H    3.412843   2.208237   1.095114   2.208753   3.393500
    11  H    2.911908   2.178613   1.097595   2.162256   2.763902
    12  H    2.877841   2.772197   2.164950   1.097827   2.176471
    13  H    3.413874   3.398148   2.207785   1.095160   2.206970
    14  H    2.216644   3.356633   3.373606   2.205022   1.094542
    15  H    2.187482   3.086412   2.829619   2.161724   1.096638
                    6          7          8          9         10
     6  H    0.000000
     7  H    1.752330   0.000000
     8  H    2.333578   2.989636   0.000000
     9  H    2.866594   2.387844   1.757990   0.000000
    10  H    4.087614   4.150374   2.412998   2.727191   0.000000
    11  H    3.914640   3.263894   3.049060   2.431117   1.768267
    12  H    3.166376   3.900487   2.801050   3.833533   2.469265
    13  H    4.106955   4.131285   3.906534   4.248675   2.685622
    14  H    2.389469   2.834469   3.785461   4.263335   4.259841
    15  H    3.007624   2.346135   3.943656   3.698802   3.874232
                   11         12         13         14         15
    11  H    0.000000
    12  H    3.059431   0.000000
    13  H    2.463817   1.769220   0.000000
    14  H    3.824863   2.446634   2.712747   0.000000
    15  H    2.752282   3.052708   2.422038   1.759572   0.000000
 Stoichiometry    C5H10
 Framework group  C1[X(C5H10)]
 Deg. of freedom    39
 Full point group                 C1      NOp   1
 Largest Abelian subgroup         C1      NOp   1
 Largest concise Abelian subgroup C1      NOp   1
                         Standard orientation:                         
 ---------------------------------------------------------------------
 Center     Atomic      Atomic             Coordinates (Angstroms)
 Number     Number       Type             X           Y           Z
 ---------------------------------------------------------------------
      1          6           0        1.276072    0.273087    0.012782
      2          6           0        0.103486    1.285778    0.126340
      3          6           0       -1.162071    0.489602   -0.240637
      4          6           0       -0.848343   -0.927778    0.252598
      5          6           0        0.621815   -1.123637   -0.150921
      6          1           0        1.910340    0.311045    0.904479
      7          1           0        1.926311    0.503208   -0.837209
      8          1           0        0.016987    1.651751    1.156094
      9          1           0        0.243399    2.165279   -0.509906
     10          1           0       -2.071386    0.910725    0.201036
     11          1           0       -1.300135    0.475240   -1.329419
     12          1           0       -0.951818   -0.969643    1.344736
     13          1           0       -1.511334   -1.689288   -0.171573
     14          1           0        1.123535   -1.896738    0.439515
     15          1           0        0.668347   -1.443889   -1.198723
 ---------------------------------------------------------------------
 Rotational constants (GHZ):      6.4862637      6.4811091      3.7401014
 Standard basis: 6-31+G(d) (6D, 7F)
 There are   115 symmetry adapted cartesian basis functions of A   symmetry.
 There are   115 symmetry adapted basis functions of A   symmetry.
   115 basis functions,   200 primitive gaussians,   115 cartesian basis functions
    20 alpha electrons       20 beta electrons
       nuclear repulsion energy       187.2789134675 Hartrees.
 NAtoms=   15 NActive=   15 NUniq=   15 SFac= 1.00D+00 NAtFMM=   60 NAOKFM=F Big=F
 Integral buffers will be    131072 words long.
 Raffenetti 2 integral format.
 Two-electron integral symmetry is turned on.
 One-electron integrals computed using PRISM.
 NBasis=   115 RedAO= T EigKep=  3.23D-05  NBF=   115
 NBsUse=   115 1.00D-06 EigRej= -1.00D+00 NBFU=   115
 Initial guess from the checkpoint file:  "/srv/scratch/z5358697/gauss/Gau-4064004.chk"
 B after Tr=     0.000000    0.000000    0.000000
         Rot=    0.990920    0.001391   -0.000224   -0.134446 Ang=  15.45 deg.
 ExpMin= 4.38D-02 ExpMax= 3.05D+03 ExpMxC= 4.57D+02 IAcc=2 IRadAn=         4 AccDes= 0.00D+00
 Harris functional with IExCor= 1009 and IRadAn=       4 diagonalized for initial guess.
 HarFok:  IExCor= 1009 AccDes= 0.00D+00 IRadAn=         4 IDoV= 1 UseB2=F ITyADJ=14
 ICtDFT=  3500011 ScaDFX=  1.000000  1.000000  1.000000  1.000000
 FoFCou: FMM=F IPFlag=           0 FMFlag=      100000 FMFlg1=           0
         NFxFlg=           0 DoJE=T BraDBF=F KetDBF=T FulRan=T
         wScrn=  0.000000 ICntrl=     500 IOpCl=  0 I1Cent=   200000004 NGrid=           0
         NMat0=    1 NMatS0=      1 NMatT0=    0 NMatD0=    1 NMtDS0=    0 NMtDT0=    0
 Petite list used in FoFCou.
 Keep R1 ints in memory in canonical form, NReq=23244378.
 Requested convergence on RMS density matrix=1.00D-08 within 128 cycles.
 Requested convergence on MAX density matrix=1.00D-06.
 Requested convergence on             energy=1.00D-06.
 No special actions if energy rises.
 SCF Done:  E(RM062X) =  -196.452085828     A.U. after    9 cycles
            NFock=  9  Conv=0.42D-08     -V/T= 2.0094
 Calling FoFJK, ICntrl=      2127 FMM=F ISym2X=0 I1Cent= 0 IOpClX= 0 NMat=1 NMatS=1 NMatT=0.
 ***** Axes restored to original set *****
 -------------------------------------------------------------------
 Center     Atomic                   Forces (Hartrees/Bohr)
 Number     Number              X              Y              Z
 -------------------------------------------------------------------
      1        6           0.000101666   -0.000162606    0.000224439
      2        6          -0.000556979   -0.000520658    0.000429514
      3        6          -0.000606218    0.000258059   -0.000883168
      4        6           0.000487829    0.000546850   -0.000029844
      5        6           0.000443898   -0.000303726    0.000280723
      6        1           0.000109355   -0.000597817    0.000374068
      7        1           0.000253692   -0.000186886    0.000541859
      8        1          -0.000572452   -0.000185842   -0.000177545
      9        1          -0.000366706    0.000032289    0.000071849
     10        1          -0.000223529    0.000287561    0.000012408
     11        1          -0.000157736    0.000395241   -0.000025618
     12        1           0.000067023    0.000053659   -0.000422878
     13        1           0.000139996   -0.000030830   -0.000340120
     14        1           0.000304111    0.000030466   -0.000092115
     15        1           0.000576050    0.000384240    0.000036428
 -------------------------------------------------------------------
 Cartesian Forces:  Max     0.000883168 RMS     0.000353689

 GradGradGradGradGradGradGradGradGradGradGradGradGradGradGradGradGradGrad
 Berny optimization.
 Using GEDIIS/GDIIS optimizer.
 FormGI is forming the generalized inverse of G from B-inverse, IUseBI=4.
 Internal  Forces:  Max     0.001574597 RMS     0.000331415
 Search for a local minimum.
 Step number   2 out of a maximum of  100
 All quantities printed in internal units (Hartrees-Bohrs-Radians)
 Mixed Optimization -- En-DIIS/RFO-DIIS
 Update second derivatives using D2CorX and points    1    2
 DE= -1.27D-03 DEPred=-1.43D-03 R= 8.93D-01
 TightC=F SS=  1.41D+00  RLast= 1.59D-01 DXNew= 5.0454D-01 4.7615D-01
 Trust test= 8.93D-01 RLast= 1.59D-01 DXMaxT set to 4.76D-01
 ITU=  1  0
 Use linear search instead of GDIIS.
     Eigenvalues ---    0.00449   0.00656   0.02143   0.02164   0.04191
     Eigenvalues ---    0.04293   0.04565   0.04911   0.05208   0.05299
     Eigenvalues ---    0.05680   0.05741   0.06276   0.06931   0.06974
     Eigenvalues ---    0.07210   0.07294   0.07333   0.08841   0.08846
     Eigenvalues ---    0.11149   0.11323   0.20244   0.20623   0.27785
     Eigenvalues ---    0.27902   0.29236   0.29858   0.32499   0.34046
     Eigenvalues ---    0.34062   0.34086   0.34099   0.34195   0.34210
     Eigenvalues ---    0.34340   0.34348   0.34394   0.34620
 RFO step:  Lambda=-8.65745314D-05 EMin= 4.48645408D-03
 Quartic linear search produced a step of -0.08177.
 Iteration  1 RMS(Cart)=  0.01073242 RMS(Int)=  0.00006012
 Iteration  2 RMS(Cart)=  0.00007195 RMS(Int)=  0.00001915
 Iteration  3 RMS(Cart)=  0.00000000 RMS(Int)=  0.00001915
 Variable       Old X    -DE/DX   Delta X   Delta X   Delta X     New X
                                 (Linear)    (Quad)   (Total)
    R1        2.93571  -0.00157  -0.00389   0.00079  -0.00309   2.93263
    R2        2.93102  -0.00128  -0.00369   0.00144  -0.00224   2.92878
    R3        2.06911  -0.00025   0.00009  -0.00079  -0.00070   2.06841
    R4        2.06858  -0.00018   0.00011  -0.00061  -0.00050   2.06808
    R5        2.90932  -0.00129  -0.00278  -0.00062  -0.00341   2.90591
    R6        2.07165  -0.00007   0.00007  -0.00029  -0.00022   2.07144
    R7        2.06828  -0.00016  -0.00006  -0.00037  -0.00042   2.06786
    R8        2.89731  -0.00090  -0.00226  -0.00071  -0.00298   2.89433
    R9        2.06947  -0.00035  -0.00021  -0.00066  -0.00087   2.06860
   R10        2.07415   0.00025  -0.00019   0.00091   0.00072   2.07487
   R11        2.90462  -0.00093  -0.00256   0.00017  -0.00239   2.90223
   R12        2.07459   0.00024  -0.00022   0.00094   0.00071   2.07531
   R13        2.06955  -0.00033  -0.00025  -0.00057  -0.00082   2.06873
   R14        2.06839  -0.00017  -0.00007  -0.00037  -0.00044   2.06795
   R15        2.07235  -0.00002  -0.00001  -0.00005  -0.00006   2.07228
    A1        1.85079   0.00008   0.00041  -0.00201  -0.00163   1.84915
    A2        1.93383  -0.00004  -0.00078   0.00005  -0.00072   1.93311
    A3        1.94774  -0.00026  -0.00036  -0.00184  -0.00219   1.94555
    A4        1.94070  -0.00018  -0.00025  -0.00135  -0.00159   1.93911
    A5        1.93684   0.00004  -0.00053   0.00120   0.00068   1.93751
    A6        1.85561   0.00035   0.00145   0.00387   0.00532   1.86093
    A7        1.83996   0.00005   0.00013  -0.00265  -0.00257   1.83740
    A8        1.92392  -0.00014  -0.00096  -0.00062  -0.00157   1.92236
    A9        1.96584  -0.00021  -0.00064  -0.00073  -0.00135   1.96448
   A10        1.90889   0.00005   0.00080   0.00019   0.00099   1.90988
   A11        1.96285   0.00000  -0.00064   0.00119   0.00058   1.96342
   A12        1.86280   0.00025   0.00128   0.00256   0.00383   1.86663
   A13        1.80616  -0.00006  -0.00016  -0.00442  -0.00466   1.80150
   A14        1.96878  -0.00005  -0.00073   0.00133   0.00063   1.96941
   A15        1.92476  -0.00002  -0.00024   0.00040   0.00018   1.92494
   A16        1.97758  -0.00006  -0.00114   0.00236   0.00126   1.97884
   A17        1.91003   0.00014   0.00113   0.00008   0.00122   1.91125
   A18        1.87618   0.00004   0.00112   0.00016   0.00126   1.87744
   A19        1.80191  -0.00026  -0.00021  -0.00554  -0.00583   1.79608
   A20        1.91347   0.00016   0.00096   0.00035   0.00132   1.91479
   A21        1.97615   0.00005  -0.00100   0.00285   0.00189   1.97804
   A22        1.92459   0.00002  -0.00004   0.00002   0.00000   1.92459
   A23        1.97007   0.00002  -0.00074   0.00177   0.00108   1.97115
   A24        1.87730   0.00000   0.00101   0.00038   0.00137   1.87867
   A25        1.83486  -0.00004   0.00007  -0.00314  -0.00312   1.83174
   A26        1.96683  -0.00015  -0.00062  -0.00044  -0.00103   1.96580
   A27        1.92402  -0.00019  -0.00091  -0.00126  -0.00216   1.92186
   A28        1.96797   0.00003  -0.00074   0.00189   0.00117   1.96914
   A29        1.90565   0.00011   0.00101   0.00005   0.00107   1.90672
   A30        1.86471   0.00023   0.00116   0.00278   0.00393   1.86864
    D1       -0.18232  -0.00009  -0.00011  -0.00490  -0.00500  -0.18732
    D2        1.87594  -0.00007   0.00042  -0.00649  -0.00607   1.86987
    D3       -2.32885   0.00000   0.00097  -0.00415  -0.00318  -2.33203
    D4       -2.29019   0.00010   0.00037  -0.00206  -0.00168  -2.29188
    D5       -0.23194   0.00012   0.00090  -0.00365  -0.00274  -0.23469
    D6        1.84646   0.00019   0.00145  -0.00131   0.00014   1.84660
    D7        1.92877  -0.00014  -0.00070  -0.00576  -0.00646   1.92230
    D8       -2.29617  -0.00013  -0.00017  -0.00735  -0.00753  -2.30369
    D9       -0.21777  -0.00005   0.00037  -0.00501  -0.00464  -0.22241
   D10       -0.26099  -0.00012   0.00018  -0.00783  -0.00764  -0.26864
   D11       -2.41102  -0.00004   0.00140  -0.00777  -0.00637  -2.41738
   D12        1.79063  -0.00010   0.00096  -0.01014  -0.00918   1.78145
   D13        1.84243  -0.00022  -0.00065  -0.00977  -0.01042   1.83202
   D14       -0.30759  -0.00014   0.00058  -0.00972  -0.00914  -0.31673
   D15       -2.38913  -0.00021   0.00013  -0.01208  -0.01196  -2.40108
   D16       -2.37910   0.00013   0.00066  -0.00503  -0.00436  -2.38346
   D17        1.75406   0.00021   0.00189  -0.00498  -0.00308   1.75098
   D18       -0.32747   0.00015   0.00144  -0.00734  -0.00590  -0.33337
   D19        0.55728   0.00025  -0.00012   0.01603   0.01590   0.57318
   D20        2.70112   0.00012  -0.00200   0.01675   0.01474   2.71586
   D21       -1.48413   0.00013  -0.00123   0.01812   0.01690  -1.46723
   D22       -1.51106   0.00036   0.00053   0.01811   0.01865  -1.49241
   D23        0.63278   0.00023  -0.00135   0.01884   0.01749   0.65027
   D24        2.73072   0.00024  -0.00058   0.02021   0.01965   2.75036
   D25        2.70572   0.00002  -0.00120   0.01405   0.01285   2.71857
   D26       -1.43362  -0.00012  -0.00308   0.01478   0.01168  -1.42194
   D27        0.66432  -0.00011  -0.00231   0.01615   0.01384   0.67816
   D28       -0.72072  -0.00021   0.00044  -0.02089  -0.02044  -0.74116
   D29        1.33015  -0.00025   0.00072  -0.02361  -0.02290   1.30725
   D30       -2.85669  -0.00010   0.00200  -0.02098  -0.01897  -2.87565
   D31       -2.85871  -0.00008   0.00206  -0.02090  -0.01883  -2.87754
   D32       -0.80785  -0.00012   0.00233  -0.02362  -0.02129  -0.82913
   D33        1.28850   0.00004   0.00362  -0.02100  -0.01735   1.27115
   D34        1.33102  -0.00020   0.00059  -0.02271  -0.02212   1.30890
   D35       -2.90130  -0.00024   0.00087  -0.02543  -0.02458  -2.92588
   D36       -0.80495  -0.00008   0.00216  -0.02280  -0.02065  -0.82560
   D37        0.60663   0.00017  -0.00036   0.01756   0.01719   0.62382
   D38        2.75592  -0.00002  -0.00151   0.01602   0.01450   2.77042
   D39       -1.45743   0.00036   0.00016   0.02071   0.02088  -1.43655
   D40       -1.43641   0.00011  -0.00133   0.02011   0.01877  -1.41764
   D41        0.71288  -0.00009  -0.00248   0.01856   0.01608   0.72896
   D42        2.78272   0.00030  -0.00081   0.02325   0.02245   2.80517
   D43        2.74666   0.00008  -0.00210   0.01840   0.01629   2.76295
   D44       -1.38724  -0.00012  -0.00325   0.01685   0.01359  -1.37364
   D45        0.68260   0.00027  -0.00157   0.02155   0.01997   0.70257
         Item               Value     Threshold  Converged?
 Maximum Force            0.001575     0.000450     NO 
 RMS     Force            0.000331     0.000300     NO 
 Maximum Displacement     0.033474     0.001800     NO 
 RMS     Displacement     0.010753     0.001200     NO 
 Predicted change in Energy=-5.215713D-05
 GradGradGradGradGradGradGradGradGradGradGradGradGradGradGradGradGradGrad

                          Input orientation:                          
 ---------------------------------------------------------------------
 Center     Atomic      Atomic             Coordinates (Angstroms)
 Number     Number       Type             X           Y           Z
 ---------------------------------------------------------------------
      1          6           0       -0.249623    0.864958   -0.946669
      2          6           0        1.141827    0.480062   -0.377416
      3          6           0        0.848516   -0.328053    0.897564
      4          6           0       -0.458695   -1.051594    0.560632
      5          6           0       -1.283172    0.038160   -0.140321
      6          1           0       -0.308658    0.635334   -2.015237
      7          1           0       -0.440851    1.937785   -0.845948
      8          1           0        1.681054   -0.151164   -1.093201
      9          1           0        1.772341    1.353229   -0.183901
     10          1           0        1.663744   -1.006987    1.167232
     11          1           0        0.685051    0.347613    1.747448
     12          1           0       -0.255878   -1.879649   -0.131642
     13          1           0       -0.962027   -1.468941    1.438642
     14          1           0       -2.078922   -0.370923   -0.770361
     15          1           0       -1.764208    0.670071    0.615878
 ---------------------------------------------------------------------
                    Distance matrix (angstroms):
                    1          2          3          4          5
     1  C    0.000000
     2  C    1.551878   0.000000
     3  C    2.455683   1.537743   0.000000
     4  C    2.447210   2.405737   1.531612   0.000000
     5  C    1.549844   2.476310   2.399044   1.535793   0.000000
     6  H    1.094555   2.193279   3.278959   3.082748   2.195815
     7  H    1.094381   2.202124   3.136291   3.303811   2.194536
     8  H    2.186661   1.096157   2.165076   2.850344   3.119369
     9  H    2.215527   1.094265   2.202210   3.363781   3.326780
    10  H    3.410825   2.206728   1.094655   2.207872   3.389151
    11  H    2.898194   2.177438   1.097975   2.162051   2.744693
    12  H    2.863071   2.753583   2.164810   1.098205   2.175638
    13  H    3.412377   3.394538   2.207365   1.094726   2.206267
    14  H    2.214683   3.354371   3.369526   2.204538   1.094311
    15  H    2.184835   3.076975   2.811037   2.161376   1.096605
                    6          7          8          9         10
     6  H    0.000000
     7  H    1.755304   0.000000
     8  H    2.329739   2.987863   0.000000
     9  H    2.863516   2.382904   1.760216   0.000000
    10  H    4.088484   4.141726   2.417083   2.721760   0.000000
    11  H    3.902312   3.243764   3.051244   2.433839   1.769020
    12  H    3.142587   3.888091   2.768386   3.816792   2.476603
    13  H    4.096846   4.134823   3.890071   4.251360   2.679877
    14  H    2.386651   2.831805   3.780203   4.260148   4.262205
    15  H    3.007091   2.344207   3.932583   3.689651   3.855823
                   11         12         13         14         15
    11  H    0.000000
    12  H    3.062193   0.000000
    13  H    2.471457   1.770063   0.000000
    14  H    3.807256   2.451063   2.707913   0.000000
    15  H    2.717223   3.055310   2.428129   1.761922   0.000000
 Stoichiometry    C5H10
 Framework group  C1[X(C5H10)]
 Deg. of freedom    39
 Full point group                 C1      NOp   1
 Largest Abelian subgroup         C1      NOp   1
 Largest concise Abelian subgroup C1      NOp   1
                         Standard orientation:                         
 ---------------------------------------------------------------------
 Center     Atomic      Atomic             Coordinates (Angstroms)
 Number     Number       Type             X           Y           Z
 ---------------------------------------------------------------------
      1          6           0        1.299234   -0.096788    0.013276
      2          6           0        0.458718    1.202534    0.129982
      3          6           0       -0.974634    0.793092   -0.247529
      4          6           0       -1.072132   -0.648734    0.259881
      5          6           0        0.278376   -1.250654   -0.155427
      6          1           0        1.914466   -0.242412    0.906770
      7          1           0        1.987038   -0.053956   -0.836878
      8          1           0        0.472969    1.569847    1.162667
      9          1           0        0.843562    2.009503   -0.500980
     10          1           0       -1.732760    1.456499    0.180728
     11          1           0       -1.099883    0.807180   -1.338246
     12          1           0       -1.169265   -0.650627    1.353781
     13          1           0       -1.927202   -1.195769   -0.150039
     14          1           0        0.545108   -2.137492    0.427571
     15          1           0        0.228599   -1.559478   -1.206471
 ---------------------------------------------------------------------
 Rotational constants (GHZ):      6.5029080      6.4969953      3.7601323
 Standard basis: 6-31+G(d) (6D, 7F)
 There are   115 symmetry adapted cartesian basis functions of A   symmetry.
 There are   115 symmetry adapted basis functions of A   symmetry.
   115 basis functions,   200 primitive gaussians,   115 cartesian basis functions
    20 alpha electrons       20 beta electrons
       nuclear repulsion energy       187.5243599170 Hartrees.
 NAtoms=   15 NActive=   15 NUniq=   15 SFac= 1.00D+00 NAtFMM=   60 NAOKFM=F Big=F
 Integral buffers will be    131072 words long.
 Raffenetti 2 integral format.
 Two-electron integral symmetry is turned on.
 One-electron integrals computed using PRISM.
 NBasis=   115 RedAO= T EigKep=  3.20D-05  NBF=   115
 NBsUse=   115 1.00D-06 EigRej= -1.00D+00 NBFU=   115
 Initial guess from the checkpoint file:  "/srv/scratch/z5358697/gauss/Gau-4064004.chk"
 B after Tr=     0.000000    0.000000    0.000000
         Rot=    0.989853    0.000086    0.000012    0.142094 Ang=  16.34 deg.
 ExpMin= 4.38D-02 ExpMax= 3.05D+03 ExpMxC= 4.57D+02 IAcc=2 IRadAn=         4 AccDes= 0.00D+00
 Harris functional with IExCor= 1009 and IRadAn=       4 diagonalized for initial guess.
 HarFok:  IExCor= 1009 AccDes= 0.00D+00 IRadAn=         4 IDoV= 1 UseB2=F ITyADJ=14
 ICtDFT=  3500011 ScaDFX=  1.000000  1.000000  1.000000  1.000000
 FoFCou: FMM=F IPFlag=           0 FMFlag=      100000 FMFlg1=           0
         NFxFlg=           0 DoJE=T BraDBF=F KetDBF=T FulRan=T
         wScrn=  0.000000 ICntrl=     500 IOpCl=  0 I1Cent=   200000004 NGrid=           0
         NMat0=    1 NMatS0=      1 NMatT0=    0 NMatD0=    1 NMtDS0=    0 NMtDT0=    0
 Petite list used in FoFCou.
 Keep R1 ints in memory in canonical form, NReq=23244378.
 Requested convergence on RMS density matrix=1.00D-08 within 128 cycles.
 Requested convergence on MAX density matrix=1.00D-06.
 Requested convergence on             energy=1.00D-06.
 No special actions if energy rises.
 SCF Done:  E(RM062X) =  -196.452107659     A.U. after    9 cycles
            NFock=  9  Conv=0.18D-08     -V/T= 2.0093
 Calling FoFJK, ICntrl=      2127 FMM=F ISym2X=0 I1Cent= 0 IOpClX= 0 NMat=1 NMatS=1 NMatT=0.
 ***** Axes restored to original set *****
 -------------------------------------------------------------------
 Center     Atomic                   Forces (Hartrees/Bohr)
 Number     Number              X              Y              Z
 -------------------------------------------------------------------
      1        6          -0.000066663   -0.000031407    0.000042752
      2        6           0.000048324    0.000351471    0.000455339
      3        6           0.000241948   -0.000646417   -0.000330856
      4        6          -0.000376349    0.000639308    0.000351604
      5        6           0.000229383   -0.000447740   -0.000302308
      6        1           0.000025430   -0.000154839   -0.000006969
      7        1          -0.000069628   -0.000062285    0.000076033
      8        1          -0.000199079   -0.000177447    0.000008161
      9        1          -0.000040506   -0.000025293   -0.000071296
     10        1           0.000091448    0.000133303    0.000103598
     11        1          -0.000229105    0.000169587   -0.000187083
     12        1           0.000136828    0.000198492   -0.000181576
     13        1          -0.000062252   -0.000130647   -0.000052750
     14        1           0.000037756    0.000118507    0.000016641
     15        1           0.000232464    0.000065407    0.000078710
 -------------------------------------------------------------------
 Cartesian Forces:  Max     0.000646417 RMS     0.000231454

 GradGradGradGradGradGradGradGradGradGradGradGradGradGradGradGradGradGrad
 Berny optimization.
 Using GEDIIS/GDIIS optimizer.
 FormGI is forming the generalized inverse of G from B-inverse, IUseBI=4.
 Internal  Forces:  Max     0.000425204 RMS     0.000094453
 Search for a local minimum.
 Step number   3 out of a maximum of  100
 All quantities printed in internal units (Hartrees-Bohrs-Radians)
 Mixed Optimization -- En-DIIS/RFO-DIIS
 Swapping is turned off.
 Update second derivatives using D2CorX and points    1    2    3
 DE= -2.18D-05 DEPred=-5.22D-05 R= 4.19D-01
 Trust test= 4.19D-01 RLast= 1.01D-01 DXMaxT set to 4.76D-01
 ITU=  0  1  0
     Eigenvalues ---    0.00416   0.00469   0.02163   0.02175   0.04218
     Eigenvalues ---    0.04318   0.04831   0.04976   0.05225   0.05286
     Eigenvalues ---    0.05655   0.05787   0.06434   0.06884   0.06913
     Eigenvalues ---    0.07175   0.07231   0.07406   0.08813   0.08919
     Eigenvalues ---    0.11112   0.11274   0.20165   0.20623   0.27754
     Eigenvalues ---    0.28115   0.29155   0.29857   0.31571   0.34046
     Eigenvalues ---    0.34062   0.34086   0.34113   0.34192   0.34226
     Eigenvalues ---    0.34322   0.34341   0.34393   0.34813
 En-DIIS/RFO-DIIS IScMMF=        0 using points:     3    2
 RFO step:  Lambda=-3.21283806D-06.
 DidBck=F Rises=F RFO-DIIS coefs:    1.33061   -0.33061
 Iteration  1 RMS(Cart)=  0.00626428 RMS(Int)=  0.00002501
 Iteration  2 RMS(Cart)=  0.00002562 RMS(Int)=  0.00000830
 Iteration  3 RMS(Cart)=  0.00000000 RMS(Int)=  0.00000830
 Variable       Old X    -DE/DX   Delta X   Delta X   Delta X     New X
                                 (Linear)    (Quad)   (Total)
    R1        2.93263  -0.00011  -0.00102   0.00087  -0.00014   2.93249
    R2        2.92878  -0.00035  -0.00074  -0.00065  -0.00139   2.92739
    R3        2.06841   0.00003  -0.00023   0.00023   0.00000   2.06841
    R4        2.06808  -0.00003  -0.00017  -0.00006  -0.00023   2.06785
    R5        2.90591  -0.00023  -0.00113   0.00008  -0.00104   2.90487
    R6        2.07144   0.00000  -0.00007   0.00003  -0.00004   2.07140
    R7        2.06786  -0.00006  -0.00014  -0.00014  -0.00028   2.06758
    R8        2.89433  -0.00013  -0.00099   0.00019  -0.00080   2.89353
    R9        2.06860   0.00002  -0.00029   0.00026  -0.00003   2.06857
   R10        2.07487  -0.00002   0.00024  -0.00017   0.00006   2.07493
   R11        2.90223  -0.00043  -0.00079  -0.00135  -0.00214   2.90009
   R12        2.07531  -0.00001   0.00024  -0.00012   0.00012   2.07542
   R13        2.06873   0.00003  -0.00027   0.00032   0.00005   2.06878
   R14        2.06795  -0.00009  -0.00014  -0.00026  -0.00040   2.06755
   R15        2.07228   0.00000  -0.00002   0.00001  -0.00001   2.07227
    A1        1.84915  -0.00001  -0.00054  -0.00039  -0.00094   1.84821
    A2        1.93311   0.00002  -0.00024   0.00029   0.00005   1.93316
    A3        1.94555   0.00001  -0.00072   0.00102   0.00030   1.94586
    A4        1.93911  -0.00005  -0.00053  -0.00031  -0.00083   1.93827
    A5        1.93751  -0.00003   0.00022  -0.00101  -0.00078   1.93673
    A6        1.86093   0.00006   0.00176   0.00039   0.00215   1.86308
    A7        1.83740   0.00001  -0.00085   0.00020  -0.00067   1.83673
    A8        1.92236  -0.00007  -0.00052  -0.00178  -0.00230   1.92006
    A9        1.96448  -0.00002  -0.00045   0.00103   0.00059   1.96507
   A10        1.90988  -0.00007   0.00033  -0.00259  -0.00226   1.90761
   A11        1.96342   0.00007   0.00019   0.00228   0.00247   1.96589
   A12        1.86663   0.00007   0.00127   0.00065   0.00191   1.86854
   A13        1.80150  -0.00004  -0.00154  -0.00049  -0.00207   1.79943
   A14        1.96941   0.00000   0.00021   0.00110   0.00133   1.97074
   A15        1.92494  -0.00009   0.00006  -0.00273  -0.00268   1.92226
   A16        1.97884   0.00016   0.00042   0.00353   0.00396   1.98280
   A17        1.91125  -0.00009   0.00040  -0.00269  -0.00229   1.90897
   A18        1.87744   0.00005   0.00042   0.00094   0.00136   1.87880
   A19        1.79608   0.00008  -0.00193   0.00012  -0.00184   1.79424
   A20        1.91479  -0.00011   0.00044  -0.00266  -0.00223   1.91256
   A21        1.97804   0.00005   0.00062   0.00223   0.00287   1.98091
   A22        1.92459  -0.00010   0.00000  -0.00212  -0.00212   1.92247
   A23        1.97115   0.00000   0.00036   0.00142   0.00179   1.97294
   A24        1.87867   0.00006   0.00045   0.00073   0.00118   1.87985
   A25        1.83174   0.00006  -0.00103  -0.00011  -0.00118   1.83056
   A26        1.96580  -0.00006  -0.00034   0.00057   0.00024   1.96604
   A27        1.92186  -0.00005  -0.00072  -0.00107  -0.00179   1.92007
   A28        1.96914   0.00005   0.00039   0.00198   0.00238   1.97152
   A29        1.90672  -0.00007   0.00035  -0.00206  -0.00171   1.90501
   A30        1.86864   0.00007   0.00130   0.00053   0.00182   1.87046
    D1       -0.18732   0.00004  -0.00165   0.00271   0.00105  -0.18627
    D2        1.86987  -0.00007  -0.00201  -0.00113  -0.00313   1.86674
    D3       -2.33203  -0.00004  -0.00105  -0.00085  -0.00190  -2.33393
    D4       -2.29188   0.00009  -0.00056   0.00316   0.00260  -2.28927
    D5       -0.23469  -0.00002  -0.00091  -0.00068  -0.00158  -0.23627
    D6        1.84660   0.00001   0.00005  -0.00040  -0.00035   1.84625
    D7        1.92230   0.00000  -0.00214   0.00182  -0.00032   1.92198
    D8       -2.30369  -0.00011  -0.00249  -0.00201  -0.00450  -2.30820
    D9       -0.22241  -0.00008  -0.00153  -0.00174  -0.00327  -0.22568
   D10       -0.26864   0.00001  -0.00253  -0.00316  -0.00568  -0.27432
   D11       -2.41738  -0.00006  -0.00210  -0.00586  -0.00796  -2.42535
   D12        1.78145  -0.00007  -0.00304  -0.00617  -0.00920   1.77225
   D13        1.83202   0.00000  -0.00344  -0.00322  -0.00666   1.82536
   D14       -0.31673  -0.00006  -0.00302  -0.00592  -0.00894  -0.32568
   D15       -2.40108  -0.00008  -0.00395  -0.00623  -0.01018  -2.41127
   D16       -2.38346   0.00002  -0.00144  -0.00358  -0.00502  -2.38848
   D17        1.75098  -0.00005  -0.00102  -0.00629  -0.00730   1.74368
   D18       -0.33337  -0.00006  -0.00195  -0.00659  -0.00854  -0.34191
   D19        0.57318  -0.00013   0.00526  -0.00158   0.00367   0.57685
   D20        2.71586   0.00003   0.00487   0.00300   0.00787   2.72373
   D21       -1.46723   0.00003   0.00559   0.00303   0.00861  -1.45862
   D22       -1.49241  -0.00002   0.00617   0.00169   0.00785  -1.48456
   D23        0.65027   0.00014   0.00578   0.00627   0.01205   0.66232
   D24        2.75036   0.00014   0.00650   0.00630   0.01279   2.76315
   D25        2.71857  -0.00011   0.00425   0.00117   0.00542   2.72399
   D26       -1.42194   0.00006   0.00386   0.00575   0.00961  -1.41232
   D27        0.67816   0.00006   0.00458   0.00578   0.01036   0.68852
   D28       -0.74116   0.00011  -0.00676  -0.00058  -0.00734  -0.74849
   D29        1.30725  -0.00001  -0.00757  -0.00413  -0.01171   1.29554
   D30       -2.87565   0.00003  -0.00627  -0.00360  -0.00987  -2.88552
   D31       -2.87754   0.00005  -0.00622  -0.00355  -0.00978  -2.88732
   D32       -0.82913  -0.00007  -0.00704  -0.00711  -0.01415  -0.84328
   D33        1.27115  -0.00003  -0.00574  -0.00658  -0.01231   1.25884
   D34        1.30890  -0.00005  -0.00731  -0.00519  -0.01250   1.29639
   D35       -2.92588  -0.00017  -0.00813  -0.00874  -0.01687  -2.94275
   D36       -0.82560  -0.00013  -0.00683  -0.00821  -0.01504  -0.84063
   D37        0.62382  -0.00006   0.00568   0.00250   0.00818   0.63200
   D38        2.77042  -0.00007   0.00479   0.00430   0.00909   2.77951
   D39       -1.43655   0.00001   0.00690   0.00482   0.01173  -1.42483
   D40       -1.41764   0.00007   0.00621   0.00645   0.01266  -1.40498
   D41        0.72896   0.00006   0.00531   0.00825   0.01357   0.74252
   D42        2.80517   0.00013   0.00742   0.00878   0.01620   2.82138
   D43        2.76295   0.00006   0.00539   0.00606   0.01144   2.77439
   D44       -1.37364   0.00005   0.00449   0.00786   0.01235  -1.36129
   D45        0.70257   0.00012   0.00660   0.00839   0.01499   0.71756
         Item               Value     Threshold  Converged?
 Maximum Force            0.000425     0.000450     YES
 RMS     Force            0.000094     0.000300     YES
 Maximum Displacement     0.020037     0.001800     NO 
 RMS     Displacement     0.006268     0.001200     NO 
 Predicted change in Energy=-1.224282D-05
 GradGradGradGradGradGradGradGradGradGradGradGradGradGradGradGradGradGrad

                          Input orientation:                          
 ---------------------------------------------------------------------
 Center     Atomic      Atomic             Coordinates (Angstroms)
 Number     Number       Type             X           Y           Z
 ---------------------------------------------------------------------
      1          6           0       -0.249543    0.863345   -0.946657
      2          6           0        1.141586    0.478783   -0.376597
      3          6           0        0.846830   -0.326760    0.899011
      4          6           0       -0.457493   -1.052477    0.557527
      5          6           0       -1.282108    0.039234   -0.137712
      6          1           0       -0.309473    0.629622   -2.014288
      7          1           0       -0.440737    1.936205   -0.847543
      8          1           0        1.676979   -0.157180   -1.091035
      9          1           0        1.773913    1.351305   -0.186970
     10          1           0        1.663846   -1.000597    1.175893
     11          1           0        0.675046    0.352930    1.744076
     12          1           0       -0.249817   -1.873074   -0.142245
     13          1           0       -0.961200   -1.479081    1.430893
     14          1           0       -2.082744   -0.364721   -0.764493
     15          1           0       -1.754585    0.672366    0.622841
 ---------------------------------------------------------------------
                    Distance matrix (angstroms):
                    1          2          3          4          5
     1  C    0.000000
     2  C    1.551805   0.000000
     3  C    2.454562   1.537191   0.000000
     4  C    2.444624   2.402998   1.531187   0.000000
     5  C    1.549110   2.474786   2.396064   1.534660   0.000000
     6  H    1.094556   2.193253   3.277044   3.076622   2.194565
     7  H    1.094261   2.202184   3.135170   3.302533   2.193232
     8  H    2.184904   1.096137   2.162912   2.841704   3.115060
     9  H    2.215763   1.094115   2.203347   3.363274   3.326142
    10  H    3.411826   2.207158   1.094640   2.210237   3.389020
    11  H    2.890577   2.175029   1.098008   2.160026   2.733127
    12  H    2.852204   2.742655   2.162854   1.098266   2.173147
    13  H    3.412647   3.394402   2.209008   1.094751   2.206532
    14  H    2.214036   3.355335   3.369138   2.205037   1.094098
    15  H    2.182876   3.069879   2.800336   2.159119   1.096600
                    6          7          8          9         10
     6  H    0.000000
     7  H    1.756612   0.000000
     8  H    2.327541   2.987687   0.000000
     9  H    2.863637   2.383933   1.761323   0.000000
    10  H    4.090093   4.141059   2.418778   2.720469   0.000000
    11  H    3.895014   3.235463   3.049907   2.435815   1.769913
    12  H    3.125955   3.878724   2.749006   3.807112   2.482097
    13  H    4.091534   4.138397   3.881692   4.255514   2.680455
    14  H    2.386462   2.827958   3.779580   4.260526   4.266893
    15  H    3.007429   2.342118   3.924430   3.683348   3.845821
                   11         12         13         14         15
    11  H    0.000000
    12  H    3.060828   0.000000
    13  H    2.476216   1.770892   0.000000
    14  H    3.796491   2.453965   2.705435   0.000000
    15  H    2.694868   3.054332   2.431282   1.762933   0.000000
 Stoichiometry    C5H10
 Framework group  C1[X(C5H10)]
 Deg. of freedom    39
 Full point group                 C1      NOp   1
 Largest Abelian subgroup         C1      NOp   1
 Largest concise Abelian subgroup C1      NOp   1
                         Standard orientation:                         
 ---------------------------------------------------------------------
 Center     Atomic      Atomic             Coordinates (Angstroms)
 Number     Number       Type             X           Y           Z
 ---------------------------------------------------------------------
      1          6           0        1.265611    0.305752    0.014287
      2          6           0        0.066938    1.284446    0.130221
      3          6           0       -1.170165    0.454832   -0.249613
      4          6           0       -0.820109   -0.944885    0.263016
      5          6           0        0.647119   -1.104069   -0.157798
      6          1           0        1.893255    0.353184    0.909757
      7          1           0        1.908180    0.557740   -0.834840
      8          1           0       -0.034165    1.632857    1.164583
      9          1           0        0.187288    2.172592   -0.497314
     10          1           0       -2.097898    0.856180    0.170468
     11          1           0       -1.284648    0.424904   -1.341226
     12          1           0       -0.904291   -0.967639    1.357815
     13          1           0       -1.468355   -1.731068   -0.137199
     14          1           0        1.175791   -1.869222    0.418481
     15          1           0        0.688485   -1.405985   -1.211205
 ---------------------------------------------------------------------
 Rotational constants (GHZ):      6.5098145      6.5043859      3.7683108
 Standard basis: 6-31+G(d) (6D, 7F)
 There are   115 symmetry adapted cartesian basis functions of A   symmetry.
 There are   115 symmetry adapted basis functions of A   symmetry.
   115 basis functions,   200 primitive gaussians,   115 cartesian basis functions
    20 alpha electrons       20 beta electrons
       nuclear repulsion energy       187.6298501554 Hartrees.
 NAtoms=   15 NActive=   15 NUniq=   15 SFac= 1.00D+00 NAtFMM=   60 NAOKFM=F Big=F
 Integral buffers will be    131072 words long.
 Raffenetti 2 integral format.
 Two-electron integral symmetry is turned on.
 One-electron integrals computed using PRISM.
 NBasis=   115 RedAO= T EigKep=  3.20D-05  NBF=   115
 NBsUse=   115 1.00D-06 EigRej= -1.00D+00 NBFU=   115
 Initial guess from the checkpoint file:  "/srv/scratch/z5358697/gauss/Gau-4064004.chk"
 B after Tr=     0.000000    0.000000    0.000000
         Rot=    0.987877    0.000053   -0.000070   -0.155236 Ang=  17.86 deg.
 ExpMin= 4.38D-02 ExpMax= 3.05D+03 ExpMxC= 4.57D+02 IAcc=2 IRadAn=         4 AccDes= 0.00D+00
 Harris functional with IExCor= 1009 and IRadAn=       4 diagonalized for initial guess.
 HarFok:  IExCor= 1009 AccDes= 0.00D+00 IRadAn=         4 IDoV= 1 UseB2=F ITyADJ=14
 ICtDFT=  3500011 ScaDFX=  1.000000  1.000000  1.000000  1.000000
 FoFCou: FMM=F IPFlag=           0 FMFlag=      100000 FMFlg1=           0
         NFxFlg=           0 DoJE=T BraDBF=F KetDBF=T FulRan=T
         wScrn=  0.000000 ICntrl=     500 IOpCl=  0 I1Cent=   200000004 NGrid=           0
         NMat0=    1 NMatS0=      1 NMatT0=    0 NMatD0=    1 NMtDS0=    0 NMtDT0=    0
 Petite list used in FoFCou.
[...]
   A21        1.98212  -0.00007   0.00000  -0.00141  -0.00138   1.98074
   A22        1.92183   0.00003   0.00000   0.00026   0.00026   1.92210
   A23        1.97330  -0.00002   0.00000   0.00100   0.00103   1.97433
   A24        1.87968   0.00001   0.00000   0.00005   0.00004   1.87972
   A25        1.83042  -0.00002   0.00000  -0.00261  -0.00274   1.82768
   A26        1.96710   0.00000   0.00000  -0.00005   0.00000   1.96710
   A27        1.91987   0.00001   0.00000   0.00032   0.00034   1.92021
   A28        1.97203   0.00001   0.00000   0.00210   0.00214   1.97418
   A29        1.90425   0.00000   0.00000  -0.00052  -0.00048   1.90376
   A30        1.86995   0.00000   0.00000   0.00070   0.00068   1.87062
    D1       -0.18783   0.00001   0.00000   0.03146   0.03146  -0.15637
    D2        1.86505   0.00000   0.00000   0.03486   0.03484   1.89990
    D3       -2.33617   0.00000   0.00000   0.03378   0.03379  -2.30238
    D4       -2.29039   0.00001   0.00000   0.03588   0.03590  -2.25449
    D5       -0.23751   0.00001   0.00000   0.03928   0.03928  -0.19822
    D6        1.84446   0.00000   0.00000   0.03820   0.03823   1.88268
    D7        1.92232   0.00000   0.00000   0.03500   0.03499   1.95730
    D8       -2.30799  -0.00001   0.00000   0.03840   0.03837  -2.26962
    D9       -0.22603  -0.00001   0.00000   0.03732   0.03732  -0.18871
   D10       -0.27310  -0.00001   0.00000  -0.03006  -0.03006  -0.30316
   D11       -2.42529  -0.00001   0.00000  -0.03087  -0.03086  -2.45615
   D12        1.77240  -0.00002   0.00000  -0.03194  -0.03195   1.74044
   D13        1.82486   0.00002   0.00000  -0.03325  -0.03327   1.79159
   D14       -0.32734   0.00001   0.00000  -0.03406  -0.03406  -0.36140
   D15       -2.41284   0.00001   0.00000  -0.03513  -0.03516  -2.44800
   D16       -2.38888   0.00001   0.00000  -0.03398  -0.03396  -2.42284
   D17        1.74211   0.00000   0.00000  -0.03479  -0.03476   1.70735
   D18       -0.34338   0.00000   0.00000  -0.03586  -0.03586  -0.37924
   D19        0.57836  -0.00003   0.00000  -0.02118  -0.02119   0.55717
   D20        2.72439  -0.00001   0.00000  -0.01990  -0.01991   2.70448
   D21       -1.45768  -0.00001   0.00000  -0.02101  -0.02101  -1.47869
   D22       -1.48310  -0.00003   0.00000  -0.02375  -0.02375  -1.50685
   D23        0.66293   0.00000   0.00000  -0.02248  -0.02247   0.64046
   D24        2.76404   0.00000   0.00000  -0.02359  -0.02357   2.74048
   D25        2.72666  -0.00005   0.00000  -0.02310  -0.02312   2.70354
   D26       -1.41050  -0.00003   0.00000  -0.02182  -0.02184  -1.43234
   D27        0.69062  -0.00002   0.00000  -0.02293  -0.02294   0.66768
   D28       -0.74911  -0.00004   0.00000   0.00207   0.00210  -0.74701
   D29        1.29381   0.00002   0.00000   0.00233   0.00234   1.29615
   D30       -2.88703  -0.00002   0.00000   0.00235   0.00237  -2.88466
   D31       -2.88803  -0.00005   0.00000   0.00094   0.00096  -2.88707
   D32       -0.84512   0.00001   0.00000   0.00120   0.00120  -0.84391
   D33        1.25723  -0.00004   0.00000   0.00122   0.00123   1.25846
   D34        1.29701  -0.00003   0.00000   0.00272   0.00273   1.29973
   D35       -2.94326   0.00003   0.00000   0.00298   0.00297  -2.94029
   D36       -0.84091  -0.00002   0.00000   0.00300   0.00299  -0.83792
   D37        0.63147   0.00003   0.00000   0.01745   0.01743   0.64890
   D38        2.78049   0.00002   0.00000   0.01687   0.01684   2.79733
   D39       -1.42468   0.00002   0.00000   0.01872   0.01872  -1.40596
   D40       -1.40447  -0.00001   0.00000   0.01649   0.01649  -1.38798
   D41        0.74455  -0.00001   0.00000   0.01591   0.01590   0.76045
   D42        2.82257  -0.00001   0.00000   0.01776   0.01778   2.84035
   D43        2.77532  -0.00002   0.00000   0.01556   0.01555   2.79088
   D44       -1.35884  -0.00002   0.00000   0.01498   0.01496  -1.34388
   D45        0.71918  -0.00002   0.00000   0.01684   0.01684   0.73602
         Item               Value     Threshold  Converged?
 Maximum Force            0.000237     0.000450     YES
 RMS     Force            0.000035     0.000300     YES
 Maximum Displacement     0.068679     0.001800     NO 
 RMS     Displacement     0.016746     0.001200     NO 
 Predicted change in Energy=-1.926959D-06
 GradGradGradGradGradGradGradGradGradGradGradGradGradGradGradGradGradGrad

 1\1\GINC-KATANA2\Freq\RM062X\6-31+G(d)\C5H10\Z5358697\17-Mar-2025\0\\#
 N Geom=AllCheck Guess=TCheck SCRF=Check GenChk RM062X/6-31+G(d) Freq\\
 cyclopentane\\0,1\C,-0.2497968857,0.8639970443,-0.9462996546\C,1.14136
 57943,0.4786278621,-0.3766977915\C,0.8466987358,-0.3259469741,0.899083
 493\C,-0.4571865085,-1.052649494,0.5578255586\C,-1.2825234512,0.039079
 1753,-0.1378513266\H,-0.3084032438,0.6303180487,-2.0139615672\H,-0.440
 8080769,1.937035171,-0.848243249\H,1.6760353877,-0.1582149386,-1.09106
 02704\H,1.7753757729,1.3501310539,-0.188072491\H,1.6633321681,-0.99992
 97734,1.1766325898\H,0.674691286,0.3534963432,1.7445255081\H,-0.248580
 9792,-1.872526655,-0.1427382416\H,-0.9610231189,-1.480558402,1.4303251
 869\H,-2.0838296612,-0.3647613514,-0.7640450219\H,-1.7548472194,0.6718
 028902,0.6232772775\\Version=ES64L-G09RevD.01\State=1-A\HF=-196.452176
 9\RMSD=3.507e-09\RMSF=8.040e-05\ZeroPoint=0.1422969\Thermal=0.1474003\
 Dipole=0.000585,-0.003824,0.0037515\DipoleDeriv=0.0220745,-0.0142288,0
 .0015858,-0.0005871,0.1109294,0.0417608,0.0146439,0.0366164,0.1049223,
 0.0777806,0.0105522,-0.0098787,-0.0299189,0.1121226,0.0610989,-0.03177
 72,0.0471885,0.0624338,0.0579706,-0.050117,-0.0334537,-0.0294573,0.092
 1811,0.0615012,0.007773,0.0247195,0.0961671,0.0465416,-0.0266829,-0.03
 93495,-0.0008337,0.0891245,0.0116214,-0.0291582,0.0609602,0.1121568,0.
 0731513,0.0137289,0.012837,-0.0175108,0.0668425,0.0583364,-0.034732,0.
 0594385,0.1133877,0.0145093,0.0076422,-0.0169405,-0.0078216,0.0348557,
 -0.0533055,-0.0182862,0.0098876,-0.1738702,0.0119087,0.0264118,0.00360
 7,0.0432442,-0.1720684,0.0394752,0.00477,-0.0184483,0.0332555,-0.03728
 92,0.0427473,0.0437366,0.0962249,-0.0310754,-0.0812605,0.0730592,-0.05
 30531,-0.0671397,-0.0648475,-0.0882276,-0.0076021,-0.1318444,-0.086334
 5,0.0023021,-0.0239052,-0.0123688,0.0368735,-0.0968086,0.0877472,-0.07
 56425,0.0996391,-0.0266026,0.0656653,-0.0504019,0.038375,0.0116935,0.0
 251851,0.0179088,0.0549232,-0.007281,-0.0548408,-0.114382,0.0171861,-0
 .0770712,-0.1046716,0.0091177,0.0513475,0.017292,0.0258394,-0.0888701,
 -0.0791449,0.0060395,-0.129617,-0.050207,-0.01277,-0.0623597,0.074693,
 -0.0449092,-0.0143867,0.0738543,0.0786102,0.1100572,-0.0839841,-0.1154
 636,-0.0462362,-0.0737799,-0.0651177,0.017885,-0.0218809,-0.114416,-0.
 0248739,-0.0197002,-0.0110606,0.0297664,0.0479721,0.0703341,-0.0497624
 ,-0.0656416,0.1005947,-0.0718107,-0.0713174\Polar=57.1464376,0.6781673
 ,54.0876644,0.738765,-3.1001652,54.2094143\PG=C01 [X(C5H10)]\NImag=0\\
 0.40647208,-0.03307475,0.58388411,0.01028598,0.02386031,0.58055955,-0.
 15035017,0.02522098,-0.03486212,0.52893234,0.02612594,-0.08340518,0.00
 738275,0.05037348,0.57168128,-0.02921663,0.00253692,-0.08665780,-0.047
 63226,0.06970581,0.48314185,-0.00054875,0.00953070,-0.02237893,-0.0766
 2603,-0.01086991,0.02246119,0.53819625,0.00863059,-0.00762350,0.015331
 40,-0.00775735,-0.10512822,0.04466244,-0.09322317,0.53339728,-0.010952
 34,0.01003090,-0.01522641,0.02208431,0.04254634,-0.15718172,0.03807759
 ,0.03796556,0.54240417,0.00826534,-0.01088946,0.00285543,-0.01596685,-
 0.01938643,0.00690410,-0.15895575,-0.04908469,-0.02073492,0.47016511,-
 0.00105672,-0.02038574,0.01396801,-0.01559276,-0.01576025,0.00619061,-
 0.04518383,-0.10394267,-0.01819983,0.02405140,0.56357520,-0.00128000,0
 .02380938,-0.01258605,0.01878669,0.02003041,0.00174580,-0.02450827,-0.
 02004258,-0.08321911,-0.08305775,0.00267539,0.58509644,-0.11451559,-0.
 03576768,0.03866522,-0.03103632,-0.01121429,0.00525231,-0.03134476,0.0
 1394187,-0.01347676,-0.10785534,0.04727284,-0.02466306,0.57358713,-0.0
 3361978,-0.10156358,0.02156539,-0.00736124,0.00245210,-0.00589391,-0.0
 0140684,0.00794706,0.00047844,0.04934088,-0.13494358,0.03168458,-0.001
 44109,0.48038065,0.03736192,0.02711583,-0.10690373,-0.00118618,-0.0031
 9316,0.00626586,-0.01959958,0.00923110,-0.00651234,-0.02749920,0.02898
 302,-0.09847387,0.03380636,0.09302434,0.53890934,-0.04548969,-0.003557
 41,-0.01401495,-0.00310043,-0.00514781,-0.02887450,-0.00451346,0.00026
 777,-0.00068316,-0.00070554,-0.00028254,0.00051436,-0.00178165,0.00616
 629,0.02274573,0.05581322,-0.00371866,-0.06501131,-0.06108700,0.001574
 83,0.00098069,0.00861973,0.00100872,-0.00100617,0.00090377,-0.00014285
 ,0.00006606,0.00040347,0.00062687,0.00491159,0.01738911,0.00311366,0.0
 6636918,-0.01394302,-0.06030323,-0.30577901,0.00032803,-0.00277247,-0.
 00773414,-0.00139580,0.00098699,0.00008686,0.00002207,-0.00018722,-0.0
 0058124,0.00001004,-0.00507256,-0.01311373,0.01439384,0.06431014,0.328
 29250,-0.05310704,0.04591664,0.00367238,-0.00683261,0.02767271,0.00528
 486,-0.00140737,0.00071416,-0.00017462,-0.00349363,-0.00146167,0.00110
 521,0.00388752,-0.02263643,-0.00105333,0.00057274,-0.00203827,0.000004
 03,0.06179556,0.04624475,-0.30894065,-0.02805530,-0.00040275,-0.003865
 78,-0.00185429,-0.00001666,-0.00046583,-0.00014241,-0.00203972,-0.0005
 1643,0.00171351,0.00308028,-0.01289480,-0.00241236,0.00116950,-0.00713
 733,-0.00129295,-0.04862520,0.33144903,0.00377793,-0.02933818,-0.05239
 334,-0.00102602,0.01170267,0.00150392,-0.00022700,0.00052296,-0.000246
 04,0.00163538,0.00164702,-0.00202057,-0.00253745,0.01742792,0.00038986
 ,0.00558496,-0.03356860,-0.00267487,-0.00642088,0.02897624,0.05463938,
 -0.01390579,0.01732011,0.01605776,-0.10967646,0.07213137,0.08482306,-0
 .00206125,0.00311846,0.00231798,0.00006453,0.00062688,0.00015797,-0.00
 139977,0.00058307,-0.00125380,0.00171369,0.00006760,0.00018452,-0.0042
 2934,0.00050846,-0.00100220,0.11859433,0.00367491,-0.00524153,-0.00404
 186,0.07188204,-0.14191931,-0.10292907,-0.00900824,0.01064415,0.013090
 08,0.00053151,0.00067932,0.00025025,0.00007488,-0.00069434,0.00025280,
 -0.00027117,0.00130499,0.00037968,0.00194062,0.00052796,0.00068973,-0.
 08135453,0.14999892,-0.00922170,0.00912174,0.00728963,0.08495387,-0.10
 278590,-0.15810533,0.01221702,-0.01712847,-0.02184316,-0.00037703,-0.0
 0089130,0.00043331,-0.00045567,0.00096239,-0.00047038,-0.00005174,0.00
 064678,0.00171510,-0.00252899,0.00102776,-0.00012872,-0.08831945,0.108
 04082,0.17679816,-0.01331678,-0.02084274,-0.00382706,-0.13434260,-0.12
 321696,-0.02713571,-0.00208078,-0.00219248,-0.00083118,-0.00125699,0.0
 0020373,0.00050040,-0.00295233,-0.00024618,-0.00144636,-0.00219467,0.0
 0026644,-0.00071006,0.00141439,0.00001455,0.00042454,0.01009290,0.0135
 0793,0.00236910,0.14602434,0.00787296,0.00844554,0.00178848,-0.1247510
 2,-0.22351317,-0.04066005,-0.00783408,-0.01103180,-0.00501547,-0.00007
 414,-0.00115435,0.00365161,0.00193806,-0.00010563,0.00073826,0.0004798
 8,0.00011876,0.00078496,-0.00027916,0.00150785,-0.00002029,-0.01092650
 ,-0.01558797,-0.00329786,0.13377768,0.23989621,-0.00588966,-0.00838408
 ,-0.00265389,-0.02815317,-0.04212716,-0.05607294,0.01734685,0.02223805
 ,0.00637518,0.00109627,0.00279527,-0.00495922,-0.00073440,0.00071650,-
 0.00147520,-0.00139214,0.00027921,-0.00055651,0.00051187,0.00014018,0.
 00117912,-0.01305199,-0.01812088,-0.00354717,0.02949823,0.04229082,0.0
 5924067,-0.00090852,-0.00155544,0.00165102,0.00775011,-0.00617784,0.00
 319486,-0.19762406,0.12510172,-0.04923578,-0.01600216,0.01844144,-0.00
 544191,-0.00422713,-0.00355267,-0.00206444,0.00035867,0.00002220,0.000
 07191,0.00022381,0.00005660,-0.00005072,0.00068695,0.00018035,-0.00070
 147,-0.00021326,-0.00006770,-0.00042667,0.21280780,-0.00189070,-0.0006
 5181,0.00210087,0.01215477,-0.00880488,0.00210437,0.12623553,-0.154175
 75,0.03986045,-0.01307287,0.01253076,-0.00500341,-0.00338740,-0.001470
 47,-0.00077511,0.00067735,-0.00018147,0.00029165,0.00018891,-0.0000647
 9,-0.00003018,-0.00034666,0.00138509,-0.00039796,-0.00011137,-0.000578
 75,0.00027115,-0.13616793,0.16270568,-0.00013102,0.00225162,-0.0035802
 9,-0.02033370,0.01395246,-0.00558903,-0.04780558,0.03833463,-0.0638424
 8,-0.00263954,0.00313804,-0.00212794,-0.00029794,0.00072017,-0.0011554
 1,-0.00089507,0.00037905,-0.00053136,-0.00060952,0.00031092,-0.0003743
 6,-0.00040994,-0.00056467,0.00104396,0.00035631,0.00040286,-0.00017018
 ,0.05407091,-0.04391672,0.06905409,-0.00000277,0.00002469,0.00012673,-
 0.00289566,0.00452257,0.00749089,-0.05624754,0.03000087,0.03004404,0.0
 0377851,-0.01911572,-0.02297754,0.00123825,-0.00074961,0.00015233,0.00
 001039,-0.00005160,0.00004362,0.00021323,-0.00001050,-0.00000023,0.000
 69790,-0.00158354,0.00185766,0.00019615,0.00023674,-0.00015300,-0.0034
 2628,0.01508499,0.01958911,0.05998745,-0.00049292,0.00008762,-0.000516
 62,-0.00416463,0.01155209,0.01536728,0.02997458,-0.14943347,-0.1239806
 2,0.00210731,-0.01329314,-0.01378464,0.00087507,0.00052059,0.00041274,
 -0.00008654,-0.00009275,-0.00016159,0.00007761,-0.00007609,-0.00004735
 ,-0.00054360,-0.00096440,0.00406154,-0.00003651,0.00154945,-0.00069880
 ,0.00270247,-0.01262591,-0.01565859,-0.02661153,0.16225745,0.00020938,
 0.00005511,0.00007987,0.00622537,-0.01651389,-0.02023431,0.03025590,-0
 .12420324,-0.20127983,0.00115397,-0.00360819,-0.00420025,0.00028007,-0
 .00001974,0.00008542,-0.00012565,0.00016139,0.00018588,-0.00030135,0.0
 0022586,-0.00035594,0.00015945,0.00335961,-0.00404052,0.00011449,-0.00
 014693,0.00168878,-0.00085547,0.00517351,0.00696455,-0.03502219,0.1350
 2404,0.21925153,-0.00000233,-0.00023378,0.00009045,0.00098677,0.000556
 05,-0.00077145,0.00458032,-0.02332950,-0.02049542,-0.05611213,0.035894
 98,0.03553317,-0.00627932,0.01559390,0.01296984,0.00027802,0.00013415,
 -0.00020839,-0.00003148,-0.00008544,-0.00011565,-0.00017345,0.00004182
 ,0.00054233,-0.00006599,0.00041026,-0.00004677,0.00155281,0.00089109,-
 0.00008955,-0.00475453,-0.00389966,-0.00093401,0.06385846,0.00013821,0
 .00029180,-0.00016902,0.00037254,0.00019498,-0.00032905,0.00265410,-0.
 01069033,-0.00974016,0.03589165,-0.19264817,-0.12201739,0.00533264,-0.
 01574963,-0.01478420,-0.00005112,-0.00044738,0.00037847,-0.00008962,0.
 00019793,0.00018676,-0.00057004,-0.00020372,0.00038239,-0.00012331,0.0
 0029944,0.00024854,-0.00005978,0.00089490,0.00036063,-0.00254529,-0.00
 046590,-0.00012529,-0.04048800,0.20919064,-0.00025498,-0.00075324,0.00
 045250,0.00044485,0.00048734,0.00054259,0.00086847,-0.00681717,-0.0075
 7830,0.03527793,-0.12215008,-0.15796701,-0.00355573,0.01223516,0.01038
 726,-0.00001219,-0.00004531,-0.00013300,-0.00008399,-0.00021886,-0.000
 02210,0.00012098,-0.00014320,0.00053361,-0.00018693,0.00005979,0.00010
 255,-0.00003333,0.00033621,0.00010242,-0.00220936,-0.00063418,0.000946
 95,-0.03374129,0.13501429,0.16819945,-0.00265922,0.00259048,-0.0017647
 4,-0.00461989,-0.00316144,-0.00242535,-0.00970165,-0.00870709,0.023550
 50,-0.10510432,-0.04740978,0.10056024,0.01043748,0.00772744,-0.0158105
 5,0.00026183,0.00007846,-0.00011596,0.00068208,0.00048779,-0.00040371,
 0.00007127,0.00023517,-0.00015173,-0.00011947,-0.00102688,0.00152639,-
 0.00033366,0.00046535,-0.00002938,0.00149689,0.00043115,-0.00039737,-0
 .00297821,-0.00211751,0.00452885,0.11185551,0.00075524,-0.00291228,0.0
 0168373,-0.00111055,-0.00204107,0.00026478,-0.00380250,-0.00512473,0.0
 1054476,-0.04623878,-0.08755408,0.07999489,-0.01148331,-0.00739180,0.0
 1512027,-0.00023884,-0.00036224,0.00045003,-0.00050194,-0.00058297,0.0
 0065717,-0.00028905,0.00000614,0.00039463,-0.00042585,-0.00021384,0.00
 067746,-0.00014401,0.00007458,-0.00024749,0.00035751,0.00018968,0.0002
 7022,0.01162310,0.01038919,-0.01986190,0.05164944,0.09499062,-0.002040
 27,0.00145554,0.00031300,-0.00202494,-0.00073109,0.00018972,-0.0047933
 1,-0.00481456,0.00890908,0.10107145,0.08210610,-0.22492933,0.00701670,
 0.00289844,-0.00938233,0.00003519,-0.00009143,-0.00006267,0.00048001,0
 .00039485,-0.00038535,-0.00016765,-0.00013499,0.00016561,-0.00003689,-
 0.00026969,0.00049279,0.00044987,0.00047697,-0.00004156,0.00050608,0.0
 0047970,0.00071905,0.00933753,0.00796878,-0.01653533,-0.10941846,-0.08
 981338,0.23976551,-0.01181343,-0.00523243,-0.01135024,-0.00187204,-0.0
 0129791,0.00034790,-0.00227038,0.00216641,-0.00033495,-0.00988830,-0.0
 0680358,-0.00713697,-0.18940044,-0.07305031,-0.11324587,0.00105679,0.0
 0046993,0.00004796,-0.00113878,-0.00062330,0.00061539,-0.00047219,0.00
 012004,0.00000766,-0.00079511,0.00018005,-0.00013604,-0.00081696,-0.00
 049159,-0.00040059,0.00009314,-0.00018552,-0.00012968,0.00045087,-0.00
 022279,0.00050876,-0.00023696,0.00041951,-0.00030831,0.20555660,-0.010
 20723,-0.00562263,-0.00916780,-0.00043652,-0.00185682,0.00132618,0.002
 69132,-0.00377545,0.00230599,0.01859745,0.01118821,0.01389051,-0.07451
 154,-0.08632413,-0.06096744,0.00058740,0.00142810,0.00001813,-0.001092
 57,-0.00094186,0.00072488,-0.00021158,0.00007636,-0.00006913,-0.000468
 87,0.00027061,-0.00027812,0.00131492,0.00086503,0.00016850,0.00001691,
 0.00007178,0.00024658,-0.00070024,0.00138465,-0.00057645,-0.00043889,-
 0.00009209,0.00025522,0.07943533,0.09056705,0.01461129,0.00642284,0.01
 024948,0.00238733,0.00196653,-0.00101420,-0.00105955,0.00333832,-0.001
 26012,-0.00822976,-0.00710150,-0.00734428,-0.11520089,-0.06041553,-0.1
 4033806,-0.00020705,-0.00019918,0.00150048,0.00052687,0.00101866,-0.00
 034710,0.00030741,-0.00009353,0.00010326,0.00062760,-0.00025264,0.0003
 2163,-0.00089230,-0.00051308,0.00019083,0.00044427,0.00025016,0.000220
 62,0.00061677,0.00005531,0.00124555,-0.00015217,0.00019382,-0.00051586
 ,0.12306557,0.06362428,0.15041893,-0.00811735,0.01055009,0.01479306,-0
 .00035015,-0.00090952,0.00029673,0.00060519,0.00035241,0.00084472,-0.0
 0693249,0.01041533,0.01190746,-0.09835774,0.06465257,0.07612313,-0.002
 27990,-0.00141150,0.00126720,0.00145093,0.00024164,-0.00025434,-0.0000
 0335,0.00002822,-0.00013988,-0.00038980,0.00006384,0.00000422,0.000171
 87,-0.00022946,-0.00037451,-0.00038515,-0.00014728,-0.00063291,-0.0013
 0983,0.00187831,-0.00167204,0.00094832,-0.00056996,-0.00010700,0.01154
 719,-0.01457590,-0.01684539,0.10340225,-0.00938186,0.00864914,0.015356
 65,-0.00000182,-0.00056645,0.00088824,-0.00074972,0.00040942,-0.000647
 81,0.01040875,-0.01784115,-0.01725598,0.06466280,-0.13507403,-0.110135
 21,-0.00282641,-0.00094073,0.00218998,0.00021420,0.00180375,0.00046925
 ,-0.00011399,-0.00001167,-0.00006742,-0.00010607,0.00009765,-0.0000481
 4,-0.00009433,0.00009777,0.00036860,0.00042351,0.00072300,0.00010096,0
 .00359127,-0.00263841,0.00306758,-0.00080369,0.00062489,-0.00018045,0.
 00511615,-0.00723883,-0.00829445,-0.07033879,0.15190564,0.00668311,-0.
 00788146,-0.01316351,0.00000794,0.00034934,-0.00080026,0.00054099,0.00
 039458,0.00041422,-0.00747841,0.01063465,0.01113332,0.07589120,-0.1103
 1158,-0.17821270,0.00298236,0.00189889,-0.00061428,-0.00041256,0.00016
 819,0.00123612,0.00007590,-0.00003476,0.00005266,0.00028352,-0.0000538
 3,0.00003439,0.00026353,0.00002126,0.00005674,0.00010760,-0.00011308,-
 0.00003181,-0.00268756,0.00256994,-0.00027713,0.00050345,-0.00032900,0
 .00129769,0.00844941,-0.01150132,-0.01343117,-0.08521046,0.11418819,0.
 19230573\\-0.00001794,-0.00001710,0.00009664,-0.00009574,0.00006637,0.
 00000101,-0.00002353,0.00010208,-0.00003234,0.00018816,-0.00025273,0.0
 0024490,-0.00000749,0.00015578,-0.00022443,0.00005476,-0.00000603,-0.0
 0001816,-0.00001592,0.00001926,-0.00003085,-0.00000520,-0.00001066,0.0
 0001202,0.00000139,-0.00006211,0.00002773,0.00002170,0.00000805,-0.000
 01134,-0.00002282,0.00001047,0.00000298,0.00001459,0.00002658,-0.00003
 631,-0.00007498,-0.00002901,-0.00000661,-0.00000301,-0.00002635,-0.000
 01826,-0.00001397,0.00001539,-0.00000698\\\@


 The arm of the moral universe is long, but it bends toward justice.
 -- Martin Luther King, Jr.
 Job cpu time:       0 days  0 hours  2 minutes 45.5 seconds.
 File lengths (MBytes):  RWF=    132 Int=      0 D2E=      0 Chk=      3 Scr=      2
 Normal termination of Gaussian 09 at Mon Mar 17 19:27:30 2025.
