 Entering Gaussian System, Link 0=g09
 Initial command:
 /apps/z_install_tree/linux-rocky8-ivybridge/gcc-12.2.0/gaussian-09-D.01-wczn3gur5lpur3omlkzwa2l5ecyxp5ef/g09/l1.exe "/srv/scratch/z5358697/gauss/Gau-3997416.inp" -scrdir="/srv/scratch/z5358697/gauss/"
 Entering Link 1 = /apps/z_install_tree/linux-rocky8-ivybridge/gcc-12.2.0/gaussian-09-D.01-wczn3gur5lpur3omlkzwa2l5ecyxp5ef/g09/l1.exe PID=   3997418.
  
 Copyright (c) 1988,1990,1992,1993,1995,1998,2003,2009,2013,
            Gaussian, Inc.  All Rights Reserved.
  
 This is part of the Gaussian(R) 09 program.  It is based on
 the Gaussian(R) 03 system (copyright 2003, Gaussian, Inc.),
 the Gaussian(R) 98 system (copyright 1998, Gaussian, Inc.),
 the Gaussian(R) 94 system (copyright 1995, Gaussian, Inc.),
 the Gaussian 92(TM) system (copyright 1992, Gaussian, Inc.),
 the Gaussian 90(TM) system (copyright 1990, Gaussian, Inc.),
 the Gaussian 88(TM) system (copyright 1988, Gaussian, Inc.),
 the Gaussian 86(TM) system (copyright 1986, Carnegie Mellon
 University), and the Gaussian 82(TM) system (copyright 1983,
 Carnegie Mellon University). Gaussian is a federally registered
 trademark of Gaussian, Inc.
  
 This software contains proprietary and confidential information,
 including trade secrets, belonging to Gaussian, Inc.
  
 This software is provided under written license and may be
 used, copied, transmitted, or stored only in accord with that
 written license.
  
 The following legend is applicable only to US Government
 contracts under FAR:
  
                    RESTRICTED RIGHTS LEGEND
  
 Use, reproduction and disclosure by the US Government is
 subject to restrictions as set forth in subparagraphs (a)
 and (c) of the Commercial Computer Software - Restricted
 Rights clause in FAR 52.227-19.
  
 Gaussian, Inc.
 340 Quinnipiac St., Bldg. 40, Wallingford CT 06492
  
  
 ---------------------------------------------------------------
 Warning -- This program may not be used in any manner that
 competes with the business of Gaussian, Inc. or will provide
 assistance to any competitor of Gaussian, Inc.  The licensee
 of this program is prohibited from giving any competitor of
 Gaussian, Inc. access to this program.  By using this program,
 the user acknowledges that Gaussian, Inc. is engaged in the
 business of creating and licensing software in the field of
 computational chemistry and represents and warrants to the
 licensee that it is not a competitor of Gaussian, Inc. and that
 it will not use this program in any manner prohibited above.
 ---------------------------------------------------------------
  

 Cite this work as:
 Gaussian 09, Revision D.01,
 M. J. Frisch, G. W. Trucks, H. B. Schlegel, G. E. Scuseria, 
 M. A. Robb, J. R. Cheeseman, G. Scalmani, V. Barone, B. Mennucci, 
 G. A. Petersson, H. Nakatsuji, M. Caricato, X. Li, H. P. Hratchian, 
 A. F. Izmaylov, J. Bloino, G. Zheng, J. L. Sonnenberg, M. Hada, 
 M. Ehara, K. Toyota, R. Fukuda, J. Hasegawa, M. Ishida, T. Nakajima, 
 Y. Honda, O. Kitao, H. Nakai, T. Vreven, J. A. Montgomery, Jr., 
 J. E. Peralta, F. Ogliaro, M. Bearpark, J. J. Heyd, E. Brothers, 
 K. N. Kudin, V. N. Staroverov, T. Keith, R. Kobayashi, J. Normand, 
 K. Raghavachari, A. Rendell, J. C. Burant, S. S. Iyengar, J. Tomasi, 
 M. Cossi, N. Rega, J. M. Millam, M. Klene, J. E. Knox, J. B. Cross, 
 V. Bakken, C. Adamo, J. Jaramillo, R. Gomperts, R. E. Stratmann, 
 O. Yazyev, A. J. Austin, R. Cammi, C. Pomelli, J. W. Ochterski, 
 R. L. Martin, K. Morokuma, V. G. Zakrzewski, G. A. Voth, 
 P. Salvador, J. J. Dannenberg, S. Dapprich, A. D. Daniels, 
 O. Farkas, J. B. Foresman, J. V. Ortiz, J. Cioslowski, 
 and D. J. Fox, Gaussian, Inc., Wallingford CT, 2013.
 
 ******************************************
 Gaussian 09:  ES64L-G09RevD.01 24-Apr-2013
                21-Mar-2025 
 ******************************************
 ---------------------------------
 #m062X/6-31+G(d) OPT Freq=noraman
 ---------------------------------
 1/14=-1,18=20,19=15,26=3,38=1/1,3;
 2/9=110,12=2,17=6,18=5,40=1/2;
 3/5=1,6=6,7=11,11=2,16=1,25=1,30=1,71=1,74=-55/1,2,3;
 4//1;
 5/5=2,38=5/2;
 6/7=2,8=2,9=2,10=2,28=1/1;
 7//1,2,3,16;
 1/14=-1,18=20,19=15,26=3/3(2);
 2/9=110/2;
 99//99;
 2/9=110/2;
 3/5=1,6=6,7=11,11=2,16=1,25=1,30=1,71=1,74=-55/1,2,3;
 4/5=5,16=3,69=1/1;
 5/5=2,38=5/2;
 7//1,2,3,16;
 1/14=-1,18=20,19=15,26=3/3(-5);
 2/9=110/2;
 6/7=2,8=2,9=2,10=2,19=2,28=1/1;
 99/9=1/99;
 --------------
 3-chlorophenol
 --------------
 Symbolic Z-matrix:
 Charge =  0 Multiplicity = 1
 C                     1.8851   -1.0363   -0.1124 
 C                     2.921    -1.6309    0.6081 
 C                     2.8783   -1.652     2.0022 
 C                     1.7997   -1.0786    2.6757 
 C                     0.7638   -0.4841    1.9551 
 C                     0.8066   -0.463     0.561 
 Cl                   -0.5674    0.2235    2.7847 
 O                     3.8892   -2.2319    2.7052 
 H                     1.9186   -1.0202   -1.1979 
 H                     3.7588   -2.0756    0.078 
 H                     1.7743   -1.0986    3.7627 
 H                     0.007    -0.0024   -0.0137 
 H                     4.5616   -2.5831    2.0999 
 

 GradGradGradGradGradGradGradGradGradGradGradGradGradGradGradGradGradGrad
 Berny optimization.
 Initialization pass.
                           ----------------------------
                           !    Initial Parameters    !
                           ! (Angstroms and Degrees)  !
 --------------------------                            --------------------------
 ! Name  Definition              Value          Derivative Info.                !
 --------------------------------------------------------------------------------
 ! R1    R(1,2)                  1.3949         estimate D2E/DX2                !
 ! R2    R(1,6)                  1.3947         estimate D2E/DX2                !
 ! R3    R(1,9)                  1.0861         estimate D2E/DX2                !
 ! R4    R(2,3)                  1.3949         estimate D2E/DX2                !
 ! R5    R(2,10)                 1.0866         estimate D2E/DX2                !
 ! R6    R(3,4)                  1.3949         estimate D2E/DX2                !
 ! R7    R(3,8)                  1.361          estimate D2E/DX2                !
 ! R8    R(4,5)                  1.3949         estimate D2E/DX2                !
 ! R9    R(4,11)                 1.0875         estimate D2E/DX2                !
 ! R10   R(5,6)                  1.3949         estimate D2E/DX2                !
 ! R11   R(5,7)                  1.7208         estimate D2E/DX2                !
 ! R12   R(6,12)                 1.0871         estimate D2E/DX2                !
 ! R13   R(8,13)                 0.9705         estimate D2E/DX2                !
 ! A1    A(2,1,6)              120.0052         estimate D2E/DX2                !
 ! A2    A(2,1,9)              119.9758         estimate D2E/DX2                !
 ! A3    A(6,1,9)              120.019          estimate D2E/DX2                !
 ! A4    A(1,2,3)              119.9958         estimate D2E/DX2                !
 ! A5    A(1,2,10)             119.6738         estimate D2E/DX2                !
 ! A6    A(3,2,10)             120.3303         estimate D2E/DX2                !
 ! A7    A(2,3,4)              119.9999         estimate D2E/DX2                !
 ! A8    A(2,3,8)              119.9952         estimate D2E/DX2                !
 ! A9    A(4,3,8)              120.005          estimate D2E/DX2                !
 ! A10   A(3,4,5)              119.9999         estimate D2E/DX2                !
 ! A11   A(3,4,11)             119.5455         estimate D2E/DX2                !
 ! A12   A(5,4,11)             120.4546         estimate D2E/DX2                !
 ! A13   A(4,5,6)              119.9967         estimate D2E/DX2                !
 ! A14   A(4,5,7)              120.0466         estimate D2E/DX2                !
 ! A15   A(6,5,7)              119.9567         estimate D2E/DX2                !
 ! A16   A(1,6,5)              120.0026         estimate D2E/DX2                !
 ! A17   A(1,6,12)             119.1879         estimate D2E/DX2                !
 ! A18   A(5,6,12)             120.8094         estimate D2E/DX2                !
 ! A19   A(3,8,13)             110.2818         estimate D2E/DX2                !
 ! D1    D(6,1,2,3)             -0.0063         estimate D2E/DX2                !
 ! D2    D(6,1,2,10)          -179.9774         estimate D2E/DX2                !
 ! D3    D(9,1,2,3)           -179.9899         estimate D2E/DX2                !
 ! D4    D(9,1,2,10)             0.039          estimate D2E/DX2                !
 ! D5    D(2,1,6,5)              0.004          estimate D2E/DX2                !
 ! D6    D(2,1,6,12)           179.9451         estimate D2E/DX2                !
 ! D7    D(9,1,6,5)            179.9876         estimate D2E/DX2                !
 ! D8    D(9,1,6,12)            -0.0713         estimate D2E/DX2                !
 ! D9    D(1,2,3,4)              0.0043         estimate D2E/DX2                !
 ! D10   D(1,2,3,8)           -179.9853         estimate D2E/DX2                !
 ! D11   D(10,2,3,4)           179.9752         estimate D2E/DX2                !
 ! D12   D(10,2,3,8)            -0.0144         estimate D2E/DX2                !
 ! D13   D(2,3,4,5)              0.0            estimate D2E/DX2                !
 ! D14   D(2,3,4,11)          -179.9573         estimate D2E/DX2                !
 ! D15   D(8,3,4,5)            179.9895         estimate D2E/DX2                !
 ! D16   D(8,3,4,11)             0.0323         estimate D2E/DX2                !
 ! D17   D(2,3,8,13)             0.009          estimate D2E/DX2                !
 ! D18   D(4,3,8,13)          -179.9806         estimate D2E/DX2                !
 ! D19   D(3,4,5,6)             -0.0023         estimate D2E/DX2                !
 ! D20   D(3,4,5,7)            179.9953         estimate D2E/DX2                !
 ! D21   D(11,4,5,6)           179.9546         estimate D2E/DX2                !
 ! D22   D(11,4,5,7)            -0.0478         estimate D2E/DX2                !
 ! D23   D(4,5,6,1)              0.0003         estimate D2E/DX2                !
 ! D24   D(4,5,6,12)          -179.9399         estimate D2E/DX2                !
 ! D25   D(7,5,6,1)           -179.9973         estimate D2E/DX2                !
 ! D26   D(7,5,6,12)             0.0625         estimate D2E/DX2                !
 --------------------------------------------------------------------------------
 Trust Radius=3.00D-01 FncErr=1.00D-07 GrdErr=1.00D-06
 Number of steps in this run=     68 maximum allowed number of steps=    100.
 GradGradGradGradGradGradGradGradGradGradGradGradGradGradGradGradGradGrad

                          Input orientation:                          
 ---------------------------------------------------------------------
 Center     Atomic      Atomic             Coordinates (Angstroms)
 Number     Number       Type             X           Y           Z
 ---------------------------------------------------------------------
      1          6           0        1.885100   -1.036300   -0.112400
      2          6           0        2.921000   -1.630900    0.608100
      3          6           0        2.878300   -1.652000    2.002200
      4          6           0        1.799700   -1.078600    2.675700
      5          6           0        0.763800   -0.484100    1.955100
      6          6           0        0.806600   -0.463000    0.561000
      7         17           0       -0.567400    0.223500    2.784700
      8          8           0        3.889200   -2.231900    2.705200
      9          1           0        1.918600   -1.020200   -1.197900
     10          1           0        3.758800   -2.075600    0.078000
     11          1           0        1.774300   -1.098600    3.762700
     12          1           0        0.007000   -0.002400   -0.013700
     13          1           0        4.561600   -2.583100    2.099900
 ---------------------------------------------------------------------
                    Distance matrix (angstroms):
                    1          2          3          4          5
     1  C    0.000000
     2  C    1.394904   0.000000
     3  C    2.416002   1.394913   0.000000
     4  C    2.789728   2.416054   1.394908   0.000000
     5  C    2.415946   2.789816   2.416054   1.394913   0.000000
     6  C    1.394741   2.415967   2.789753   2.416023   1.394916
     7  Cl   3.999380   4.510579   4.000332   2.703795   1.720764
     8  O    3.658517   2.386722   1.361033   2.386835   3.658631
     9  H    1.086136   2.153926   3.400123   3.875864   3.400349
    10  H    2.151081   1.086588   2.158069   3.402959   3.876390
    11  H    3.877184   3.398495   2.150448   1.087481   2.160125
    12  H    2.146148   3.395592   3.876777   3.406590   2.163551
    13  H    3.801383   2.413239   1.926134   3.197367   4.341665
                    6          7          8          9         10
     6  C    0.000000
     7  Cl   2.702591   0.000000
     8  O    4.150786   5.088870   0.000000
     9  H    2.154239   4.856757   4.537143   0.000000
    10  H    3.398419   5.597150   2.635074   2.475505   0.000000
    11  H    3.404602   2.861467   2.622113   4.963318   4.297649
    12  H    1.087103   2.865660   5.237801   2.468291   4.287490
    13  H    4.578544   5.886646   0.970490   4.505951   2.233858
                   11         12         13
    11  H    0.000000
    12  H    4.311172   0.000000
    13  H    3.568989   5.645503   0.000000
 Stoichiometry    C6H5ClO
 Framework group  C1[X(C6H5ClO)]
 Deg. of freedom    33
 Full point group                 C1      NOp   1
 Largest Abelian subgroup         C1      NOp   1
 Largest concise Abelian subgroup C1      NOp   1
                         Standard orientation:                         
 ---------------------------------------------------------------------
 Center     Atomic      Atomic             Coordinates (Angstroms)
 Number     Number       Type             X           Y           Z
 ---------------------------------------------------------------------
      1          6           0        0.772426    1.811430   -0.000006
      2          6           0        1.799028    0.867054   -0.000141
      3          6           0        1.494374   -0.494184   -0.000117
      4          6           0        0.163184   -0.910960   -0.000048
      5          6           0       -0.863351    0.033502   -0.000004
      6          6           0       -0.558610    1.394724    0.000021
      7         17           0       -2.505930   -0.479294   -0.000040
      8          8           0        2.496058   -1.415618    0.000054
      9          1           0        1.010013    2.871262   -0.000191
     10          1           0        2.834092    1.197684    0.000211
     11          1           0       -0.065903   -1.974037    0.000676
     12          1           0       -1.348102    2.142049    0.001035
     13          1           0        3.359942   -0.973400    0.000287
 ---------------------------------------------------------------------
 Rotational constants (GHZ):      3.5124757      1.1839299      0.8854698
 Standard basis: 6-31+G(d) (6D, 7F)
 There are   166 symmetry adapted cartesian basis functions of A   symmetry.
 There are   166 symmetry adapted basis functions of A   symmetry.
   166 basis functions,   300 primitive gaussians,   166 cartesian basis functions
    33 alpha electrons       33 beta electrons
       nuclear repulsion energy       396.6246540593 Hartrees.
 NAtoms=   13 NActive=   13 NUniq=   13 SFac= 1.00D+00 NAtFMM=   60 NAOKFM=F Big=F
 Integral buffers will be    131072 words long.
 Raffenetti 2 integral format.
 Two-electron integral symmetry is turned on.
 One-electron integrals computed using PRISM.
 NBasis=   166 RedAO= T EigKep=  4.79D-06  NBF=   166
 NBsUse=   166 1.00D-06 EigRej= -1.00D+00 NBFU=   166
 ExpMin= 4.38D-02 ExpMax= 2.52D+04 ExpMxC= 3.78D+03 IAcc=2 IRadAn=         4 AccDes= 0.00D+00
 Harris functional with IExCor= 1009 and IRadAn=       4 diagonalized for initial guess.
 HarFok:  IExCor= 1009 AccDes= 0.00D+00 IRadAn=         4 IDoV= 1 UseB2=F ITyADJ=14
 ICtDFT=  3500011 ScaDFX=  1.000000  1.000000  1.000000  1.000000
 FoFCou: FMM=F IPFlag=           0 FMFlag=      100000 FMFlg1=           0
         NFxFlg=           0 DoJE=T BraDBF=F KetDBF=T FulRan=T
         wScrn=  0.000000 ICntrl=     500 IOpCl=  0 I1Cent=   200000004 NGrid=           0
         NMat0=    1 NMatS0=      1 NMatT0=    0 NMatD0=    1 NMtDS0=    0 NMtDT0=    0
 Petite list used in FoFCou.
 Requested convergence on RMS density matrix=1.00D-08 within 128 cycles.
 Requested convergence on MAX density matrix=1.00D-06.
 Requested convergence on             energy=1.00D-06.
 No special actions if energy rises.
 SCF Done:  E(RM062X) =  -766.910028983     A.U. after   14 cycles
            NFock= 14  Conv=0.87D-08     -V/T= 2.0051

 **********************************************************************

            Population analysis using the SCF density.

 **********************************************************************

 Orbital symmetries:
       Occupied  (A) (A) (A) (A) (A) (A) (A) (A) (A) (A) (A) (A)
                 (A) (A) (A) (A) (A) (A) (A) (A) (A) (A) (A) (A)
                 (A) (A) (A) (A) (A) (A) (A) (A) (A)
       Virtual   (A) (A) (A) (A) (A) (A) (A) (A) (A) (A) (A) (A)
                 (A) (A) (A) (A) (A) (A) (A) (A) (A) (A) (A) (A)
                 (A) (A) (A) (A) (A) (A) (A) (A) (A) (A) (A) (A)
                 (A) (A) (A) (A) (A) (A) (A) (A) (A) (A) (A) (A)
                 (A) (A) (A) (A) (A) (A) (A) (A) (A) (A) (A) (A)
                 (A) (A) (A) (A) (A) (A) (A) (A) (A) (A) (A) (A)
                 (A) (A) (A) (A) (A) (A) (A) (A) (A) (A) (A) (A)
                 (A) (A) (A) (A) (A) (A) (A) (A) (A) (A) (A) (A)
                 (A) (A) (A) (A) (A) (A) (A) (A) (A) (A) (A) (A)
                 (A) (A) (A) (A) (A) (A) (A) (A) (A) (A) (A) (A)
                 (A) (A) (A) (A) (A) (A) (A) (A) (A) (A) (A) (A)
                 (A)
 The electronic state is 1-A.
 Alpha  occ. eigenvalues -- -102.67582 -19.69028 -10.63445 -10.62558 -10.57526
 Alpha  occ. eigenvalues --  -10.56916 -10.56820 -10.56606  -9.82279  -7.54690
 Alpha  occ. eigenvalues --   -7.54018  -7.53999  -1.20154  -1.00462  -0.94370
 Alpha  occ. eigenvalues --   -0.85951  -0.83453  -0.71797  -0.70908  -0.62622
 Alpha  occ. eigenvalues --   -0.59188  -0.56356  -0.52629  -0.50874  -0.50751
 Alpha  occ. eigenvalues --   -0.48411  -0.45506  -0.44341  -0.42378  -0.39287
 Alpha  occ. eigenvalues --   -0.38206  -0.31133  -0.29126
 Alpha virt. eigenvalues --    0.00294   0.00641   0.02042   0.02357   0.02718
 Alpha virt. eigenvalues --    0.04579   0.05026   0.06355   0.06599   0.07216
 Alpha virt. eigenvalues --    0.09224   0.09567   0.09945   0.10413   0.12735
 Alpha virt. eigenvalues --    0.12856   0.13691   0.13959   0.14718   0.15663
 Alpha virt. eigenvalues --    0.16159   0.16203   0.16966   0.17271   0.20569
 Alpha virt. eigenvalues --    0.20820   0.21504   0.21832   0.22166   0.22484
 Alpha virt. eigenvalues --    0.23519   0.23989   0.25432   0.26725   0.27542
 Alpha virt. eigenvalues --    0.28529   0.29762   0.31220   0.31743   0.33033
 Alpha virt. eigenvalues --    0.35393   0.36639   0.37225   0.40330   0.41350
 Alpha virt. eigenvalues --    0.42501   0.57361   0.58959   0.64054   0.65223
 Alpha virt. eigenvalues --    0.65653   0.69434   0.71590   0.71805   0.74352
 Alpha virt. eigenvalues --    0.74432   0.75368   0.76599   0.77200   0.78506
 Alpha virt. eigenvalues --    0.81835   0.84033   0.84166   0.86452   0.93540
 Alpha virt. eigenvalues --    0.93867   0.95160   0.98215   0.99347   0.99387
 Alpha virt. eigenvalues --    1.00239   1.04428   1.05786   1.07740   1.10914
 Alpha virt. eigenvalues --    1.12269   1.12756   1.19304   1.21689   1.22449
 Alpha virt. eigenvalues --    1.24667   1.25803   1.27649   1.30813   1.33503
 Alpha virt. eigenvalues --    1.40914   1.41421   1.42388   1.46392   1.49138
 Alpha virt. eigenvalues --    1.51524   1.51763   1.52402   1.60207   1.74447
 Alpha virt. eigenvalues --    1.77352   1.82467   1.84069   1.94324   1.97503
 Alpha virt. eigenvalues --    1.99997   2.00952   2.01752   2.05484   2.12768
 Alpha virt. eigenvalues --    2.17136   2.17190   2.17645   2.26928   2.30352
 Alpha virt. eigenvalues --    2.31027   2.32550   2.51656   2.52700   2.58491
 Alpha virt. eigenvalues --    2.61390   2.65314   2.70960   2.73047   2.75499
 Alpha virt. eigenvalues --    2.83805   2.84635   3.05954   3.11608   3.40043
 Alpha virt. eigenvalues --    4.18715   4.25492   4.27217   4.31205   4.37266
 Alpha virt. eigenvalues --    4.45060   4.49353   4.78115
          Condensed to atoms (all electrons):
               1          2          3          4          5          6
     1  C    5.424481   0.342227   0.027148  -0.147297  -0.094019   0.427305
     2  C    0.342227   6.290264   0.605534  -1.258232   0.000227  -0.260717
     3  C    0.027148   0.605534   6.689224  -1.435830   0.144728  -0.018840
     4  C   -0.147297  -1.258232  -1.435830   9.339779   0.074931  -0.778003
     5  C   -0.094019   0.000227   0.144728   0.074931   5.616580   0.340023
     6  C    0.427305  -0.260717  -0.018840  -0.778003   0.340023   6.524428
     7  Cl   0.034588   0.018505  -0.035847   0.061022  -0.165334  -0.079706
     8  O    0.042665   0.019014   0.051887  -0.163098   0.012475   0.015850
     9  H    0.268245   0.042806   0.002275  -0.002672  -0.002843   0.002451
    10  H    0.067254   0.271150  -0.012065  -0.035204   0.012699   0.000535
    11  H   -0.011998   0.008295  -0.018016   0.259520   0.031457   0.034454
    12  H   -0.004940   0.008346  -0.006459   0.042975   0.049031   0.216115
    13  H    0.001731  -0.105828  -0.036267   0.147945  -0.006163  -0.001596
               7          8          9         10         11         12
     1  C    0.034588   0.042665   0.268245   0.067254  -0.011998  -0.004940
     2  C    0.018505   0.019014   0.042806   0.271150   0.008295   0.008346
     3  C   -0.035847   0.051887   0.002275  -0.012065  -0.018016  -0.006459
     4  C    0.061022  -0.163098  -0.002672  -0.035204   0.259520   0.042975
     5  C   -0.165334   0.012475  -0.002843   0.012699   0.031457   0.049031
     6  C   -0.079706   0.015850   0.002451   0.000535   0.034454   0.216115
     7  Cl  16.977324   0.001591   0.000912   0.000421   0.004309   0.003227
     8  O    0.001591   8.542663  -0.000609  -0.013101  -0.003208   0.000076
     9  H    0.000912  -0.000609   0.480166  -0.003694   0.000011  -0.004129
    10  H    0.000421  -0.013101  -0.003694   0.513033  -0.000105  -0.000128
    11  H    0.004309  -0.003208   0.000011  -0.000105   0.457575  -0.000118
    12  H    0.003227   0.000076  -0.004129  -0.000128  -0.000118   0.473758
    13  H    0.000274   0.170207  -0.000006   0.007507  -0.000042   0.000000
              13
     1  C    0.001731
     2  C   -0.105828
     3  C   -0.036267
     4  C    0.147945
     5  C   -0.006163
     6  C   -0.001596
     7  Cl   0.000274
     8  O    0.170207
     9  H   -0.000006
    10  H    0.007507
    11  H   -0.000042
    12  H    0.000000
    13  H    0.335056
 Mulliken charges:
               1
     1  C   -0.377391
     2  C    0.018410
     3  C    0.042527
     4  C   -0.105836
     5  C   -0.013794
     6  C   -0.422301
     7  Cl   0.178716
     8  O   -0.676414
     9  H    0.217088
    10  H    0.191699
    11  H    0.237867
    12  H    0.222246
    13  H    0.487184
 Sum of Mulliken charges =   0.00000
 Mulliken charges with hydrogens summed into heavy atoms:
               1
     1  C   -0.160303
     2  C    0.210109
     3  C    0.042527
     4  C    0.132031
     5  C   -0.013794
     6  C   -0.200055
     7  Cl   0.178716
     8  O   -0.189230
 Electronic spatial extent (au):  <R**2>=           1197.0579
 Charge=              0.0000 electrons
 Dipole moment (field-independent basis, Debye):
    X=              2.4859    Y=              1.6978    Z=              0.0018  Tot=              3.0104
 Quadrupole moment (field-independent basis, Debye-Ang):
   XX=            -45.7022   YY=            -51.5901   ZZ=            -57.2680
   XY=              2.1416   XZ=              0.0009   YZ=              0.0003
 Traceless Quadrupole moment (field-independent basis, Debye-Ang):
   XX=              5.8179   YY=             -0.0700   ZZ=             -5.7479
   XY=              2.1416   XZ=              0.0009   YZ=              0.0003
 Octapole moment (field-independent basis, Debye-Ang**2):
  XXX=             45.2145  YYY=              6.5049  ZZZ=              0.0023  XYY=             -6.6976
  XXY=              2.4966  XXZ=              0.0103  XZZ=             -2.0915  YZZ=             -4.8134
  YYZ=              0.0074  XYZ=             -0.0041
 Hexadecapole moment (field-independent basis, Debye-Ang**3):
 XXXX=           -855.7606 YYYY=           -414.4906 ZZZZ=            -65.9027 XXXY=            -11.3203
 XXXZ=              0.0331 YYYX=             12.2432 YYYZ=              0.0004 ZZZX=              0.0032
 ZZZY=              0.0006 XXYY=           -255.8175 XXZZ=           -195.6415 YYZZ=            -93.4119
 XXYZ=              0.0030 YYXZ=             -0.0069 ZZXY=             -3.9931
 N-N= 3.966246540593D+02 E-N=-2.599987111732D+03  KE= 7.630452444210D+02
 Calling FoFJK, ICntrl=      2127 FMM=F ISym2X=0 I1Cent= 0 IOpClX= 0 NMat=1 NMatS=1 NMatT=0.
 ***** Axes restored to original set *****
 -------------------------------------------------------------------
 Center     Atomic                   Forces (Hartrees/Bohr)
 Number     Number              X              Y              Z
 -------------------------------------------------------------------
      1        6           0.001505843   -0.001157151    0.009090814
      2        6          -0.004559596    0.002743735   -0.006762718
      3        6           0.002503535   -0.001017036   -0.010857346
      4        6          -0.000623762    0.000062869    0.009818684
      5        6           0.016482656   -0.008777981   -0.010120208
      6        6          -0.004604063    0.002838465   -0.007419413
      7       17          -0.005969443    0.003160175    0.004528539
      8        8          -0.002350009    0.001053769    0.007604612
      9        1          -0.000349055    0.000195707    0.000692181
     10        1           0.001168653   -0.000681136    0.000468942
     11        1           0.000439749   -0.000236205   -0.001379712
     12        1          -0.000460630    0.000102822    0.003070142
     13        1          -0.003183877    0.001711966    0.001265484
 -------------------------------------------------------------------
 Cartesian Forces:  Max     0.016482656 RMS     0.005256225

 GradGradGradGradGradGradGradGradGradGradGradGradGradGradGradGradGradGrad
 Berny optimization.
 FormGI is forming the generalized inverse of G from B-inverse, IUseBI=4.
 Internal  Forces:  Max     0.013222799 RMS     0.003286138
 Search for a local minimum.
 Step number   1 out of a maximum of   68
 All quantities printed in internal units (Hartrees-Bohrs-Radians)
 Mixed Optimization -- RFO/linear search
 Second derivative matrix not updated -- first step.
 ITU=  0
     Eigenvalues ---    0.02156   0.02156   0.02156   0.02156   0.02156
     Eigenvalues ---    0.02157   0.02157   0.02158   0.02165   0.02207
     Eigenvalues ---    0.16000   0.16000   0.16000   0.16000   0.16000
     Eigenvalues ---    0.22000   0.23479   0.23493   0.25000   0.25000
     Eigenvalues ---    0.33503   0.35105   0.35150   0.35210   0.35263
     Eigenvalues ---    0.42231   0.42418   0.46474   0.46474   0.46475
     Eigenvalues ---    0.46494   0.52739   0.53277
 RFO step:  Lambda=-2.38816690D-03 EMin= 2.15602109D-02
 Linear search not attempted -- first point.
 Iteration  1 RMS(Cart)=  0.02397082 RMS(Int)=  0.00035619
 Iteration  2 RMS(Cart)=  0.00050275 RMS(Int)=  0.00001428
 Iteration  3 RMS(Cart)=  0.00000001 RMS(Int)=  0.00001428
 Variable       Old X    -DE/DX   Delta X   Delta X   Delta X     New X
                                 (Linear)    (Quad)   (Total)
    R1        2.63599  -0.00245   0.00000  -0.00517  -0.00518   2.63081
    R2        2.63568  -0.00231   0.00000  -0.00502  -0.00500   2.63067
    R3        2.05250  -0.00070   0.00000  -0.00198  -0.00198   2.05052
    R4        2.63600   0.00263   0.00000   0.00578   0.00575   2.64176
    R5        2.05335   0.00095   0.00000   0.00267   0.00267   2.05603
    R6        2.63599  -0.00364   0.00000  -0.00771  -0.00772   2.62827
    R7        2.57198  -0.00072   0.00000  -0.00136  -0.00136   2.57062
    R8        2.63600  -0.00394   0.00000  -0.00851  -0.00849   2.62751
    R9        2.05504  -0.00138   0.00000  -0.00391  -0.00391   2.05113
   R10        2.63601  -0.00196   0.00000  -0.00434  -0.00431   2.63170
   R11        3.25177   0.00810   0.00000   0.02402   0.02402   3.27579
   R12        2.05433  -0.00124   0.00000  -0.00351  -0.00351   2.05082
   R13        1.83396  -0.00357   0.00000  -0.00668  -0.00668   1.82728
    A1        2.09449   0.00270   0.00000   0.01289   0.01289   2.10737
    A2        2.09397  -0.00091   0.00000  -0.00372  -0.00371   2.09026
    A3        2.09473  -0.00180   0.00000  -0.00918  -0.00917   2.08555
    A4        2.09432  -0.00179   0.00000  -0.00683  -0.00687   2.08745
    A5        2.08870   0.00195   0.00000   0.00992   0.00994   2.09864
    A6        2.10016  -0.00016   0.00000  -0.00309  -0.00307   2.09709
    A7        2.09439   0.00132   0.00000   0.00629   0.00625   2.10065
    A8        2.09431   0.01191   0.00000   0.04664   0.04665   2.14096
    A9        2.09448  -0.01322   0.00000  -0.05293  -0.05291   2.04157
   A10        2.09439  -0.00381   0.00000  -0.01639  -0.01639   2.07800
   A11        2.08646   0.00137   0.00000   0.00487   0.00487   2.09133
   A12        2.10233   0.00245   0.00000   0.01152   0.01152   2.11385
   A13        2.09434   0.00668   0.00000   0.02673   0.02677   2.12110
   A14        2.09521  -0.00459   0.00000  -0.01832  -0.01834   2.07687
   A15        2.09364  -0.00209   0.00000  -0.00841  -0.00843   2.08521
   A16        2.09444  -0.00511   0.00000  -0.02269  -0.02265   2.07179
   A17        2.08022   0.00553   0.00000   0.02966   0.02964   2.10986
   A18        2.10852  -0.00042   0.00000  -0.00697  -0.00699   2.10153
   A19        1.92478  -0.00238   0.00000  -0.01466  -0.01466   1.91012
    D1       -0.00011   0.00000   0.00000   0.00002   0.00002  -0.00009
    D2       -3.14120  -0.00001   0.00000  -0.00037  -0.00038  -3.14157
    D3       -3.14142   0.00000   0.00000  -0.00011  -0.00011  -3.14152
    D4        0.00068  -0.00001   0.00000  -0.00051  -0.00051   0.00018
    D5        0.00007   0.00000   0.00000  -0.00002  -0.00002   0.00005
    D6        3.14064   0.00002   0.00000   0.00077   0.00078   3.14141
    D7        3.14138   0.00000   0.00000   0.00012   0.00011   3.14149
    D8       -0.00124   0.00002   0.00000   0.00090   0.00091  -0.00033
    D9        0.00007   0.00000   0.00000   0.00001   0.00001   0.00009
   D10       -3.14134  -0.00001   0.00000  -0.00028  -0.00029   3.14156
   D11        3.14116   0.00001   0.00000   0.00041   0.00042   3.14158
   D12       -0.00025   0.00000   0.00000   0.00012   0.00011  -0.00014
   D13        0.00000   0.00000   0.00000  -0.00005  -0.00005  -0.00005
   D14       -3.14085  -0.00002   0.00000  -0.00068  -0.00067  -3.14152
   D15        3.14141   0.00001   0.00000   0.00025   0.00024  -3.14153
   D16        0.00056  -0.00001   0.00000  -0.00037  -0.00037   0.00019
   D17        0.00016   0.00000   0.00000   0.00008   0.00008   0.00024
   D18       -3.14125  -0.00001   0.00000  -0.00022  -0.00022  -3.14147
   D19       -0.00004   0.00000   0.00000   0.00006   0.00006   0.00002
   D20        3.14151   0.00000   0.00000  -0.00001  -0.00001   3.14151
   D21        3.14080   0.00002   0.00000   0.00068   0.00068   3.14148
   D22       -0.00083   0.00001   0.00000   0.00062   0.00062  -0.00022
   D23        0.00001   0.00000   0.00000  -0.00002  -0.00002  -0.00002
   D24       -3.14054  -0.00002   0.00000  -0.00085  -0.00084  -3.14138
   D25       -3.14155   0.00000   0.00000   0.00005   0.00004  -3.14150
   D26        0.00109  -0.00002   0.00000  -0.00078  -0.00077   0.00032
         Item               Value     Threshold  Converged?
 Maximum Force            0.013223     0.000450     NO 
 RMS     Force            0.003286     0.000300     NO 
 Maximum Displacement     0.106484     0.001800     NO 
 RMS     Displacement     0.023974     0.001200     NO 
 Predicted change in Energy=-1.205503D-03
 GradGradGradGradGradGradGradGradGradGradGradGradGradGradGradGradGradGrad

                          Input orientation:                          
 ---------------------------------------------------------------------
 Center     Atomic      Atomic             Coordinates (Angstroms)
 Number     Number       Type             X           Y           Z
 ---------------------------------------------------------------------
      1          6           0        1.880614   -1.033477   -0.119165
      2          6           0        2.921021   -1.630054    0.587777
      3          6           0        2.882286   -1.653373    1.985004
      4          6           0        1.812344   -1.085081    2.668122
      5          6           0        0.784211   -0.494698    1.941720
      6          6           0        0.802617   -0.460280    0.549633
      7         17           0       -0.548570    0.212979    2.794842
      8          8           0        3.864206   -2.219184    2.737427
      9          1           0        1.907983   -1.013964   -1.203732
     10          1           0        3.759630   -2.075597    0.056761
     11          1           0        1.791154   -1.108012    3.753085
     12          1           0       -0.009572    0.005525    0.000877
     13          1           0        4.548676   -2.577985    2.156249
 ---------------------------------------------------------------------
                    Distance matrix (angstroms):
                    1          2          3          4          5
     1  C    0.000000
     2  C    1.392163   0.000000
     3  C    2.411461   1.397959   0.000000
     4  C    2.788600   2.419504   1.390821   0.000000
     5  C    2.395752   2.772752   2.397148   1.390420   0.000000
     6  C    1.392093   2.420220   2.794420   2.428563   1.392634
     7  Cl   3.993247   4.506215   3.988719   2.697208   1.733473
     8  O    3.674324   2.420262   1.360312   2.345449   3.618476
     9  H    1.085087   2.148328   3.395018   3.873687   3.380291
    10  H    2.155845   1.088003   2.160121   3.404739   3.860755
    11  H    3.874001   3.401222   2.148046   1.085413   2.161280
    12  H    2.160264   3.407045   3.879633   3.409252   2.155734
    13  H    3.831653   2.451109   1.913397   3.158843   4.307819
                    6          7          8          9         10
     6  C    0.000000
     7  Cl   2.705541   0.000000
     8  O    4.153735   5.038978   0.000000
     9  H    2.145387   4.850632   4.562027   0.000000
    10  H    3.405304   5.594216   2.686545   2.478811   0.000000
    11  H    3.414509   2.852640   2.561993   4.959086   4.298131
    12  H    1.085246   2.853033   5.238721   2.483437   4.305936
    13  H    4.593348   5.846298   0.966958   4.550702   2.298442
                   11         12         13
    11  H    0.000000
    12  H    4.308324   0.000000
    13  H    3.509221   5.665491   0.000000
 Stoichiometry    C6H5ClO
 Framework group  C1[X(C6H5ClO)]
 Deg. of freedom    33
 Full point group                 C1      NOp   1
 Largest Abelian subgroup         C1      NOp   1
 Largest concise Abelian subgroup C1      NOp   1
                         Standard orientation:                         
 ---------------------------------------------------------------------
 Center     Atomic      Atomic             Coordinates (Angstroms)
 Number     Number       Type             X           Y           Z
 ---------------------------------------------------------------------
      1          6           0        0.768257    1.818354   -0.000002
      2          6           0        1.800235    0.883935   -0.000047
      3          6           0        1.496292   -0.480582    0.000035
      4          6           0        0.172057   -0.905767    0.000057
      5          6           0       -0.842540    0.044950    0.000062
      6          6           0       -0.562320    1.409101    0.000023
      7         17           0       -2.492422   -0.486857   -0.000042
      8          8           0        2.454382   -1.446250   -0.000043
      9          1           0        1.001203    2.878142   -0.000131
     10          1           0        2.837325    1.212862   -0.000048
     11          1           0       -0.054053   -1.967368    0.000190
     12          1           0       -1.368599    2.135512    0.000226
     13          1           0        3.328356   -1.032516    0.000056
 ---------------------------------------------------------------------
 Rotational constants (GHZ):      3.4482900      1.2011125      0.8908208
 Standard basis: 6-31+G(d) (6D, 7F)
 There are   166 symmetry adapted cartesian basis functions of A   symmetry.
 There are   166 symmetry adapted basis functions of A   symmetry.
   166 basis functions,   300 primitive gaussians,   166 cartesian basis functions
    33 alpha electrons       33 beta electrons
       nuclear repulsion energy       397.0268457947 Hartrees.
 NAtoms=   13 NActive=   13 NUniq=   13 SFac= 1.00D+00 NAtFMM=   60 NAOKFM=F Big=F
 Integral buffers will be    131072 words long.
 Raffenetti 2 integral format.
 Two-electron integral symmetry is turned on.
 One-electron integrals computed using PRISM.
 NBasis=   166 RedAO= T EigKep=  5.02D-06  NBF=   166
 NBsUse=   166 1.00D-06 EigRej= -1.00D+00 NBFU=   166
 Initial guess from the checkpoint file:  "/srv/scratch/z5358697/gauss/Gau-3997418.chk"
 B after Tr=     0.000000    0.000000    0.000000
         Rot=    1.000000    0.000000    0.000000    0.000628 Ang=  -0.07 deg.
 ExpMin= 4.38D-02 ExpMax= 2.52D+04 ExpMxC= 3.78D+03 IAcc=2 IRadAn=         4 AccDes= 0.00D+00
 Harris functional with IExCor= 1009 and IRadAn=       4 diagonalized for initial guess.
 HarFok:  IExCor= 1009 AccDes= 0.00D+00 IRadAn=         4 IDoV= 1 UseB2=F ITyADJ=14
 ICtDFT=  3500011 ScaDFX=  1.000000  1.000000  1.000000  1.000000
 FoFCou: FMM=F IPFlag=           0 FMFlag=      100000 FMFlg1=           0
         NFxFlg=           0 DoJE=T BraDBF=F KetDBF=T FulRan=T
         wScrn=  0.000000 ICntrl=     500 IOpCl=  0 I1Cent=   200000004 NGrid=           0
         NMat0=    1 NMatS0=      1 NMatT0=    0 NMatD0=    1 NMtDS0=    0 NMtDT0=    0
 Petite list used in FoFCou.
 Requested convergence on RMS density matrix=1.00D-08 within 128 cycles.
 Requested convergence on MAX density matrix=1.00D-06.
 Requested convergence on             energy=1.00D-06.
 No special actions if energy rises.
 SCF Done:  E(RM062X) =  -766.911342184     A.U. after   12 cycles
            NFock= 12  Conv=0.56D-08     -V/T= 2.0050
 Calling FoFJK, ICntrl=      2127 FMM=F ISym2X=0 I1Cent= 0 IOpClX= 0 NMat=1 NMatS=1 NMatT=0.
 ***** Axes restored to original set *****
 -------------------------------------------------------------------
 Center     Atomic                   Forces (Hartrees/Bohr)
 Number     Number              X              Y              Z
 -------------------------------------------------------------------
      1        6           0.000151350   -0.000178911    0.002575228
      2        6           0.001066029   -0.000590066    0.000348593
      3        6           0.000256928   -0.000025029   -0.004037752
      4        6          -0.003720589    0.001961519    0.003155518
      5        6           0.005547977   -0.002987472   -0.002517744
      6        6          -0.001841580    0.001104799   -0.002234053
      7       17          -0.003314534    0.001766434    0.002093755
      8        8           0.000123723   -0.000056737   -0.000133705
      9        1           0.000298308   -0.000144175   -0.000385714
     10        1          -0.000059774    0.000017283    0.000364315
     11        1           0.000243854   -0.000124961   -0.000517535
     12        1           0.000066592   -0.000077495    0.000904623
     13        1           0.001181717   -0.000665190    0.000384470
 -------------------------------------------------------------------
 Cartesian Forces:  Max     0.005547977 RMS     0.001826008

 GradGradGradGradGradGradGradGradGradGradGradGradGradGradGradGradGradGrad
 Berny optimization.
 Using GEDIIS/GDIIS optimizer.
 FormGI is forming the generalized inverse of G from B-inverse, IUseBI=4.
 Internal  Forces:  Max     0.004303020 RMS     0.000923481
 Search for a local minimum.
 Step number   2 out of a maximum of   68
 All quantities printed in internal units (Hartrees-Bohrs-Radians)
 Mixed Optimization -- En-DIIS/RFO-DIIS
 Update second derivatives using D2CorX and points    1    2
 DE= -1.31D-03 DEPred=-1.21D-03 R= 1.09D+00
 TightC=F SS=  1.41D+00  RLast= 9.77D-02 DXNew= 5.0454D-01 2.9303D-01
 Trust test= 1.09D+00 RLast= 9.77D-02 DXMaxT set to 3.00D-01
 ITU=  1  0
 Use linear search instead of GDIIS.
     Eigenvalues ---    0.02156   0.02156   0.02156   0.02156   0.02156
     Eigenvalues ---    0.02157   0.02157   0.02158   0.02165   0.02207
     Eigenvalues ---    0.14969   0.16000   0.16000   0.16000   0.16405
     Eigenvalues ---    0.20033   0.22668   0.23504   0.25000   0.25803
     Eigenvalues ---    0.32781   0.35084   0.35139   0.35226   0.35326
     Eigenvalues ---    0.42328   0.42425   0.46227   0.46474   0.46490
     Eigenvalues ---    0.48923   0.52851   0.54291
 RFO step:  Lambda=-1.72477944D-04 EMin= 2.15601339D-02
 Quartic linear search produced a step of  0.10230.
 Iteration  1 RMS(Cart)=  0.00477968 RMS(Int)=  0.00003141
 Iteration  2 RMS(Cart)=  0.00003210 RMS(Int)=  0.00000301
 Iteration  3 RMS(Cart)=  0.00000000 RMS(Int)=  0.00000301
 Variable       Old X    -DE/DX   Delta X   Delta X   Delta X     New X
                                 (Linear)    (Quad)   (Total)
    R1        2.63081   0.00001  -0.00053   0.00006  -0.00048   2.63033
    R2        2.63067   0.00045  -0.00051   0.00112   0.00061   2.63128
    R3        2.05052   0.00039  -0.00020   0.00127   0.00107   2.05159
    R4        2.64176  -0.00173   0.00059  -0.00431  -0.00373   2.63803
    R5        2.05603  -0.00023   0.00027  -0.00082  -0.00054   2.05548
    R6        2.62827   0.00301  -0.00079   0.00749   0.00670   2.63497
    R7        2.57062   0.00137  -0.00014   0.00290   0.00276   2.57338
    R8        2.62751  -0.00112  -0.00087  -0.00226  -0.00312   2.62439
    R9        2.05113  -0.00052  -0.00040  -0.00150  -0.00189   2.04924
   R10        2.63170   0.00015  -0.00044   0.00051   0.00008   2.63178
   R11        3.27579   0.00430   0.00246   0.01338   0.01584   3.29163
   R12        2.05082  -0.00054  -0.00036  -0.00158  -0.00194   2.04888
   R13        1.82728   0.00089  -0.00068   0.00204   0.00136   1.82865
    A1        2.10737   0.00119   0.00132   0.00518   0.00650   2.11387
    A2        2.09026  -0.00089  -0.00038  -0.00471  -0.00509   2.08517
    A3        2.08555  -0.00030  -0.00094  -0.00047  -0.00141   2.08414
    A4        2.08745  -0.00063  -0.00070  -0.00310  -0.00381   2.08364
    A5        2.09864   0.00058   0.00102   0.00312   0.00414   2.10278
    A6        2.09709   0.00005  -0.00031  -0.00002  -0.00033   2.09677
    A7        2.10065   0.00051   0.00064   0.00235   0.00298   2.10363
    A8        2.14096  -0.00015   0.00477  -0.00234   0.00243   2.14340
    A9        2.04157  -0.00036  -0.00541  -0.00001  -0.00542   2.03615
   A10        2.07800  -0.00096  -0.00168  -0.00355  -0.00522   2.07278
   A11        2.09133   0.00016   0.00050  -0.00027   0.00023   2.09156
   A12        2.11385   0.00079   0.00118   0.00382   0.00500   2.11885
   A13        2.12110   0.00105   0.00274   0.00422   0.00696   2.12807
   A14        2.07687  -0.00056  -0.00188  -0.00211  -0.00399   2.07288
   A15        2.08521  -0.00049  -0.00086  -0.00211  -0.00297   2.08224
   A16        2.07179  -0.00117  -0.00232  -0.00510  -0.00741   2.06438
   A17        2.10986   0.00138   0.00303   0.00738   0.01041   2.12027
   A18        2.10153  -0.00021  -0.00071  -0.00228  -0.00300   2.09853
   A19        1.91012   0.00200  -0.00150   0.01427   0.01277   1.92289
    D1       -0.00009   0.00000   0.00000   0.00008   0.00008  -0.00001
    D2       -3.14157   0.00000  -0.00004   0.00002  -0.00002  -3.14159
    D3       -3.14152   0.00000  -0.00001  -0.00007  -0.00008   3.14158
    D4        0.00018   0.00000  -0.00005  -0.00013  -0.00018   0.00000
    D5        0.00005   0.00000   0.00000  -0.00005  -0.00005   0.00000
    D6        3.14141   0.00000   0.00008   0.00010   0.00018   3.14159
    D7        3.14149   0.00000   0.00001   0.00010   0.00011  -3.14159
    D8       -0.00033   0.00001   0.00009   0.00024   0.00034   0.00000
    D9        0.00009   0.00000   0.00000  -0.00008  -0.00008   0.00001
   D10        3.14156   0.00000  -0.00003   0.00009   0.00006  -3.14157
   D11        3.14158   0.00000   0.00004  -0.00002   0.00002  -3.14159
   D12       -0.00014   0.00000   0.00001   0.00015   0.00016   0.00002
   D13       -0.00005   0.00000  -0.00001   0.00006   0.00005   0.00000
   D14       -3.14152   0.00000  -0.00007  -0.00001  -0.00008   3.14159
   D15       -3.14153   0.00000   0.00002  -0.00010  -0.00008   3.14158
   D16        0.00019   0.00000  -0.00004  -0.00017  -0.00021  -0.00002
   D17        0.00024   0.00000   0.00001  -0.00012  -0.00011   0.00013
   D18       -3.14147   0.00000  -0.00002   0.00005   0.00003  -3.14145
   D19        0.00002   0.00000   0.00001  -0.00003  -0.00003  -0.00001
   D20        3.14151   0.00000   0.00000   0.00010   0.00010  -3.14158
   D21        3.14148   0.00000   0.00007   0.00004   0.00011   3.14159
   D22       -0.00022   0.00000   0.00006   0.00017   0.00024   0.00002
   D23       -0.00002   0.00000   0.00000   0.00003   0.00002   0.00001
   D24       -3.14138   0.00000  -0.00009  -0.00012  -0.00020  -3.14158
   D25       -3.14150   0.00000   0.00000  -0.00011  -0.00010   3.14158
   D26        0.00032  -0.00001  -0.00008  -0.00025  -0.00033  -0.00001
         Item               Value     Threshold  Converged?
 Maximum Force            0.004303     0.000450     NO 
 RMS     Force            0.000923     0.000300     NO 
 Maximum Displacement     0.020984     0.001800     NO 
 RMS     Displacement     0.004779     0.001200     NO 
 Predicted change in Energy=-9.837045D-05
 GradGradGradGradGradGradGradGradGradGradGradGradGradGradGradGradGradGrad

                          Input orientation:                          
 ---------------------------------------------------------------------
 Center     Atomic      Atomic             Coordinates (Angstroms)
 Number     Number       Type             X           Y           Z
 ---------------------------------------------------------------------
      1          6           0        1.879854   -1.033098   -0.118326
      2          6           0        2.922093   -1.630535    0.584683
      3          6           0        2.882604   -1.653431    1.979923
      4          6           0        1.811317   -1.084514    2.667625
      5          6           0        0.786293   -0.495752    1.938678
      6          6           0        0.799730   -0.458575    0.546563
      7         17           0       -0.552033    0.215007    2.797607
      8          8           0        3.863537   -2.218738    2.736641
      9          1           0        1.909114   -1.014480   -1.203426
     10          1           0        3.760900   -2.076264    0.054727
     11          1           0        1.792100   -1.108633    3.751597
     12          1           0       -0.015247    0.008332    0.004954
     13          1           0        4.556338   -2.582520    2.167353
 ---------------------------------------------------------------------
                    Distance matrix (angstroms):
                    1          2          3          4          5
     1  C    0.000000
     2  C    1.391911   0.000000
     3  C    2.406859   1.395987   0.000000
     4  C    2.787268   2.422934   1.394366   0.000000
     5  C    2.390791   2.771764   2.395087   1.388768   0.000000
     6  C    1.392416   2.424741   2.796527   2.431873   1.392676
     7  Cl   3.996813   4.513603   3.994547   2.700199   1.741854
     8  O    3.673088   2.421409   1.361772   2.345811   3.615916
     9  H    1.085654   2.145457   3.389639   3.872919   3.376777
    10  H    2.157887   1.087715   2.157909   3.407591   3.859478
    11  H    3.871654   3.402736   2.150542   1.084410   2.161930
    12  H    2.165914   3.413201   3.880657   3.408880   2.153104
    13  H    3.845595   2.466146   1.923466   3.166928   4.315105
                    6          7          8          9         10
     6  C    0.000000
     7  Cl   2.710752   0.000000
     8  O    4.157105   5.042230   0.000000
     9  H    2.145280   4.855631   4.560059   0.000000
    10  H    3.409889   5.601313   2.687656   2.477790   0.000000
    11  H    3.417544   2.856060   2.559945   4.957298   4.298759
    12  H    1.084219   2.851274   5.240889   2.491886   4.313619
    13  H    4.609794   5.858228   0.967678   4.563846   2.313483
                   11         12         13
    11  H    0.000000
    12  H    4.307138   0.000000
    13  H    3.510439   5.682242   0.000000
 Stoichiometry    C6H5ClO
 Framework group  C1[X(C6H5ClO)]
 Deg. of freedom    33
 Full point group                 C1      NOp   1
 Largest Abelian subgroup         C1      NOp   1
 Largest concise Abelian subgroup C1      NOp   1
                         Standard orientation:                         
 ---------------------------------------------------------------------
 Center     Atomic      Atomic             Coordinates (Angstroms)
 Number     Number       Type             X           Y           Z
 ---------------------------------------------------------------------
      1          6           0        0.769856    1.816352    0.000003
      2          6           0        1.803814    0.884501   -0.000010
      3          6           0        1.498269   -0.477637   -0.000014
      4          6           0        0.171296   -0.905888   -0.000015
      5          6           0       -0.838545    0.047474   -0.000012
      6          6           0       -0.562727    1.412564    0.000003
      7         17           0       -2.496266   -0.487332    0.000007
      8          8           0        2.453584   -1.448099    0.000003
      9          1           0        1.005855    2.876045    0.000016
     10          1           0        2.841227    1.211455   -0.000009
     11          1           0       -0.053261   -1.966793   -0.000025
     12          1           0       -1.372749    2.133255    0.000013
     13          1           0        3.335001   -1.048719    0.000133
 ---------------------------------------------------------------------
 Rotational constants (GHZ):      3.4454106      1.1986304      0.8892630
 Standard basis: 6-31+G(d) (6D, 7F)
 There are   166 symmetry adapted cartesian basis functions of A   symmetry.
 There are   166 symmetry adapted basis functions of A   symmetry.
   166 basis functions,   300 primitive gaussians,   166 cartesian basis functions
    33 alpha electrons       33 beta electrons
       nuclear repulsion energy       396.6944531919 Hartrees.
 NAtoms=   13 NActive=   13 NUniq=   13 SFac= 1.00D+00 NAtFMM=   60 NAOKFM=F Big=F
 Integral buffers will be    131072 words long.
 Raffenetti 2 integral format.
 Two-electron integral symmetry is turned on.
 One-electron integrals computed using PRISM.
 NBasis=   166 RedAO= T EigKep=  5.11D-06  NBF=   166
 NBsUse=   166 1.00D-06 EigRej= -1.00D+00 NBFU=   166
 Initial guess from the checkpoint file:  "/srv/scratch/z5358697/gauss/Gau-3997418.chk"
 B after Tr=     0.000000    0.000000    0.000000
         Rot=    1.000000    0.000000    0.000000    0.000247 Ang=   0.03 deg.
 ExpMin= 4.38D-02 ExpMax= 2.52D+04 ExpMxC= 3.78D+03 IAcc=2 IRadAn=         4 AccDes= 0.00D+00
 Harris functional with IExCor= 1009 and IRadAn=       4 diagonalized for initial guess.
 HarFok:  IExCor= 1009 AccDes= 0.00D+00 IRadAn=         4 IDoV= 1 UseB2=F ITyADJ=14
 ICtDFT=  3500011 ScaDFX=  1.000000  1.000000  1.000000  1.000000
 FoFCou: FMM=F IPFlag=           0 FMFlag=      100000 FMFlg1=           0
         NFxFlg=           0 DoJE=T BraDBF=F KetDBF=T FulRan=T
         wScrn=  0.000000 ICntrl=     500 IOpCl=  0 I1Cent=   200000004 NGrid=           0
         NMat0=    1 NMatS0=      1 NMatT0=    0 NMatD0=    1 NMtDS0=    0 NMtDT0=    0
 Petite list used in FoFCou.
 Requested convergence on RMS density matrix=1.00D-08 within 128 cycles.
 Requested convergence on MAX density matrix=1.00D-06.
 Requested convergence on             energy=1.00D-06.
 No special actions if energy rises.
 SCF Done:  E(RM062X) =  -766.911449500     A.U. after   12 cycles
            NFock= 12  Conv=0.19D-08     -V/T= 2.0050
 Calling FoFJK, ICntrl=      2127 FMM=F ISym2X=0 I1Cent= 0 IOpClX= 0 NMat=1 NMatS=1 NMatT=0.
 ***** Axes restored to original set *****
 -------------------------------------------------------------------
 Center     Atomic                   Forces (Hartrees/Bohr)
 Number     Number              X              Y              Z
 -------------------------------------------------------------------
      1        6          -0.000705208    0.000394696   -0.000182428
      2        6           0.000587313   -0.000350164    0.000833682
      3        6           0.000400357   -0.000205954   -0.000388879
      4        6          -0.001023803    0.000552591    0.000318652
      5        6           0.001553398   -0.000852055   -0.000116974
      6        6           0.000075826   -0.000026072   -0.000505259
      7       17          -0.000738354    0.000394062    0.000394810
      8        8          -0.000117124    0.000066282   -0.000051659
      9        1           0.000103282   -0.000052076   -0.000161485
     10        1          -0.000182587    0.000099209    0.000047120
     11        1           0.000113289   -0.000062012    0.000008027
     12        1           0.000060556   -0.000031401   -0.000060463
     13        1          -0.000126945    0.000072893   -0.000135146
 -------------------------------------------------------------------
 Cartesian Forces:  Max     0.001553398 RMS     0.000455708

 GradGradGradGradGradGradGradGradGradGradGradGradGradGradGradGradGradGrad
 Berny optimization.
 Using GEDIIS/GDIIS optimizer.
 FormGI is forming the generalized inverse of G from B-inverse, IUseBI=4.
 Internal  Forces:  Max     0.000925542 RMS     0.000232179
 Search for a local minimum.
 Step number   3 out of a maximum of   68
 All quantities printed in internal units (Hartrees-Bohrs-Radians)
 Mixed Optimization -- En-DIIS/RFO-DIIS
 Swapping is turned off.
 Update second derivatives using D2CorX and points    1    2    3
 DE= -1.07D-04 DEPred=-9.84D-05 R= 1.09D+00
 TightC=F SS=  1.41D+00  RLast= 3.08D-02 DXNew= 5.0454D-01 9.2259D-02
 Trust test= 1.09D+00 RLast= 3.08D-02 DXMaxT set to 3.00D-01
 ITU=  1  1  0
     Eigenvalues ---    0.02156   0.02156   0.02156   0.02156   0.02156
     Eigenvalues ---    0.02157   0.02157   0.02158   0.02165   0.02207
     Eigenvalues ---    0.14592   0.16000   0.16000   0.16098   0.17239
     Eigenvalues ---    0.18602   0.22807   0.23563   0.25001   0.26141
     Eigenvalues ---    0.31116   0.35105   0.35142   0.35239   0.35323
     Eigenvalues ---    0.42373   0.42433   0.45810   0.46476   0.47049
     Eigenvalues ---    0.48273   0.53152   0.54593
 En-DIIS/RFO-DIIS IScMMF=        0 using points:     3    2
 RFO step:  Lambda=-5.90521243D-06.
 DidBck=F Rises=F RFO-DIIS coefs:    1.09268   -0.09268
 Iteration  1 RMS(Cart)=  0.00115446 RMS(Int)=  0.00000118
 Iteration  2 RMS(Cart)=  0.00000124 RMS(Int)=  0.00000029
 Iteration  3 RMS(Cart)=  0.00000000 RMS(Int)=  0.00000029
 Variable       Old X    -DE/DX   Delta X   Delta X   Delta X     New X
                                 (Linear)    (Quad)   (Total)
    R1        2.63033   0.00051  -0.00004   0.00116   0.00112   2.63145
    R2        2.63128  -0.00040   0.00006  -0.00101  -0.00095   2.63033
    R3        2.05159   0.00016   0.00010   0.00044   0.00053   2.05212
    R4        2.63803  -0.00041  -0.00035  -0.00077  -0.00111   2.63692
    R5        2.05548  -0.00021  -0.00005  -0.00059  -0.00064   2.05484
    R6        2.63497   0.00039   0.00062   0.00058   0.00120   2.63617
    R7        2.57338  -0.00035   0.00026  -0.00085  -0.00059   2.57279
    R8        2.62439  -0.00052  -0.00029  -0.00119  -0.00148   2.62291
    R9        2.04924   0.00001  -0.00018   0.00007  -0.00011   2.04913
   R10        2.63178   0.00043   0.00001   0.00096   0.00097   2.63274
   R11        3.29163   0.00093   0.00147   0.00263   0.00410   3.29573
   R12        2.04888  -0.00003  -0.00018  -0.00005  -0.00023   2.04865
   R13        1.82865  -0.00001   0.00013  -0.00013  -0.00001   1.82864
    A1        2.11387  -0.00020   0.00060  -0.00104  -0.00044   2.11343
    A2        2.08517   0.00002  -0.00047   0.00007  -0.00041   2.08476
    A3        2.08414   0.00018  -0.00013   0.00098   0.00084   2.08499
    A4        2.08364   0.00014  -0.00035   0.00083   0.00048   2.08412
    A5        2.10278  -0.00017   0.00038  -0.00108  -0.00070   2.10208
    A6        2.09677   0.00002  -0.00003   0.00025   0.00022   2.09698
    A7        2.10363   0.00009   0.00028   0.00036   0.00063   2.10427
    A8        2.14340  -0.00034   0.00023  -0.00112  -0.00089   2.14251
    A9        2.03615   0.00025  -0.00050   0.00076   0.00026   2.03641
   A10        2.07278  -0.00031  -0.00048  -0.00147  -0.00196   2.07082
   A11        2.09156  -0.00001   0.00002  -0.00032  -0.00030   2.09126
   A12        2.11885   0.00032   0.00046   0.00180   0.00226   2.12111
   A13        2.12807   0.00036   0.00065   0.00160   0.00225   2.13031
   A14        2.07288  -0.00014  -0.00037  -0.00064  -0.00101   2.07187
   A15        2.08224  -0.00022  -0.00028  -0.00096  -0.00124   2.08100
   A16        2.06438  -0.00008  -0.00069  -0.00028  -0.00096   2.06342
   A17        2.12027  -0.00001   0.00096  -0.00030   0.00067   2.12094
   A18        2.09853   0.00009  -0.00028   0.00057   0.00029   2.09883
   A19        1.92289  -0.00040   0.00118  -0.00338  -0.00220   1.92069
    D1       -0.00001   0.00000   0.00001   0.00000   0.00001   0.00000
    D2       -3.14159   0.00000   0.00000  -0.00002  -0.00002   3.14158
    D3        3.14158   0.00000  -0.00001   0.00001   0.00001   3.14159
    D4        0.00000   0.00000  -0.00002   0.00000  -0.00002  -0.00002
    D5        0.00000   0.00000   0.00000   0.00000   0.00000   0.00000
    D6        3.14159   0.00000   0.00002   0.00000   0.00002  -3.14157
    D7       -3.14159   0.00000   0.00001  -0.00001   0.00000  -3.14159
    D8        0.00000   0.00000   0.00003  -0.00001   0.00002   0.00002
    D9        0.00001   0.00000  -0.00001   0.00000  -0.00001   0.00000
   D10       -3.14157   0.00000   0.00001  -0.00005  -0.00005   3.14157
   D11       -3.14159   0.00000   0.00000   0.00002   0.00002  -3.14157
   D12        0.00002   0.00000   0.00001  -0.00004  -0.00002   0.00000
   D13        0.00000   0.00000   0.00000  -0.00001   0.00000   0.00000
   D14        3.14159   0.00000  -0.00001   0.00000  -0.00001   3.14157
   D15        3.14158   0.00000  -0.00001   0.00004   0.00004  -3.14157
   D16       -0.00002   0.00000  -0.00002   0.00005   0.00003   0.00000
   D17        0.00013   0.00000  -0.00001  -0.00003  -0.00004   0.00009
   D18       -3.14145   0.00000   0.00000  -0.00008  -0.00008  -3.14152
   D19       -0.00001   0.00000   0.00000   0.00001   0.00001   0.00000
   D20       -3.14158   0.00000   0.00001  -0.00002  -0.00001   3.14159
   D21        3.14159   0.00000   0.00001   0.00001   0.00002  -3.14158
   D22        0.00002   0.00000   0.00002  -0.00003   0.00000   0.00001
   D23        0.00001   0.00000   0.00000  -0.00001  -0.00001   0.00000
   D24       -3.14158   0.00000  -0.00002  -0.00001  -0.00003   3.14157
   D25        3.14158   0.00000  -0.00001   0.00003   0.00002  -3.14159
   D26       -0.00001   0.00000  -0.00003   0.00002  -0.00001  -0.00002
         Item               Value     Threshold  Converged?
 Maximum Force            0.000926     0.000450     NO 
 RMS     Force            0.000232     0.000300     YES
 Maximum Displacement     0.005368     0.001800     NO 
 RMS     Displacement     0.001154     0.001200     YES
 Predicted change in Energy=-5.840846D-06
 GradGradGradGradGradGradGradGradGradGradGradGradGradGradGradGradGradGrad

                          Input orientation:                          
 ---------------------------------------------------------------------
 Center     Atomic      Atomic             Coordinates (Angstroms)
 Number     Number       Type             X           Y           Z
 ---------------------------------------------------------------------
      1          6           0        1.879881   -1.033100   -0.118465
      2          6           0        2.922145   -1.630565    0.585655
      3          6           0        2.882434   -1.653316    1.980302
      4          6           0        1.810912   -1.084305    2.668848
      5          6           0        0.787458   -0.496377    1.938518
      6          6           0        0.800010   -0.458707    0.545895
      7         17           0       -0.552926    0.215472    2.797741
      8          8           0        3.863596   -2.218758    2.736059
      9          1           0        1.910172   -1.015052   -1.203829
     10          1           0        3.760674   -2.076159    0.055847
     11          1           0        1.792395   -1.108816    3.752766
     12          1           0       -0.015102    0.008221    0.004749
     13          1           0        4.554951   -2.581738    2.164512
 ---------------------------------------------------------------------
                    Distance matrix (angstroms):
                    1          2          3          4          5
     1  C    0.000000
     2  C    1.392503   0.000000
     3  C    2.407199   1.395398   0.000000
     4  C    2.788636   2.423413   1.395001   0.000000
     5  C    2.390113   2.770110   2.393570   1.387984   0.000000
     6  C    1.391913   2.424518   2.796623   2.433151   1.393188
     7  Cl   3.997717   4.514122   3.995281   2.700696   1.744025
     8  O    3.672767   2.420029   1.361460   2.346277   3.614595
     9  H    1.085937   2.145973   3.389892   3.874568   3.376959
    10  H    2.157717   1.087374   2.157228   3.407803   3.857483
    11  H    3.872960   3.402814   2.150882   1.084353   2.162517
    12  H    2.165754   3.413282   3.880622   3.409598   2.153644
    13  H    3.842690   2.462432   1.921774   3.166451   4.312054
                    6          7          8          9         10
     6  C    0.000000
     7  Cl   2.712151   0.000000
     8  O    4.156940   5.043307   0.000000
     9  H    2.145580   4.857325   4.559331   0.000000
    10  H    3.409080   5.601491   2.685976   2.477315   0.000000
    11  H    3.419282   2.857681   2.560378   4.958881   4.298498
    12  H    1.084098   2.851844   5.240590   2.492876   4.313205
    13  H    4.607250   5.857966   0.967674   4.560163   2.309319
                   11         12         13
    11  H    0.000000
    12  H    4.308416   0.000000
    13  H    3.510522   5.679599   0.000000
 Stoichiometry    C6H5ClO
 Framework group  C1[X(C6H5ClO)]
 Deg. of freedom    33
 Full point group                 C1      NOp   1
 Largest Abelian subgroup         C1      NOp   1
 Largest concise Abelian subgroup C1      NOp   1
                         Standard orientation:                         
 ---------------------------------------------------------------------
 Center     Atomic      Atomic             Coordinates (Angstroms)
 Number     Number       Type             X           Y           Z
 ---------------------------------------------------------------------
      1          6           0        0.770335    1.816434   -0.000001
      2          6           0        1.803973    0.883343    0.000002
      3          6           0        1.498098   -0.478117    0.000007
      4          6           0        0.170648   -0.906959    0.000006
      5          6           0       -0.837039    0.047540    0.000003
      6          6           0       -0.561918    1.413293    0.000000
      7         17           0       -2.497173   -0.486852   -0.000001
      8          8           0        2.453733   -1.447826   -0.000013
      9          1           0        1.007690    2.876114   -0.000001
     10          1           0        2.841099    1.210071   -0.000015
     11          1           0       -0.053260   -1.967943   -0.000006
     12          1           0       -1.372059    2.133669   -0.000021
     13          1           0        3.334043   -1.046023    0.000051
 ---------------------------------------------------------------------
 Rotational constants (GHZ):      3.4453778      1.1982607      0.8890573
 Standard basis: 6-31+G(d) (6D, 7F)
 There are   166 symmetry adapted cartesian basis functions of A   symmetry.
 There are   166 symmetry adapted basis functions of A   symmetry.
   166 basis functions,   300 primitive gaussians,   166 cartesian basis functions
    33 alpha electrons       33 beta electrons
       nuclear repulsion energy       396.6489428277 Hartrees.
 NAtoms=   13 NActive=   13 NUniq=   13 SFac= 1.00D+00 NAtFMM=   60 NAOKFM=F Big=F
 Integral buffers will be    131072 words long.
 Raffenetti 2 integral format.
 Two-electron integral symmetry is turned on.
 One-electron integrals computed using PRISM.
 NBasis=   166 RedAO= T EigKep=  5.13D-06  NBF=   166
 NBsUse=   166 1.00D-06 EigRej= -1.00D+00 NBFU=   166
 Initial guess from the checkpoint file:  "/srv/scratch/z5358697/gauss/Gau-3997418.chk"
 B after Tr=     0.000000    0.000000    0.000000
         Rot=    1.000000    0.000000    0.000000    0.000102 Ang=   0.01 deg.
 Requested convergence on RMS density matrix=1.00D-08 within 128 cycles.
 Requested convergence on MAX density matrix=1.00D-06.
 Requested convergence on             energy=1.00D-06.
 No special actions if energy rises.
 SCF Done:  E(RM062X) =  -766.911456333     A.U. after   10 cycles
            NFock= 10  Conv=0.51D-08     -V/T= 2.0050
 Calling FoFJK, ICntrl=      2127 FMM=F ISym2X=0 I1Cent= 0 IOpClX= 0 NMat=1 NMatS=1 NMatT=0.
 ***** Axes restored to original set *****
 -------------------------------------------------------------------
 Center     Atomic                   Forces (Hartrees/Bohr)
 Number     Number              X              Y              Z
 -------------------------------------------------------------------
      1        6          -0.000243516    0.000143947   -0.000270521
      2        6           0.000100630   -0.000067372    0.000367912
      3        6           0.000085882   -0.000049599    0.000010905
      4        6          -0.000314690    0.000176618   -0.000111749
      5        6           0.000226055   -0.000127318    0.000089737
      6        6           0.000108184   -0.000061094    0.000007316
      7       17          -0.000098428    0.000055097   -0.000029713
      8        8           0.000029846   -0.000013538   -0.000041695
      9        1           0.000061795   -0.000035730    0.000035913
     10        1           0.000018531   -0.000008389   -0.000039211
     11        1          -0.000000718    0.000000827    0.000007553
     12        1           0.000006522   -0.000000788   -0.000057793
     13        1           0.000019908   -0.000012661    0.000031344
 -------------------------------------------------------------------
 Cartesian Forces:  Max     0.000367912 RMS     0.000121580

 GradGradGradGradGradGradGradGradGradGradGradGradGradGradGradGradGradGrad
 Berny optimization.
 Using GEDIIS/GDIIS optimizer.
 FormGI is forming the generalized inverse of G from B-inverse, IUseBI=4.
 Internal  Forces:  Max     0.000207233 RMS     0.000060174
 Search for a local minimum.
 Step number   4 out of a maximum of   68
 All quantities printed in internal units (Hartrees-Bohrs-Radians)
 Mixed Optimization -- En-DIIS/RFO-DIIS
 Swapping is turned off.
 Update second derivatives using D2CorX and points    1    2    3    4
 DE= -6.83D-06 DEPred=-5.84D-06 R= 1.17D+00
 TightC=F SS=  1.41D+00  RLast= 7.21D-03 DXNew= 5.0454D-01 2.1619D-02
 Trust test= 1.17D+00 RLast= 7.21D-03 DXMaxT set to 3.00D-01
 ITU=  1  1  1  0
     Eigenvalues ---    0.02156   0.02156   0.02156   0.02156   0.02156
     Eigenvalues ---    0.02157   0.02157   0.02158   0.02165   0.02207
     Eigenvalues ---    0.14215   0.15889   0.16000   0.16023   0.17337
     Eigenvalues ---    0.19394   0.21738   0.23653   0.25094   0.25716
     Eigenvalues ---    0.29505   0.35102   0.35146   0.35240   0.35587
     Eigenvalues ---    0.42116   0.42415   0.44018   0.46383   0.46513
     Eigenvalues ---    0.48379   0.53164   0.55203
 En-DIIS/RFO-DIIS IScMMF=        0 using points:     4    3    2
 RFO step:  Lambda=-3.97957117D-07.
 DidBck=F Rises=F RFO-DIIS coefs:    1.16640   -0.17430    0.00791
 Iteration  1 RMS(Cart)=  0.00031479 RMS(Int)=  0.00000007
 Iteration  2 RMS(Cart)=  0.00000009 RMS(Int)=  0.00000002
 Variable       Old X    -DE/DX   Delta X   Delta X   Delta X     New X
                                 (Linear)    (Quad)   (Total)
    R1        2.63145   0.00021   0.00019   0.00037   0.00056   2.63201
    R2        2.63033  -0.00010  -0.00016  -0.00014  -0.00030   2.63003
    R3        2.05212  -0.00004   0.00008  -0.00018  -0.00010   2.05202
    R4        2.63692  -0.00010  -0.00016  -0.00012  -0.00027   2.63665
    R5        2.05484   0.00003  -0.00010   0.00019   0.00009   2.05493
    R6        2.63617   0.00014   0.00015   0.00025   0.00040   2.63657
    R7        2.57279   0.00003  -0.00012   0.00016   0.00004   2.57282
    R8        2.62291  -0.00016  -0.00022  -0.00027  -0.00049   2.62242
    R9        2.04913   0.00001   0.00000   0.00002   0.00002   2.04915
   R10        2.63274   0.00004   0.00016  -0.00004   0.00012   2.63286
   R11        3.29573   0.00009   0.00056  -0.00001   0.00055   3.29628
   R12        2.04865   0.00002  -0.00002   0.00008   0.00006   2.04871
   R13        1.82864   0.00003  -0.00001   0.00007   0.00005   1.82869
    A1        2.11343  -0.00010  -0.00012  -0.00033  -0.00045   2.11298
    A2        2.08476   0.00001  -0.00003  -0.00006  -0.00008   2.08468
    A3        2.08499   0.00009   0.00015   0.00038   0.00053   2.08552
    A4        2.08412   0.00007   0.00011   0.00032   0.00043   2.08455
    A5        2.10208  -0.00009  -0.00015  -0.00047  -0.00062   2.10146
    A6        2.09698   0.00002   0.00004   0.00015   0.00019   2.09717
    A7        2.10427  -0.00007   0.00008  -0.00035  -0.00026   2.10400
    A8        2.14251  -0.00009  -0.00017  -0.00019  -0.00036   2.14215
    A9        2.03641   0.00016   0.00009   0.00054   0.00062   2.03704
   A10        2.07082   0.00001  -0.00028   0.00018  -0.00011   2.07071
   A11        2.09126  -0.00004  -0.00005  -0.00018  -0.00023   2.09102
   A12        2.12111   0.00002   0.00034   0.00000   0.00034   2.12145
   A13        2.13031   0.00004   0.00032   0.00000   0.00032   2.13063
   A14        2.07187   0.00004  -0.00014   0.00027   0.00013   2.07201
   A15        2.08100  -0.00009  -0.00018  -0.00027  -0.00045   2.08055
   A16        2.06342   0.00004  -0.00010   0.00017   0.00007   2.06349
   A17        2.12094  -0.00004   0.00003  -0.00014  -0.00011   2.12083
   A18        2.09883   0.00000   0.00007  -0.00004   0.00004   2.09887
   A19        1.92069   0.00003  -0.00047   0.00056   0.00009   1.92079
    D1        0.00000   0.00000   0.00000   0.00000   0.00000   0.00000
    D2        3.14158   0.00000   0.00000   0.00002   0.00001   3.14159
    D3        3.14159   0.00000   0.00000   0.00000   0.00000   3.14159
    D4       -0.00002   0.00000   0.00000   0.00002   0.00002   0.00000
    D5        0.00000   0.00000   0.00000   0.00000   0.00000   0.00000
    D6       -3.14157   0.00000   0.00000  -0.00002  -0.00002  -3.14159
    D7       -3.14159   0.00000   0.00000   0.00000   0.00000  -3.14159
    D8        0.00002   0.00000   0.00000  -0.00002  -0.00002   0.00001
    D9        0.00000   0.00000   0.00000   0.00000   0.00000   0.00000
   D10        3.14157   0.00000  -0.00001   0.00003   0.00002  -3.14159
   D11       -3.14157   0.00000   0.00000  -0.00002  -0.00002   3.14159
   D12        0.00000   0.00000   0.00000   0.00001   0.00001   0.00000
   D13        0.00000   0.00000   0.00000   0.00001   0.00001   0.00000
   D14        3.14157   0.00000   0.00000   0.00002   0.00002  -3.14159
   D15       -3.14157   0.00000   0.00001  -0.00003  -0.00002  -3.14159
   D16        0.00000   0.00000   0.00001  -0.00001   0.00000   0.00000
   D17        0.00009   0.00000  -0.00001  -0.00004  -0.00004   0.00005
   D18       -3.14152   0.00000  -0.00001   0.00000  -0.00002  -3.14154
   D19        0.00000   0.00000   0.00000   0.00000   0.00000   0.00000
   D20        3.14159   0.00000   0.00000   0.00001   0.00000  -3.14159
   D21       -3.14158   0.00000   0.00000  -0.00002  -0.00002   3.14159
   D22        0.00001   0.00000   0.00000  -0.00001  -0.00001   0.00000
   D23        0.00000   0.00000   0.00000   0.00000   0.00000   0.00000
   D24        3.14157   0.00000   0.00000   0.00002   0.00002   3.14159
   D25       -3.14159   0.00000   0.00000  -0.00001  -0.00001   3.14159
   D26       -0.00002   0.00000   0.00000   0.00001   0.00001  -0.00001
         Item               Value     Threshold  Converged?
 Maximum Force            0.000207     0.000450     YES
 RMS     Force            0.000060     0.000300     YES
 Maximum Displacement     0.001084     0.001800     YES
 RMS     Displacement     0.000315     0.001200     YES
 Predicted change in Energy=-3.916650D-07
 Optimization completed.
    -- Stationary point found.
                           ----------------------------
                           !   Optimized Parameters   !
                           ! (Angstroms and Degrees)  !
 --------------------------                            --------------------------
 ! Name  Definition              Value          Derivative Info.                !
 --------------------------------------------------------------------------------
 ! R1    R(1,2)                  1.3925         -DE/DX =    0.0002              !
 ! R2    R(1,6)                  1.3919         -DE/DX =   -0.0001              !
 ! R3    R(1,9)                  1.0859         -DE/DX =    0.0                 !
 ! R4    R(2,3)                  1.3954         -DE/DX =   -0.0001              !
 ! R5    R(2,10)                 1.0874         -DE/DX =    0.0                 !
 ! R6    R(3,4)                  1.395          -DE/DX =    0.0001              !
 ! R7    R(3,8)                  1.3615         -DE/DX =    0.0                 !
 ! R8    R(4,5)                  1.388          -DE/DX =   -0.0002              !
 ! R9    R(4,11)                 1.0844         -DE/DX =    0.0                 !
 ! R10   R(5,6)                  1.3932         -DE/DX =    0.0                 !
 ! R11   R(5,7)                  1.744          -DE/DX =    0.0001              !
 ! R12   R(6,12)                 1.0841         -DE/DX =    0.0                 !
 ! R13   R(8,13)                 0.9677         -DE/DX =    0.0                 !
 ! A1    A(2,1,6)              121.0908         -DE/DX =   -0.0001              !
 ! A2    A(2,1,9)              119.4482         -DE/DX =    0.0                 !
 ! A3    A(6,1,9)              119.461          -DE/DX =    0.0001              !
 ! A4    A(1,2,3)              119.4112         -DE/DX =    0.0001              !
 ! A5    A(1,2,10)             120.4406         -DE/DX =   -0.0001              !
 ! A6    A(3,2,10)             120.1482         -DE/DX =    0.0                 !
 ! A7    A(2,3,4)              120.5656         -DE/DX =   -0.0001              !
 ! A8    A(2,3,8)              122.7566         -DE/DX =   -0.0001              !
 ! A9    A(4,3,8)              116.6778         -DE/DX =    0.0002              !
 ! A10   A(3,4,5)              118.6493         -DE/DX =    0.0                 !
 ! A11   A(3,4,11)             119.8201         -DE/DX =    0.0                 !
 ! A12   A(5,4,11)             121.5305         -DE/DX =    0.0                 !
 ! A13   A(4,5,6)              122.0579         -DE/DX =    0.0                 !
 ! A14   A(4,5,7)              118.7095         -DE/DX =    0.0                 !
 ! A15   A(6,5,7)              119.2326         -DE/DX =   -0.0001              !
 ! A16   A(1,6,5)              118.2252         -DE/DX =    0.0                 !
 ! A17   A(1,6,12)             121.5207         -DE/DX =    0.0                 !
 ! A18   A(5,6,12)             120.2541         -DE/DX =    0.0                 !
 ! A19   A(3,8,13)             110.0477         -DE/DX =    0.0                 !
 ! D1    D(6,1,2,3)              0.0            -DE/DX =    0.0                 !
 ! D2    D(6,1,2,10)           179.999          -DE/DX =    0.0                 !
 ! D3    D(9,1,2,3)            179.9998         -DE/DX =    0.0                 !
 ! D4    D(9,1,2,10)            -0.0012         -DE/DX =    0.0                 !
 ! D5    D(2,1,6,5)             -0.0001         -DE/DX =    0.0                 !
 ! D6    D(2,1,6,12)          -179.9988         -DE/DX =    0.0                 !
 ! D7    D(9,1,6,5)           -179.9999         -DE/DX =    0.0                 !
 ! D8    D(9,1,6,12)             0.0013         -DE/DX =    0.0                 !
 ! D9    D(1,2,3,4)              0.0001         -DE/DX =    0.0                 !
 ! D10   D(1,2,3,8)           -180.0012         -DE/DX =    0.0                 !
 ! D11   D(10,2,3,4)           180.0011         -DE/DX =    0.0                 !
 ! D12   D(10,2,3,8)            -0.0002         -DE/DX =    0.0                 !
 ! D13   D(2,3,4,5)             -0.0001         -DE/DX =    0.0                 !
 ! D14   D(2,3,4,11)          -180.001          -DE/DX =    0.0                 !
 ! D15   D(8,3,4,5)           -179.9989         -DE/DX =    0.0                 !
 ! D16   D(8,3,4,11)             0.0002         -DE/DX =    0.0                 !
 ! D17   D(2,3,8,13)             0.0052         -DE/DX =    0.0                 !
 ! D18   D(4,3,8,13)          -179.9961         -DE/DX =    0.0                 !
 ! D19   D(3,4,5,6)              0.0            -DE/DX =    0.0                 !
 ! D20   D(3,4,5,7)           -180.0001         -DE/DX =    0.0                 !
 ! D21   D(11,4,5,6)           180.0009         -DE/DX =    0.0                 !
 ! D22   D(11,4,5,7)             0.0009         -DE/DX =    0.0                 !
 ! D23   D(4,5,6,1)              0.0002         -DE/DX =    0.0                 !
 ! D24   D(4,5,6,12)           179.9989         -DE/DX =    0.0                 !
 ! D25   D(7,5,6,1)            180.0002         -DE/DX =    0.0                 !
 ! D26   D(7,5,6,12)            -0.0011         -DE/DX =    0.0                 !
 --------------------------------------------------------------------------------
 GradGradGradGradGradGradGradGradGradGradGradGradGradGradGradGradGradGrad

                          Input orientation:                          
 ---------------------------------------------------------------------
 Center     Atomic      Atomic             Coordinates (Angstroms)
[...]
    D1        0.00000   0.00000   0.00000   0.00000   0.00000   0.00000
    D2        3.14158   0.00000   0.00000   0.00002   0.00002   3.14159
    D3        3.14159   0.00000   0.00000   0.00000   0.00000  -3.14159
    D4       -0.00002   0.00000   0.00000   0.00002   0.00002   0.00000
    D5        0.00000   0.00000   0.00000   0.00000   0.00000   0.00000
    D6       -3.14157   0.00000   0.00000  -0.00002  -0.00002  -3.14159
    D7       -3.14159   0.00000   0.00000   0.00000   0.00000   3.14159
    D8        0.00002   0.00000   0.00000  -0.00002  -0.00002   0.00000
    D9        0.00000   0.00000   0.00000   0.00000   0.00000   0.00000
   D10        3.14157   0.00000   0.00000   0.00002   0.00002   3.14159
   D11       -3.14157   0.00000   0.00000  -0.00002  -0.00002  -3.14159
   D12        0.00000   0.00000   0.00000   0.00000   0.00000   0.00000
   D13        0.00000   0.00000   0.00000   0.00000   0.00000   0.00000
   D14        3.14157   0.00000   0.00000   0.00002   0.00002   3.14159
   D15       -3.14157   0.00000   0.00000  -0.00002  -0.00002  -3.14159
   D16        0.00000   0.00000   0.00000   0.00000   0.00000   0.00000
   D17        0.00009   0.00000   0.00000  -0.00008  -0.00008   0.00001
   D18       -3.14152   0.00000   0.00000  -0.00006  -0.00006  -3.14159
   D19        0.00000   0.00000   0.00000   0.00000   0.00000   0.00000
   D20        3.14159   0.00000   0.00000   0.00000   0.00000  -3.14159
   D21       -3.14158   0.00000   0.00000  -0.00002  -0.00002   3.14159
   D22        0.00001   0.00000   0.00000  -0.00002  -0.00001   0.00000
   D23        0.00000   0.00000   0.00000   0.00000   0.00000   0.00000
   D24        3.14157   0.00000   0.00000   0.00002   0.00002   3.14159
   D25       -3.14159   0.00000   0.00000   0.00000   0.00000  -3.14159
   D26       -0.00002   0.00000   0.00000   0.00002   0.00002   0.00000
         Item               Value     Threshold  Converged?
 Maximum Force            0.000207     0.000450     YES
 RMS     Force            0.000060     0.000300     YES
 Maximum Displacement     0.001030     0.001800     YES
 RMS     Displacement     0.000331     0.001200     YES
 Predicted change in Energy=-4.419396D-07
 Optimization completed.
    -- Stationary point found.
                           ----------------------------
                           !   Optimized Parameters   !
                           ! (Angstroms and Degrees)  !
 --------------------------                            --------------------------
 ! Name  Definition              Value          Derivative Info.                !
 --------------------------------------------------------------------------------
 ! R1    R(1,2)                  1.3925         -DE/DX =    0.0002              !
 ! R2    R(1,6)                  1.3919         -DE/DX =   -0.0001              !
 ! R3    R(1,9)                  1.0859         -DE/DX =    0.0                 !
 ! R4    R(2,3)                  1.3954         -DE/DX =   -0.0001              !
 ! R5    R(2,10)                 1.0874         -DE/DX =    0.0                 !
 ! R6    R(3,4)                  1.395          -DE/DX =    0.0001              !
 ! R7    R(3,8)                  1.3615         -DE/DX =    0.0                 !
 ! R8    R(4,5)                  1.388          -DE/DX =   -0.0002              !
 ! R9    R(4,11)                 1.0844         -DE/DX =    0.0                 !
 ! R10   R(5,6)                  1.3932         -DE/DX =    0.0                 !
 ! R11   R(5,7)                  1.744          -DE/DX =    0.0001              !
 ! R12   R(6,12)                 1.0841         -DE/DX =    0.0                 !
 ! R13   R(8,13)                 0.9677         -DE/DX =    0.0                 !
 ! A1    A(2,1,6)              121.0908         -DE/DX =   -0.0001              !
 ! A2    A(2,1,9)              119.4482         -DE/DX =    0.0                 !
 ! A3    A(6,1,9)              119.461          -DE/DX =    0.0001              !
 ! A4    A(1,2,3)              119.4112         -DE/DX =    0.0001              !
 ! A5    A(1,2,10)             120.4406         -DE/DX =   -0.0001              !
 ! A6    A(3,2,10)             120.1482         -DE/DX =    0.0                 !
 ! A7    A(2,3,4)              120.5656         -DE/DX =   -0.0001              !
 ! A8    A(2,3,8)              122.7566         -DE/DX =   -0.0001              !
 ! A9    A(4,3,8)              116.6778         -DE/DX =    0.0002              !
 ! A10   A(3,4,5)              118.6493         -DE/DX =    0.0                 !
 ! A11   A(3,4,11)             119.8201         -DE/DX =    0.0                 !
 ! A12   A(5,4,11)             121.5305         -DE/DX =    0.0                 !
 ! A13   A(4,5,6)              122.0579         -DE/DX =    0.0                 !
 ! A14   A(4,5,7)              118.7095         -DE/DX =    0.0                 !
 ! A15   A(6,5,7)              119.2326         -DE/DX =   -0.0001              !
 ! A16   A(1,6,5)              118.2252         -DE/DX =    0.0                 !
 ! A17   A(1,6,12)             121.5207         -DE/DX =    0.0                 !
 ! A18   A(5,6,12)             120.2541         -DE/DX =    0.0                 !
 ! A19   A(3,8,13)             110.0477         -DE/DX =    0.0                 !
 ! D1    D(6,1,2,3)              0.0            -DE/DX =    0.0                 !
 ! D2    D(6,1,2,10)           179.999          -DE/DX =    0.0                 !
 ! D3    D(9,1,2,3)           -180.0002         -DE/DX =    0.0                 !
 ! D4    D(9,1,2,10)            -0.0012         -DE/DX =    0.0                 !
 ! D5    D(2,1,6,5)             -0.0001         -DE/DX =    0.0                 !
 ! D6    D(2,1,6,12)          -179.9988         -DE/DX =    0.0                 !
 ! D7    D(9,1,6,5)            180.0001         -DE/DX =    0.0                 !
 ! D8    D(9,1,6,12)             0.0013         -DE/DX =    0.0                 !
 ! D9    D(1,2,3,4)              0.0001         -DE/DX =    0.0                 !
 ! D10   D(1,2,3,8)            179.9988         -DE/DX =    0.0                 !
 ! D11   D(10,2,3,4)          -179.9989         -DE/DX =    0.0                 !
 ! D12   D(10,2,3,8)            -0.0002         -DE/DX =    0.0                 !
 ! D13   D(2,3,4,5)             -0.0001         -DE/DX =    0.0                 !
 ! D14   D(2,3,4,11)           179.999          -DE/DX =    0.0                 !
 ! D15   D(8,3,4,5)           -179.9989         -DE/DX =    0.0                 !
 ! D16   D(8,3,4,11)             0.0002         -DE/DX =    0.0                 !
 ! D17   D(2,3,8,13)             0.0052         -DE/DX =    0.0                 !
 ! D18   D(4,3,8,13)          -179.9961         -DE/DX =    0.0                 !
 ! D19   D(3,4,5,6)              0.0            -DE/DX =    0.0                 !
 ! D20   D(3,4,5,7)           -180.0001         -DE/DX =    0.0                 !
 ! D21   D(11,4,5,6)           180.0009         -DE/DX =    0.0                 !
 ! D22   D(11,4,5,7)             0.0009         -DE/DX =    0.0                 !
 ! D23   D(4,5,6,1)              0.0002         -DE/DX =    0.0                 !
 ! D24   D(4,5,6,12)           179.9989         -DE/DX =    0.0                 !
 ! D25   D(7,5,6,1)           -179.9998         -DE/DX =    0.0                 !
 ! D26   D(7,5,6,12)            -0.0011         -DE/DX =    0.0                 !
 --------------------------------------------------------------------------------
 GradGradGradGradGradGradGradGradGradGradGradGradGradGradGradGradGradGrad

 1\1\GINC-KATANA3\Freq\RM062X\6-31+G(d)\C6H5Cl1O1\Z5358697\21-Mar-2025\
 0\\#N Geom=AllCheck Guess=TCheck SCRF=Check GenChk RM062X/6-31+G(d) Fr
 eq\\3-chlorophenol\\0,1\C,1.8798809149,-1.033099694,-0.1184650687\C,2.
 9221448501,-1.6305654239,0.5856553251\C,2.8824340356,-1.6533156067,1.9
 803023837\C,1.8109116214,-1.0843050404,2.6688481056\C,0.7874579167,-0.
 496376619,1.9385177819\C,0.800010378,-0.4587072823,0.5458952547\Cl,-0.
 5529257231,0.2154716873,2.7977414954\O,3.8635961749,-2.218757553,2.736
 0594059\H,1.9101717214,-1.0150523629,-1.2038291114\H,3.7606744846,-2.0
 761585695,0.0558469558\H,1.7923952862,-1.108816045,3.7527659615\H,-0.0
 151023272,0.0082205956,0.0047493905\H,4.5549506664,-2.5817380863,2.164
 51212\\Version=ES64L-G09RevD.01\State=1-A\HF=-766.9114563\RMSD=3.225e-
 09\RMSF=1.216e-04\ZeroPoint=0.0961814\Thermal=0.1027649\Dipole=0.80421
 9,-0.4161104,-0.8577738\DipoleDeriv=0.1920087,-0.1600604,-0.1232764,-0
 .1660244,-0.0156934,0.0609791,0.0629229,-0.0417216,0.1136896,-0.180236
 5,-0.0110874,0.0031076,-0.0007221,-0.1996925,-0.0016212,-0.3205218,0.1
 768934,-0.2028005,1.0140506,-0.5040468,0.534457,-0.5034251,0.4188302,-
 0.3063638,0.5146992,-0.2954627,0.492012,-0.461297,0.1755253,-0.1330278
 ,0.1666852,-0.2450155,0.0703734,0.1428444,-0.0817925,-0.0573251,0.7856
 802,-0.4361039,-0.3168088,-0.4321013,0.2100293,0.1562308,-0.4418955,0.
 2252283,0.5551456,-0.2652321,0.0603114,0.1839979,0.0604916,-0.1755343,
 -0.0953337,0.1786702,-0.0924016,-0.3373341,-0.5251312,0.2434909,0.2690
 713,0.2429843,-0.1975834,-0.1416898,0.2848638,-0.1504015,-0.2782886,-1
 .1091882,0.407588,-0.504147,0.4088323,-0.6341266,0.2821944,-0.5422187,
 0.3031783,-0.527687,0.0770829,0.0337951,0.0116265,0.0338041,0.1203647,
 0.0004059,0.0112852,0.0005912,-0.0738656,-0.0346359,0.1039423,0.047252
 4,0.1042106,0.0997852,-0.0227522,0.0390213,-0.0182094,0.0529759,0.1050
 72,0.0284629,0.0060327,0.0285804,0.1412231,0.0010368,0.0023605,0.00305
 86,0.0208461,0.035431,0.0666329,-0.0333336,0.0663822,0.1169936,0.02139
 35,-0.0256464,0.0171569,0.0602816,0.3663957,-0.0084502,0.0550481,-0.00
 96977,0.3604195,-0.0248531,0.0936151,-0.0461174,0.1823502\Polar=94.450
 0363,-26.3989503,60.7291144,-6.1999905,2.0094181,90.2800592\PG=C01 [X(
 C6H5Cl1O1)]\NImag=0\\0.56722628,-0.23745865,0.26774739,-0.00810463,-0.
 01540864,0.75710285,-0.24326200,0.10678581,-0.11964809,0.61020972,0.10
 472376,-0.11663232,0.07023329,-0.27001949,0.26855113,-0.05521802,0.034
 69301,-0.18887912,-0.02243275,-0.00625261,0.70119985,0.03761788,-0.020
 29310,-0.02658750,-0.11909559,0.03148502,-0.01661031,0.59965245,-0.018
 49264,0.00898922,0.01553062,0.02904460,-0.07956930,0.01771451,-0.24381
 792,0.29138301,-0.08282232,0.04654981,-0.02770847,0.05962582,-0.024339
 05,-0.33006297,-0.01758670,-0.00846744,0.72387058,-0.05752329,0.031783
 86,0.00111512,0.02734731,-0.01437107,0.06683609,-0.22181066,0.08546074
 ,0.05264181,0.57399265,0.03189263,-0.01741415,-0.00051327,-0.01296535,
 0.01348254,-0.03614435,0.08311260,-0.10887567,-0.02477333,-0.25055917,
 0.25900428,-0.00229650,0.00136857,-0.00301770,0.02292675,-0.01192391,-
 0.01740388,0.12596722,-0.06522014,-0.19696769,0.00474707,-0.02374748,0
 .77970541,0.02739291,-0.01368023,0.02260766,-0.01450081,0.00792685,-0.
 02659355,-0.05076320,0.02568595,0.02661603,-0.22671709,0.09828351,-0.1
 3189987,0.47195385,-0.01565958,0.01291164,-0.01151569,0.00808363,-0.00
 666616,0.01666277,0.02768264,-0.01736360,-0.01747618,0.09624737,-0.111
 76415,0.07730557,-0.19450941,0.23141591,0.08442875,-0.04561670,-0.0259
 1678,-0.03148293,0.01935943,-0.06393420,-0.03575060,0.01692576,0.08462
 157,-0.06833672,0.04224425,-0.19823988,0.05625295,-0.04774856,0.644722
 55,-0.25120050,0.10199700,0.11811757,-0.04220254,0.02744704,-0.0278035
 5,-0.01611868,0.00722002,0.03683487,0.03080789,-0.01302906,-0.02145615
 ,-0.10193396,0.02431976,-0.04376045,0.60998399,0.10416885,-0.11493300,
 -0.06127363,0.02583270,-0.00873351,0.01329771,0.00722305,-0.00428993,-
 0.01828237,-0.01148164,0.01186507,0.01278875,0.02217553,-0.07367733,0.
 03313151,-0.27032171,0.27149155,0.05027412,-0.02385057,-0.18064797,0.0
 2261109,-0.01451117,0.06963545,0.03674160,-0.01823117,-0.06448107,-0.0
 6978757,0.03944846,-0.02384157,0.02320626,-0.00380717,-0.34124827,0.02
 485804,-0.03212303,0.69644108,0.00318579,0.00086192,0.00148649,-0.0014
 6152,0.00024254,0.00174004,0.00329574,0.00154138,-0.00599853,-0.030537
 17,0.01851326,0.02066097,-0.11696637,0.05034410,0.04917364,-0.01210427
 ,0.00875574,0.01002070,0.15727922,0.00105499,0.00426952,-0.00052816,0.
 00024457,-0.00102270,-0.00102457,0.00138931,0.00486190,0.00354416,0.01
 925529,-0.00603011,-0.01143810,0.05034822,-0.04979434,-0.02564564,0.00
 797683,0.00010476,-0.00480913,-0.07820008,0.05279558,-0.00454299,0.002
 79776,-0.00427877,0.00167907,-0.00099089,0.00110163,-0.00124994,0.0009
 2484,-0.00160864,-0.00251283,0.00134469,0.00551814,0.04904439,-0.02557
 433,-0.06902512,0.03434552,-0.01822689,-0.01807874,-0.07826204,0.04082
 968,0.08404423,0.00051012,0.00386545,0.00234076,-0.00362745,0.00742704
 ,-0.01088816,-0.20712821,0.09389559,-0.11139487,-0.04547492,0.02951390
 ,-0.02141544,0.00638775,-0.00077892,0.00702836,-0.00271443,0.00084976,
 -0.00615474,-0.00220016,0.00118326,0.00036985,0.51465916,0.00360961,0.
 00569260,-0.00093224,0.00851705,0.00426996,0.00733690,0.09240270,-0.09
 645893,0.06584918,0.02844204,-0.00926761,0.01137275,-0.00061612,0.0058
 3334,-0.00341419,0.00083357,-0.00209461,0.00322611,0.00116782,-0.00067
 041,-0.00022931,-0.26531942,0.17405667,0.01034550,-0.00534726,-0.00356
 370,-0.04495214,0.02612797,-0.03235636,-0.06489568,0.04020126,-0.18073
 275,0.01205387,-0.00708897,0.02051648,0.00192793,-0.00060069,-0.009075
 78,-0.00565168,0.00294813,0.00376179,0.00084951,-0.00049387,0.00075638
 ,-0.08331316,0.03343582,0.41887021,-0.05494280,0.00871491,0.00821675,0
 .00501153,0.00006618,-0.02416854,-0.00178234,0.00495885,-0.00168477,-0
 .00123484,0.00009215,-0.00011165,-0.00124993,0.00454600,0.00192203,0.0
 0402379,-0.00075518,0.02515458,-0.00063711,0.00028912,0.00128474,-0.00
 016287,0.00006799,-0.00155506,0.05132077,0.00871847,-0.04364867,0.0053
 9835,-0.00078064,0.00371760,0.01379775,0.00497496,0.00432942,0.0011211
 8,0.00008862,-0.00112341,0.00000824,0.00453905,0.00462673,-0.00085818,
 0.00010034,0.00448893,-0.01341066,0.00032097,-0.00019336,-0.00068932,0
 .00002452,-0.00017167,0.00088459,-0.01325202,0.03428597,0.00810420,0.0
 0546008,-0.34878407,0.00228005,-0.00079123,-0.01083979,-0.00219086,0.0
 0140031,0.00112069,-0.00000171,-0.00005241,0.00059196,0.00213962,-0.00
 097822,0.00079451,-0.00156207,0.00132667,-0.01040760,0.00029022,-0.000
 14073,-0.00064290,-0.00019622,0.00013509,-0.00096915,-0.00884825,-0.00
 603969,0.36781821,-0.01386016,0.00837739,0.01349581,-0.21945885,0.0996
 1803,0.10809422,0.00006823,0.00209511,-0.00268980,0.00233590,0.0015606
 3,-0.00010999,0.00023971,-0.00036433,-0.00080134,-0.00036464,0.0040071
 3,-0.00354589,-0.00023798,-0.00020657,0.00017505,0.00166053,-0.0030784
 8,-0.00011791,-0.00022540,-0.00214979,-0.00016228,0.23026616,0.0092345
 6,-0.00273472,-0.00778530,0.09961694,-0.08573679,-0.05652492,0.0011854
 4,0.00299528,0.00190695,0.00158254,0.00427243,0.00041144,-0.00035096,-
 0.00028883,0.00047259,0.00398403,0.00442577,0.00219954,-0.00020346,-0.
 00048611,-0.00012276,-0.00310023,-0.00221238,-0.00014632,-0.00216433,-
 0.00293601,-0.00006542,-0.11060261,0.08209348,-0.01329359,0.00699227,0
 .01275404,0.10814987,-0.05655574,-0.12950219,0.02572094,-0.01376494,-0
 .00951122,-0.00080041,0.00079223,-0.00579314,-0.00121771,0.00070212,-0
 .00141746,-0.00282453,0.00180168,-0.00091898,0.00007914,-0.00006983,0.
 00021529,0.00056380,-0.00052209,0.00266804,0.00029345,-0.00031672,0.00
 070605,-0.11614729,0.06058026,0.13202102,-0.00134084,0.00019053,-0.000
 07517,-0.00258228,0.00427496,0.00169370,0.00511195,-0.00067107,0.02465
 279,-0.05199441,0.00952250,0.00703725,0.00384070,-0.00029438,-0.023492
 88,-0.00219997,0.00449706,-0.00169203,0.00008171,-0.00162924,-0.000586
 20,0.00073529,-0.00230965,-0.00068217,-0.00002411,-0.00026263,-0.00000
 654,0.00005637,-0.00007315,0.00133188,0.04793557,0.00017768,-0.0010972
 8,-0.00001757,0.00425841,0.00294181,-0.00077466,0.00018017,0.00564642,
 -0.01307643,0.00954604,-0.03979116,0.00634232,-0.00112666,0.00213573,0
 .01337683,0.00451660,0.00332844,0.00108707,-0.00166284,-0.00199494,0.0
 0019327,-0.00230390,-0.00222833,0.00024165,-0.00026271,-0.00035535,-0.
 00001069,-0.00002905,0.00004015,-0.00072051,-0.01297108,0.03142611,0.0
 0032684,-0.00023933,0.00084345,0.00220915,-0.00105882,0.00027992,-0.00
 191651,0.00157933,-0.01097598,0.00630423,0.00674614,-0.35345966,0.0024
 8489,-0.00095235,-0.01111774,-0.00230151,0.00142332,0.00105474,0.00046
 306,-0.00038554,0.00115537,-0.00086356,0.00034175,0.00071028,-0.000003
 93,-0.00001215,-0.00005388,-0.00004538,0.00003920,-0.00044096,-0.00668
 703,-0.00746783,0.37229163,-0.01256831,0.00866297,-0.01335575,-0.00037
 696,0.00387491,0.00341258,-0.00030718,-0.00021367,0.00070037,0.0022180
 3,0.00171298,0.00084884,0.00257665,-0.00064012,0.00300238,-0.21679186,
 0.10542903,-0.11129939,0.00039976,-0.00167388,0.00049961,0.00009587,-0
 .00040149,-0.00011595,-0.00029954,-0.00221660,-0.00002134,-0.00061795,
 0.00058980,-0.00066703,0.00036911,0.00007905,0.00010014,0.22525941,0.0
 0782228,-0.00217815,0.00703793,0.00389463,0.00474993,-0.00162718,-0.00
 022206,-0.00051961,-0.00037042,0.00168512,0.00444739,-0.00012278,0.000
 24396,0.00149526,-0.00123361,0.10535367,-0.09229142,0.06454228,-0.0016
 4389,-0.00168657,-0.00039242,-0.00040253,-0.00041764,0.00003071,-0.002
 20128,-0.00310043,-0.00014797,0.00054509,0.00010022,0.00036471,0.00012
 135,0.00045215,-0.00002535,-0.11518065,0.08892757,0.01291604,-0.007453
 55,0.01264379,0.00280144,-0.00129017,-0.00112547,0.00096245,-0.0005150
 0,-0.00114949,0.00172140,-0.00060412,-0.00541447,-0.02460914,0.0139964
 9,-0.01159824,-0.10896558,0.06325533,-0.13054907,-0.00043741,0.0001244
 6,0.00104311,-0.00008308,0.00001263,0.00039773,-0.00050188,0.00011717,
 0.00066924,0.00072928,-0.00040550,0.00051235,-0.00122085,0.00070332,-0
 .00041501,0.11675963,-0.06798348,0.13505429,-0.00123508,0.00019213,0.0
 0039099,0.00399944,-0.00269577,0.00193826,-0.02874040,0.01329306,0.021
 10529,-0.00140942,0.00234942,-0.00489849,-0.00026022,0.00102324,0.0018
 1683,0.00081518,-0.00038032,-0.00038676,-0.00009766,-0.00003183,-0.000
 24423,-0.26274070,0.13668438,0.17610695,0.00020283,-0.00010524,0.00017
 517,0.00013807,0.00030143,-0.00118852,0.00001090,-0.00040172,-0.000070
 40,0.00004296,-0.00001570,-0.00007229,0.28927410,0.00020805,-0.0009720
 8,-0.00022569,-0.00251286,0.00064782,-0.00115436,0.01469720,-0.0111282
 1,-0.01218605,0.00232024,0.00119455,0.00285478,0.00108031,0.00113581,-
 0.00099349,-0.00039809,0.00031527,0.00023943,-0.00003747,-0.00015321,0
 .00013568,0.13514549,-0.07633097,-0.09019302,-0.00009968,0.00008027,-0
 .00009579,0.00022744,0.00046752,0.00071655,-0.00039521,-0.00050374,0.0
 0001162,-0.00002233,0.00002131,0.00004241,-0.15021307,0.08522567,-0.00
 011741,0.00005455,-0.00054755,-0.00376731,0.00199289,0.00188714,-0.022
 60409,0.01192206,0.01358544,-0.00398036,0.00234816,-0.00219397,0.00004
 053,-0.00001375,0.00143484,0.00016953,-0.00006718,-0.00071979,-0.00006
 578,0.00003726,-0.00019998,0.22400646,-0.11661240,-0.22098316,0.000002
 53,-0.00000056,-0.00000327,0.00112550,-0.00055976,-0.00129284,-0.00027
 274,0.00012323,0.00012782,0.00013593,-0.00007242,-0.00006876,-0.194672
 79,0.10084793,0.20897409\\0.00024350,-0.00014394,0.00027050,-0.0001006
 1,0.00006736,-0.00036790,-0.00008590,0.00004961,-0.00001083,0.00031472
 ,-0.00017663,0.00011172,-0.00022604,0.00012731,-0.00008972,-0.00010819
 ,0.00006110,-0.00000731,0.00009842,-0.00005509,0.00002971,-0.00002986,
 0.00001355,0.00004168,-0.00006179,0.00003573,-0.00003592,-0.00001853,0
 .00000839,0.00003920,0.00000072,-0.00000083,-0.00000756,-0.00000653,0.
 00000079,0.00005779,-0.00001991,0.00001266,-0.00003135\\\@


 Human beings, who are almost unique in having the
 ability to learn from the experience of others, are
 also remarkable for their apparent disinclination to do so.
                               -- Douglas Adams,
                                Last Chance to See
 Job cpu time:       0 days  0 hours  4 minutes 48.8 seconds.
 File lengths (MBytes):  RWF=    134 Int=      0 D2E=      0 Chk=      4 Scr=      2
 Normal termination of Gaussian 09 at Fri Mar 21 11:08:25 2025.
