 Entering Gaussian System, Link 0=g09
 Initial command:
 /apps/z_install_tree/linux-rocky8-ivybridge/gcc-12.2.0/gaussian-09-D.01-wczn3gur5lpur3omlkzwa2l5ecyxp5ef/g09/l1.exe "/srv/scratch/z5358697/gauss/Gau-817641.inp" -scrdir="/srv/scratch/z5358697/gauss/"
 Entering Link 1 = /apps/z_install_tree/linux-rocky8-ivybridge/gcc-12.2.0/gaussian-09-D.01-wczn3gur5lpur3omlkzwa2l5ecyxp5ef/g09/l1.exe PID=    817642.
  
 Copyright (c) 1988,1990,1992,1993,1995,1998,2003,2009,2013,
            Gaussian, Inc.  All Rights Reserved.
  
 This is part of the Gaussian(R) 09 program.  It is based on
 the Gaussian(R) 03 system (copyright 2003, Gaussian, Inc.),
 the Gaussian(R) 98 system (copyright 1998, Gaussian, Inc.),
 the Gaussian(R) 94 system (copyright 1995, Gaussian, Inc.),
 the Gaussian 92(TM) system (copyright 1992, Gaussian, Inc.),
 the Gaussian 90(TM) system (copyright 1990, Gaussian, Inc.),
 the Gaussian 88(TM) system (copyright 1988, Gaussian, Inc.),
 the Gaussian 86(TM) system (copyright 1986, Carnegie Mellon
 University), and the Gaussian 82(TM) system (copyright 1983,
 Carnegie Mellon University). Gaussian is a federally registered
 trademark of Gaussian, Inc.
  
 This software contains proprietary and confidential information,
 including trade secrets, belonging to Gaussian, Inc.
  
 This software is provided under written license and may be
 used, copied, transmitted, or stored only in accord with that
 written license.
  
 The following legend is applicable only to US Government
 contracts under FAR:
  
                    RESTRICTED RIGHTS LEGEND
  
 Use, reproduction and disclosure by the US Government is
 subject to restrictions as set forth in subparagraphs (a)
 and (c) of the Commercial Computer Software - Restricted
 Rights clause in FAR 52.227-19.
  
 Gaussian, Inc.
 340 Quinnipiac St., Bldg. 40, Wallingford CT 06492
  
  
 ---------------------------------------------------------------
 Warning -- This program may not be used in any manner that
 competes with the business of Gaussian, Inc. or will provide
 assistance to any competitor of Gaussian, Inc.  The licensee
 of this program is prohibited from giving any competitor of
 Gaussian, Inc. access to this program.  By using this program,
 the user acknowledges that Gaussian, Inc. is engaged in the
 business of creating and licensing software in the field of
 computational chemistry and represents and warrants to the
 licensee that it is not a competitor of Gaussian, Inc. and that
 it will not use this program in any manner prohibited above.
 ---------------------------------------------------------------
  

 Cite this work as:
 Gaussian 09, Revision D.01,
 M. J. Frisch, G. W. Trucks, H. B. Schlegel, G. E. Scuseria, 
 M. A. Robb, J. R. Cheeseman, G. Scalmani, V. Barone, B. Mennucci, 
 G. A. Petersson, H. Nakatsuji, M. Caricato, X. Li, H. P. Hratchian, 
 A. F. Izmaylov, J. Bloino, G. Zheng, J. L. Sonnenberg, M. Hada, 
 M. Ehara, K. Toyota, R. Fukuda, J. Hasegawa, M. Ishida, T. Nakajima, 
 Y. Honda, O. Kitao, H. Nakai, T. Vreven, J. A. Montgomery, Jr., 
 J. E. Peralta, F. Ogliaro, M. Bearpark, J. J. Heyd, E. Brothers, 
 K. N. Kudin, V. N. Staroverov, T. Keith, R. Kobayashi, J. Normand, 
 K. Raghavachari, A. Rendell, J. C. Burant, S. S. Iyengar, J. Tomasi, 
 M. Cossi, N. Rega, J. M. Millam, M. Klene, J. E. Knox, J. B. Cross, 
 V. Bakken, C. Adamo, J. Jaramillo, R. Gomperts, R. E. Stratmann, 
 O. Yazyev, A. J. Austin, R. Cammi, C. Pomelli, J. W. Ochterski, 
 R. L. Martin, K. Morokuma, V. G. Zakrzewski, G. A. Voth, 
 P. Salvador, J. J. Dannenberg, S. Dapprich, A. D. Daniels, 
 O. Farkas, J. B. Foresman, J. V. Ortiz, J. Cioslowski, 
 and D. J. Fox, Gaussian, Inc., Wallingford CT, 2013.
 
 ******************************************
 Gaussian 09:  ES64L-G09RevD.01 24-Apr-2013
                14-Mar-2025 
 ******************************************
 ---------------------------------
 #m062X/6-31+G(d) OPT Freq=noraman
 ---------------------------------
 1/14=-1,18=20,19=15,26=3,38=1/1,3;
 2/9=110,12=2,17=6,18=5,40=1/2;
 3/5=1,6=6,7=11,11=2,16=1,25=1,30=1,71=1,74=-55/1,2,3;
 4//1;
 5/5=2,38=5/2;
 6/7=2,8=2,9=2,10=2,28=1/1;
 7//1,2,3,16;
 1/14=-1,18=20,19=15,26=3/3(2);
 2/9=110/2;
 99//99;
 2/9=110/2;
 3/5=1,6=6,7=11,11=2,16=1,25=1,30=1,71=1,74=-55/1,2,3;
 4/5=5,16=3,69=1/1;
 5/5=2,38=5/2;
 7//1,2,3,16;
 1/14=-1,18=20,19=15,26=3/3(-5);
 2/9=110/2;
 6/7=2,8=2,9=2,10=2,19=2,28=1/1;
 99/9=1/99;
 -------------------------------
 2-chloro-1,1,1-trifluoro-ethane
 -------------------------------
 Symbolic Z-matrix:
 Charge =  0 Multiplicity = 1
 C                    -0.0165    0.7148   -0.271 
 C                     0.03     -0.7407    0.12 
 F                    -1.0937   -1.1171    0.7664 
 F                     1.0845   -1.0063    0.9198 
 F                     0.1469   -1.5187   -0.9796 
 Cl                   -0.1864    1.7495    1.1631 
 H                     0.9014    1.0065   -0.7887 
 H                    -0.8665    0.912    -0.93 
 

 GradGradGradGradGradGradGradGradGradGradGradGradGradGradGradGradGradGrad
 Berny optimization.
 Initialization pass.
                           ----------------------------
                           !    Initial Parameters    !
                           ! (Angstroms and Degrees)  !
 --------------------------                            --------------------------
 ! Name  Definition              Value          Derivative Info.                !
 --------------------------------------------------------------------------------
 ! R1    R(1,2)                  1.5078         estimate D2E/DX2                !
 ! R2    R(1,6)                  1.7765         estimate D2E/DX2                !
 ! R3    R(1,7)                  1.0935         estimate D2E/DX2                !
 ! R4    R(1,8)                  1.0935         estimate D2E/DX2                !
 ! R5    R(2,3)                  1.3499         estimate D2E/DX2                !
 ! R6    R(2,4)                  1.3499         estimate D2E/DX2                !
 ! R7    R(2,5)                  1.3521         estimate D2E/DX2                !
 ! A1    A(2,1,6)              110.8445         estimate D2E/DX2                !
 ! A2    A(2,1,7)              110.7566         estimate D2E/DX2                !
 ! A3    A(2,1,8)              110.753          estimate D2E/DX2                !
 ! A4    A(6,1,7)              107.8845         estimate D2E/DX2                !
 ! A5    A(6,1,8)              107.8859         estimate D2E/DX2                !
 ! A6    A(7,1,8)              108.6082         estimate D2E/DX2                !
 ! A7    A(1,2,3)              111.5716         estimate D2E/DX2                !
 ! A8    A(1,2,4)              111.5716         estimate D2E/DX2                !
 ! A9    A(1,2,5)              110.3175         estimate D2E/DX2                !
 ! A10   A(3,2,4)              108.1617         estimate D2E/DX2                !
 ! A11   A(3,2,5)              107.5156         estimate D2E/DX2                !
 ! A12   A(4,2,5)              107.5239         estimate D2E/DX2                !
 ! D1    D(6,1,2,3)             59.997          estimate D2E/DX2                !
 ! D2    D(6,1,2,4)            -61.1157         estimate D2E/DX2                !
 ! D3    D(6,1,2,5)            179.4354         estimate D2E/DX2                !
 ! D4    D(7,1,2,3)            179.7143         estimate D2E/DX2                !
 ! D5    D(7,1,2,4)             58.6015         estimate D2E/DX2                !
 ! D6    D(7,1,2,5)            -60.8473         estimate D2E/DX2                !
 ! D7    D(8,1,2,3)            -59.7196         estimate D2E/DX2                !
 ! D8    D(8,1,2,4)            179.1676         estimate D2E/DX2                !
 ! D9    D(8,1,2,5)             59.7188         estimate D2E/DX2                !
 --------------------------------------------------------------------------------
 Trust Radius=3.00D-01 FncErr=1.00D-07 GrdErr=1.00D-06
 Number of steps in this run=     38 maximum allowed number of steps=    100.
 GradGradGradGradGradGradGradGradGradGradGradGradGradGradGradGradGradGrad

                          Input orientation:                          
 ---------------------------------------------------------------------
 Center     Atomic      Atomic             Coordinates (Angstroms)
 Number     Number       Type             X           Y           Z
 ---------------------------------------------------------------------
      1          6           0       -0.016500    0.714800   -0.271000
      2          6           0        0.030000   -0.740700    0.120000
      3          9           0       -1.093700   -1.117100    0.766400
      4          9           0        1.084500   -1.006300    0.919800
      5          9           0        0.146900   -1.518700   -0.979600
      6         17           0       -0.186400    1.749500    1.163100
      7          1           0        0.901400    1.006500   -0.788700
      8          1           0       -0.866500    0.912000   -0.930000
 ---------------------------------------------------------------------
                    Distance matrix (angstroms):
                    1          2          3          4          5
     1  C    0.000000
     2  C    1.507821   0.000000
     3  F    2.364829   1.349893   0.000000
     4  F    2.364824   1.349887   2.186404   0.000000
     5  F    2.348901   1.352061   2.179194   2.179304   0.000000
     6  Cl   1.776545   2.708502   3.032814   3.044473   3.922166
     7  H    1.093454   2.153551   3.302792   2.646481   2.642413
     8  H    1.093466   2.153516   2.654551   3.302732   2.633959
                    6          7          8
     6  Cl   0.000000
     7  H    2.354757   0.000000
     8  H    2.354784   1.776054   0.000000
 Stoichiometry    C2H2ClF3
 Framework group  C1[X(C2H2ClF3)]
 Deg. of freedom    18
 Full point group                 C1      NOp   1
 Largest Abelian subgroup         C1      NOp   1
 Largest concise Abelian subgroup C1      NOp   1
                         Standard orientation:                         
 ---------------------------------------------------------------------
 Center     Atomic      Atomic             Coordinates (Angstroms)
 Number     Number       Type             X           Y           Z
 ---------------------------------------------------------------------
      1          6           0       -0.441431    0.897535    0.000117
      2          6           0        0.775671    0.007487    0.000089
      3          9           0        0.805770   -0.792106   -1.087090
      4          9           0        0.818319   -0.775011    1.099212
      5          9           0        1.903034    0.753789   -0.012332
      6         17           0       -1.931737   -0.069470    0.000022
      7          1           0       -0.455056    1.535365    0.888165
      8          1           0       -0.454963    1.535448   -0.887888
 ---------------------------------------------------------------------
 Rotational constants (GHZ):      5.2882603      1.7966663      1.7867074
 Standard basis: 6-31+G(d) (6D, 7F)
 There are   122 symmetry adapted cartesian basis functions of A   symmetry.
 There are   122 symmetry adapted basis functions of A   symmetry.
   122 basis functions,   224 primitive gaussians,   122 cartesian basis functions
    29 alpha electrons       29 beta electrons
       nuclear repulsion energy       322.4081902622 Hartrees.
 NAtoms=    8 NActive=    8 NUniq=    8 SFac= 1.00D+00 NAtFMM=   60 NAOKFM=F Big=F
 Integral buffers will be    131072 words long.
 Raffenetti 2 integral format.
 Two-electron integral symmetry is turned on.
 One-electron integrals computed using PRISM.
 NBasis=   122 RedAO= T EigKep=  1.86D-04  NBF=   122
 NBsUse=   122 1.00D-06 EigRej= -1.00D+00 NBFU=   122
 ExpMin= 4.38D-02 ExpMax= 2.52D+04 ExpMxC= 3.78D+03 IAcc=2 IRadAn=         4 AccDes= 0.00D+00
 Harris functional with IExCor= 1009 and IRadAn=       4 diagonalized for initial guess.
 HarFok:  IExCor= 1009 AccDes= 0.00D+00 IRadAn=         4 IDoV= 1 UseB2=F ITyADJ=14
 ICtDFT=  3500011 ScaDFX=  1.000000  1.000000  1.000000  1.000000
 FoFCou: FMM=F IPFlag=           0 FMFlag=      100000 FMFlg1=           0
         NFxFlg=           0 DoJE=T BraDBF=F KetDBF=T FulRan=T
         wScrn=  0.000000 ICntrl=     500 IOpCl=  0 I1Cent=   200000004 NGrid=           0
         NMat0=    1 NMatS0=      1 NMatT0=    0 NMatD0=    1 NMtDS0=    0 NMtDT0=    0
 Petite list used in FoFCou.
 Keep R1 ints in memory in canonical form, NReq=29160581.
 Requested convergence on RMS density matrix=1.00D-08 within 128 cycles.
 Requested convergence on MAX density matrix=1.00D-06.
 Requested convergence on             energy=1.00D-06.
 No special actions if energy rises.
 SCF Done:  E(RM062X) =  -836.999234958     A.U. after   11 cycles
            NFock= 11  Conv=0.93D-08     -V/T= 2.0049

 **********************************************************************

            Population analysis using the SCF density.

 **********************************************************************

 Orbital symmetries:
       Occupied  (A) (A) (A) (A) (A) (A) (A) (A) (A) (A) (A) (A)
                 (A) (A) (A) (A) (A) (A) (A) (A) (A) (A) (A) (A)
                 (A) (A) (A) (A) (A)
       Virtual   (A) (A) (A) (A) (A) (A) (A) (A) (A) (A) (A) (A)
                 (A) (A) (A) (A) (A) (A) (A) (A) (A) (A) (A) (A)
                 (A) (A) (A) (A) (A) (A) (A) (A) (A) (A) (A) (A)
                 (A) (A) (A) (A) (A) (A) (A) (A) (A) (A) (A) (A)
                 (A) (A) (A) (A) (A) (A) (A) (A) (A) (A) (A) (A)
                 (A) (A) (A) (A) (A) (A) (A) (A) (A) (A) (A) (A)
                 (A) (A) (A) (A) (A) (A) (A) (A) (A) (A) (A) (A)
                 (A) (A) (A) (A) (A) (A) (A) (A) (A)
 The electronic state is 1-A.
 Alpha  occ. eigenvalues -- -102.68677 -25.31940 -25.31503 -25.31494 -10.83292
 Alpha  occ. eigenvalues --  -10.65131  -9.83390  -7.55833  -7.55100  -7.55080
 Alpha  occ. eigenvalues --   -1.47796  -1.38851  -1.38671  -1.00042  -0.87495
 Alpha  occ. eigenvalues --   -0.78103  -0.70683  -0.70561  -0.66636  -0.59061
 Alpha  occ. eigenvalues --   -0.58522  -0.56383  -0.55036  -0.52933  -0.52554
 Alpha  occ. eigenvalues --   -0.51097  -0.49480  -0.39381  -0.38854
 Alpha virt. eigenvalues --    0.01121   0.01949   0.04363   0.04735   0.06822
 Alpha virt. eigenvalues --    0.07074   0.07392   0.09040   0.09614   0.10566
 Alpha virt. eigenvalues --    0.12124   0.13411   0.17212   0.17403   0.21416
 Alpha virt. eigenvalues --    0.23601   0.24899   0.25800   0.27402   0.27785
 Alpha virt. eigenvalues --    0.30676   0.30996   0.32512   0.34185   0.34288
 Alpha virt. eigenvalues --    0.36987   0.37897   0.38312   0.40818   0.42755
 Alpha virt. eigenvalues --    0.43217   0.59308   0.63536   0.65277   0.66113
 Alpha virt. eigenvalues --    0.67110   0.67232   0.74785   0.75171   0.79251
 Alpha virt. eigenvalues --    0.82567   0.95077   0.95160   0.98914   1.03450
 Alpha virt. eigenvalues --    1.06749   1.07187   1.12604   1.25075   1.30633
 Alpha virt. eigenvalues --    1.34206   1.43155   1.60485   1.64000   1.65342
 Alpha virt. eigenvalues --    1.66169   1.67149   1.71002   1.71683   1.71713
 Alpha virt. eigenvalues --    1.73475   1.78536   1.81299   1.84789   1.86774
 Alpha virt. eigenvalues --    1.87444   1.88270   1.90562   1.90659   2.01728
 Alpha virt. eigenvalues --    2.06181   2.07127   2.09415   2.10402   2.12551
 Alpha virt. eigenvalues --    2.19439   2.23650   2.32644   2.38744   2.48177
 Alpha virt. eigenvalues --    2.48628   2.79022   2.79189   2.83103   3.14781
 Alpha virt. eigenvalues --    3.18758   3.21635   4.19555   4.43643   4.59841
 Alpha virt. eigenvalues --    5.44623   5.58063   6.20333
          Condensed to atoms (all electrons):
               1          2          3          4          5          6
     1  C    5.740423   0.293373  -0.099964  -0.100018  -0.070013   0.175433
     2  C    0.293373   4.310285   0.213638   0.213764   0.173817  -0.041111
     3  F   -0.099964   0.213638   9.269244  -0.049364  -0.048222   0.001073
     4  F   -0.100018   0.213764  -0.049364   9.269099  -0.048184   0.001178
     5  F   -0.070013   0.173817  -0.048222  -0.048184   9.289011   0.008861
     6  Cl   0.175433  -0.041111   0.001073   0.001178   0.008861  16.874563
     7  H    0.370211  -0.034789   0.008288  -0.006909  -0.002280  -0.044842
     8  H    0.370033  -0.034750  -0.006913   0.008279  -0.002179  -0.044869
               7          8
     1  C    0.370211   0.370033
     2  C   -0.034789  -0.034750
     3  F    0.008288  -0.006913
     4  F   -0.006909   0.008279
     5  F   -0.002280  -0.002179
     6  Cl  -0.044842  -0.044869
     7  H    0.447726  -0.027665
     8  H   -0.027665   0.447893
 Mulliken charges:
               1
     1  C   -0.679479
     2  C    0.905773
     3  F   -0.287782
     4  F   -0.287845
     5  F   -0.300812
     6  Cl   0.069714
     7  H    0.290260
     8  H    0.290170
 Sum of Mulliken charges =   0.00000
 Mulliken charges with hydrogens summed into heavy atoms:
               1
     1  C   -0.099048
     2  C    0.905773
     3  F   -0.287782
     4  F   -0.287845
     5  F   -0.300812
     6  Cl   0.069714
 Electronic spatial extent (au):  <R**2>=            668.9576
 Charge=              0.0000 electrons
 Dipole moment (field-independent basis, Debye):
    X=             -0.4597    Y=              2.1635    Z=             -0.0003  Tot=              2.2118
 Quadrupole moment (field-independent basis, Debye-Ang):
   XX=            -43.4852   YY=            -37.9670   ZZ=            -40.2925
   XY=             -0.6260   XZ=              0.0019   YZ=              0.0020
 Traceless Quadrupole moment (field-independent basis, Debye-Ang):
   XX=             -2.9036   YY=              2.6146   ZZ=              0.2891
   XY=             -0.6260   XZ=              0.0019   YZ=              0.0020
 Octapole moment (field-independent basis, Debye-Ang**2):
  XXX=             14.9133  YYY=             -1.7483  ZZZ=             -0.0388  XYY=              2.9925
  XXY=             -5.9491  XXZ=              0.0082  XZZ=              5.0081  YZZ=              1.6150
  YYZ=              0.0220  XYZ=              0.0160
 Hexadecapole moment (field-independent basis, Debye-Ang**3):
 XXXX=           -494.3300 YYYY=           -128.1477 ZZZZ=           -112.7178 XXXY=              7.5053
 XXXZ=              0.0380 YYYX=             -0.2939 YYYZ=              0.0035 ZZZX=             -0.0250
 ZZZY=              0.0038 XXYY=           -104.4462 XXZZ=           -104.0658 YYZZ=            -37.9234
 XXYZ=              0.0296 YYXZ=              0.0207 ZZXY=              0.4212
 N-N= 3.224081902622D+02 E-N=-2.630476898262D+03  KE= 8.329583291425D+02
 Calling FoFJK, ICntrl=      2127 FMM=F ISym2X=0 I1Cent= 0 IOpClX= 0 NMat=1 NMatS=1 NMatT=0.
 ***** Axes restored to original set *****
 -------------------------------------------------------------------
 Center     Atomic                   Forces (Hartrees/Bohr)
 Number     Number              X              Y              Z
 -------------------------------------------------------------------
      1        6          -0.000274412    0.010849837   -0.004239587
      2        6           0.000031847   -0.009945317    0.005232587
      3        9           0.010297082    0.001640491   -0.004962245
      4        9          -0.009625320    0.000716716   -0.006270739
      5        9          -0.000676640    0.006197356    0.006403299
      6       17           0.000032669   -0.000040519    0.000525777
      7        1          -0.000312344   -0.004740044    0.001593467
      8        1           0.000527119   -0.004678519    0.001717441
 -------------------------------------------------------------------
 Cartesian Forces:  Max     0.010849837 RMS     0.005237101

 GradGradGradGradGradGradGradGradGradGradGradGradGradGradGradGradGradGrad
 Berny optimization.
 FormGI is forming the generalized inverse of G from B-inverse, IUseBI=4.
 Internal  Forces:  Max     0.011415178 RMS     0.004161271
 Search for a local minimum.
 Step number   1 out of a maximum of   38
 All quantities printed in internal units (Hartrees-Bohrs-Radians)
 Mixed Optimization -- RFO/linear search
 Second derivative matrix not updated -- first step.
 ITU=  0
     Eigenvalues ---    0.00662   0.05773   0.06013   0.08507   0.08783
     Eigenvalues ---    0.16000   0.16000   0.22317   0.25000   0.25000
     Eigenvalues ---    0.25000   0.28055   0.31570   0.34415   0.34416
     Eigenvalues ---    0.54585   0.55044   0.55046
 RFO step:  Lambda=-1.42610317D-03 EMin= 6.62493532D-03
 Linear search not attempted -- first point.
 Iteration  1 RMS(Cart)=  0.02170732 RMS(Int)=  0.00044218
 Iteration  2 RMS(Cart)=  0.00038072 RMS(Int)=  0.00023582
 Iteration  3 RMS(Cart)=  0.00000013 RMS(Int)=  0.00023582
 Variable       Old X    -DE/DX   Delta X   Delta X   Delta X     New X
                                 (Linear)    (Quad)   (Total)
    R1        2.84937   0.00144   0.00000   0.00454   0.00454   2.85390
    R2        3.35718   0.00042   0.00000   0.00148   0.00148   3.35867
    R3        2.06633  -0.00229   0.00000  -0.00663  -0.00663   2.05970
    R4        2.06635  -0.00230   0.00000  -0.00665  -0.00665   2.05970
    R5        2.55093  -0.01142   0.00000  -0.02068  -0.02068   2.53024
    R6        2.55092  -0.01139   0.00000  -0.02063  -0.02063   2.53028
    R7        2.55503  -0.00881   0.00000  -0.01610  -0.01610   2.53892
    A1        1.93460   0.00129   0.00000   0.00798   0.00806   1.94266
    A2        1.93307  -0.00534   0.00000  -0.03429  -0.03467   1.89839
    A3        1.93300  -0.00530   0.00000  -0.03377  -0.03415   1.89885
    A4        1.88294   0.00249   0.00000   0.01937   0.01945   1.90239
    A5        1.88296   0.00254   0.00000   0.02024   0.02032   1.90329
    A6        1.89557   0.00480   0.00000   0.02356   0.02268   1.91825
    A7        1.94729   0.00309   0.00000   0.01336   0.01331   1.96061
    A8        1.94729   0.00291   0.00000   0.01244   0.01238   1.95968
    A9        1.92540  -0.00357   0.00000  -0.01608  -0.01602   1.90939
   A10        1.88778  -0.00268   0.00000  -0.00722  -0.00736   1.88042
   A11        1.87650   0.00002   0.00000  -0.00154  -0.00148   1.87502
   A12        1.87665   0.00004   0.00000  -0.00181  -0.00176   1.87489
    D1        1.04715   0.00044   0.00000   0.01021   0.01026   1.05741
    D2       -1.06667  -0.00032   0.00000   0.00141   0.00136  -1.06531
    D3        3.13174   0.00010   0.00000   0.00628   0.00628   3.13802
    D4        3.13661   0.00091   0.00000   0.01727   0.01706  -3.12952
    D5        1.02279   0.00015   0.00000   0.00847   0.00815   1.03094
    D6       -1.06199   0.00057   0.00000   0.01334   0.01307  -1.04891
    D7       -1.04230  -0.00011   0.00000   0.00174   0.00206  -1.04025
    D8        3.12706  -0.00087   0.00000  -0.00706  -0.00685   3.12022
    D9        1.04229  -0.00045   0.00000  -0.00219  -0.00193   1.04036
         Item               Value     Threshold  Converged?
 Maximum Force            0.011415     0.000450     NO 
 RMS     Force            0.004161     0.000300     NO 
 Maximum Displacement     0.060265     0.001800     NO 
 RMS     Displacement     0.021808     0.001200     NO 
 Predicted change in Energy=-7.159056D-04
 GradGradGradGradGradGradGradGradGradGradGradGradGradGradGradGradGradGrad

                          Input orientation:                          
 ---------------------------------------------------------------------
 Center     Atomic      Atomic             Coordinates (Angstroms)
 Number     Number       Type             X           Y           Z
 ---------------------------------------------------------------------
      1          6           0       -0.018104    0.725217   -0.266008
      2          6           0        0.028994   -0.733114    0.123635
      3          9           0       -1.082492   -1.126373    0.758243
      4          9           0        1.071750   -1.013642    0.915342
      5          9           0        0.149169   -1.486809   -0.982077
      6         17           0       -0.182978    1.770251    1.162146
      7          1           0        0.905115    0.979082   -0.786781
      8          1           0       -0.871754    0.885388   -0.924501
 ---------------------------------------------------------------------
                    Distance matrix (angstroms):
                    1          2          3          4          5
     1  C    0.000000
     2  C    1.510221   0.000000
     3  F    2.368628   1.338947   0.000000
     4  F    2.367910   1.338969   2.162902   0.000000
     5  F    2.331050   1.343539   2.162317   2.162231   0.000000
     6  Cl   1.777330   2.718505   3.059852   3.063546   3.913624
     7  H    1.089947   2.127924   3.281863   2.626012   2.586544
     8  H    1.089948   2.128259   2.631202   3.281546   2.583199
                    6          7          8
     6  Cl   0.000000
     7  H    2.368166   0.000000
     8  H    2.368858   1.784659   0.000000
 Stoichiometry    C2H2ClF3
 Framework group  C1[X(C2H2ClF3)]
 Deg. of freedom    18
 Full point group                 C1      NOp   1
 Largest Abelian subgroup         C1      NOp   1
 Largest concise Abelian subgroup C1      NOp   1
                         Standard orientation:                         
 ---------------------------------------------------------------------
 Center     Atomic      Atomic             Coordinates (Angstroms)
 Number     Number       Type             X           Y           Z
 ---------------------------------------------------------------------
      1          6           0       -0.447958    0.890138   -0.001304
      2          6           0        0.775311    0.004487   -0.000126
      3          9           0        0.830738   -0.788029   -1.077914
      4          9           0        0.834682   -0.777754    1.084960
      5          9           0        1.879950    0.769235   -0.005674
      6         17           0       -1.942108   -0.072368   -0.000021
      7          1           0       -0.428462    1.516291    0.890626
      8          1           0       -0.428157    1.515142   -0.894033
 ---------------------------------------------------------------------
 Rotational constants (GHZ):      5.3334845      1.7960569      1.7791824
 Standard basis: 6-31+G(d) (6D, 7F)
 There are   122 symmetry adapted cartesian basis functions of A   symmetry.
 There are   122 symmetry adapted basis functions of A   symmetry.
   122 basis functions,   224 primitive gaussians,   122 cartesian basis functions
    29 alpha electrons       29 beta electrons
       nuclear repulsion energy       323.1356625620 Hartrees.
 NAtoms=    8 NActive=    8 NUniq=    8 SFac= 1.00D+00 NAtFMM=   60 NAOKFM=F Big=F
 Integral buffers will be    131072 words long.
 Raffenetti 2 integral format.
 Two-electron integral symmetry is turned on.
 One-electron integrals computed using PRISM.
 NBasis=   122 RedAO= T EigKep=  1.89D-04  NBF=   122
 NBsUse=   122 1.00D-06 EigRej= -1.00D+00 NBFU=   122
 Initial guess from the checkpoint file:  "/srv/scratch/z5358697/gauss/Gau-817642.chk"
 B after Tr=     0.000000    0.000000    0.000000
         Rot=    0.999995   -0.001372    0.000593   -0.002811 Ang=  -0.36 deg.
 ExpMin= 4.38D-02 ExpMax= 2.52D+04 ExpMxC= 3.78D+03 IAcc=2 IRadAn=         4 AccDes= 0.00D+00
 Harris functional with IExCor= 1009 and IRadAn=       4 diagonalized for initial guess.
 HarFok:  IExCor= 1009 AccDes= 0.00D+00 IRadAn=         4 IDoV= 1 UseB2=F ITyADJ=14
 ICtDFT=  3500011 ScaDFX=  1.000000  1.000000  1.000000  1.000000
 FoFCou: FMM=F IPFlag=           0 FMFlag=      100000 FMFlg1=           0
         NFxFlg=           0 DoJE=T BraDBF=F KetDBF=T FulRan=T
         wScrn=  0.000000 ICntrl=     500 IOpCl=  0 I1Cent=   200000004 NGrid=           0
         NMat0=    1 NMatS0=      1 NMatT0=    0 NMatD0=    1 NMtDS0=    0 NMtDT0=    0
 Petite list used in FoFCou.
 Keep R1 ints in memory in canonical form, NReq=29160581.
 Requested convergence on RMS density matrix=1.00D-08 within 128 cycles.
 Requested convergence on MAX density matrix=1.00D-06.
 Requested convergence on             energy=1.00D-06.
 No special actions if energy rises.
 SCF Done:  E(RM062X) =  -836.999992355     A.U. after   10 cycles
            NFock= 10  Conv=0.54D-08     -V/T= 2.0047
 Calling FoFJK, ICntrl=      2127 FMM=F ISym2X=0 I1Cent= 0 IOpClX= 0 NMat=1 NMatS=1 NMatT=0.
 ***** Axes restored to original set *****
 -------------------------------------------------------------------
 Center     Atomic                   Forces (Hartrees/Bohr)
 Number     Number              X              Y              Z
 -------------------------------------------------------------------
      1        6          -0.000171668    0.003269018    0.000140008
      2        6          -0.000032569   -0.003998685    0.003673489
      3        9           0.000485523    0.000932103   -0.000344235
      4        9          -0.000522608    0.000835715   -0.000318922
      5        9           0.000121490    0.000533329   -0.001985277
      6       17           0.000173866   -0.001054908   -0.001760702
      7        1           0.000389513   -0.000257224    0.000290406
      8        1          -0.000443548   -0.000259347    0.000305233
 -------------------------------------------------------------------
 Cartesian Forces:  Max     0.003998685 RMS     0.001467139

 GradGradGradGradGradGradGradGradGradGradGradGradGradGradGradGradGradGrad
 Berny optimization.
 Using GEDIIS/GDIIS optimizer.
 FormGI is forming the generalized inverse of G from B-inverse, IUseBI=4.
 Internal  Forces:  Max     0.002446507 RMS     0.000920168
 Search for a local minimum.
 Step number   2 out of a maximum of   38
 All quantities printed in internal units (Hartrees-Bohrs-Radians)
 Mixed Optimization -- En-DIIS/RFO-DIIS
 Update second derivatives using D2CorX and points    1    2
 DE= -7.57D-04 DEPred=-7.16D-04 R= 1.06D+00
 TightC=F SS=  1.41D+00  RLast= 7.96D-02 DXNew= 5.0454D-01 2.3887D-01
 Trust test= 1.06D+00 RLast= 7.96D-02 DXMaxT set to 3.00D-01
 ITU=  1  0
 Use linear search instead of GDIIS.
     Eigenvalues ---    0.00662   0.05850   0.06373   0.08266   0.08861
     Eigenvalues ---    0.14432   0.16000   0.22337   0.23831   0.25000
     Eigenvalues ---    0.26192   0.28607   0.31350   0.34416   0.34681
     Eigenvalues ---    0.53450   0.55045   0.58161
 RFO step:  Lambda=-9.23487654D-05 EMin= 6.62048690D-03
 Quartic linear search produced a step of  0.05826.
 Iteration  1 RMS(Cart)=  0.00576135 RMS(Int)=  0.00003712
 Iteration  2 RMS(Cart)=  0.00003181 RMS(Int)=  0.00001727
 Iteration  3 RMS(Cart)=  0.00000000 RMS(Int)=  0.00001727
 Variable       Old X    -DE/DX   Delta X   Delta X   Delta X     New X
                                 (Linear)    (Quad)   (Total)
    R1        2.85390   0.00190   0.00026   0.00639   0.00665   2.86056
    R2        3.35867  -0.00204   0.00009  -0.00768  -0.00759   3.35108
    R3        2.05970   0.00012  -0.00039   0.00035  -0.00004   2.05966
    R4        2.05970   0.00012  -0.00039   0.00033  -0.00006   2.05965
    R5        2.53024  -0.00085  -0.00121  -0.00174  -0.00295   2.52730
    R6        2.53028  -0.00078  -0.00120  -0.00161  -0.00281   2.52747
    R7        2.53892   0.00136  -0.00094   0.00254   0.00161   2.54053
    A1        1.94266   0.00046   0.00047   0.00172   0.00220   1.94486
    A2        1.89839  -0.00050  -0.00202  -0.00291  -0.00496   1.89344
    A3        1.89885  -0.00048  -0.00199  -0.00298  -0.00500   1.89385
    A4        1.90239  -0.00002   0.00113  -0.00031   0.00083   1.90322
    A5        1.90329  -0.00007   0.00118  -0.00102   0.00017   1.90346
    A6        1.91825   0.00062   0.00132   0.00562   0.00688   1.92514
    A7        1.96061  -0.00058   0.00078  -0.00220  -0.00144   1.95917
    A8        1.95968  -0.00048   0.00072  -0.00163  -0.00092   1.95876
    A9        1.90939  -0.00245  -0.00093  -0.01095  -0.01190   1.89749
   A10        1.88042   0.00074  -0.00043   0.00402   0.00358   1.88400
   A11        1.87502   0.00150  -0.00009   0.00571   0.00561   1.88062
   A12        1.87489   0.00149  -0.00010   0.00594   0.00582   1.88071
    D1        1.05741   0.00010   0.00060   0.00340   0.00400   1.06141
    D2       -1.06531  -0.00009   0.00008   0.00096   0.00105  -1.06426
    D3        3.13802  -0.00002   0.00037   0.00185   0.00222   3.14024
    D4       -3.12952   0.00004   0.00099   0.00220   0.00317  -3.12635
    D5        1.03094  -0.00015   0.00048  -0.00024   0.00022   1.03116
    D6       -1.04891  -0.00008   0.00076   0.00065   0.00139  -1.04752
    D7       -1.04025   0.00022   0.00012   0.00554   0.00567  -1.03457
    D8        3.12022   0.00003  -0.00040   0.00310   0.00272   3.12294
    D9        1.04036   0.00010  -0.00011   0.00399   0.00389   1.04426
         Item               Value     Threshold  Converged?
 Maximum Force            0.002447     0.000450     NO 
 RMS     Force            0.000920     0.000300     NO 
 Maximum Displacement     0.018067     0.001800     NO 
 RMS     Displacement     0.005772     0.001200     NO 
 Predicted change in Energy=-4.874593D-05
 GradGradGradGradGradGradGradGradGradGradGradGradGradGradGradGradGradGrad

                          Input orientation:                          
 ---------------------------------------------------------------------
 Center     Atomic      Atomic             Coordinates (Angstroms)
 Number     Number       Type             X           Y           Z
 ---------------------------------------------------------------------
      1          6           0       -0.018311    0.725871   -0.264926
      2          6           0        0.029032   -0.735543    0.126790
      3          9           0       -1.083312   -1.127057    0.757671
      4          9           0        1.071049   -1.013872    0.917733
      5          9           0        0.150728   -1.477248   -0.987861
      6         17           0       -0.181081    1.772899    1.157001
      7          1           0        0.906466    0.974247   -0.785540
      8          1           0       -0.874870    0.880704   -0.920866
 ---------------------------------------------------------------------
                    Distance matrix (angstroms):
                    1          2          3          4          5
     1  C    0.000000
     2  C    1.513742   0.000000
     3  F    2.369235   1.337387   0.000000
     4  F    2.368986   1.337481   2.163262   0.000000
     5  F    2.324853   1.344390   2.166189   2.166332   0.000000
     6  Cl   1.773313   2.719883   3.063206   3.064502   3.908195
     7  H    1.089928   2.127350   3.279664   2.623136   2.573305
     8  H    1.089919   2.127646   2.625269   3.279705   2.572212
                    6          7          8
     6  Cl   0.000000
     7  H    2.365178   0.000000
     8  H    2.365351   1.788916   0.000000
 Stoichiometry    C2H2ClF3
 Framework group  C1[X(C2H2ClF3)]
 Deg. of freedom    18
 Full point group                 C1      NOp   1
 Largest Abelian subgroup         C1      NOp   1
 Largest concise Abelian subgroup C1      NOp   1
                         Standard orientation:                         
 ---------------------------------------------------------------------
 Center     Atomic      Atomic             Coordinates (Angstroms)
 Number     Number       Type             X           Y           Z
 ---------------------------------------------------------------------
      1          6           0       -0.449064    0.886627   -0.000046
      2          6           0        0.777495   -0.000484   -0.000036
      3          9           0        0.834141   -0.786361   -1.080681
      4          9           0        0.835456   -0.783710    1.082579
      5          9           0        1.873268    0.778401   -0.001742
      6         17           0       -1.941469   -0.071164   -0.000074
      7          1           0       -0.425668    1.508687    0.894625
      8          1           0       -0.425740    1.509287   -0.894291
 ---------------------------------------------------------------------
 Rotational constants (GHZ):      5.3167612      1.7983586      1.7798537
 Standard basis: 6-31+G(d) (6D, 7F)
 There are   122 symmetry adapted cartesian basis functions of A   symmetry.
 There are   122 symmetry adapted basis functions of A   symmetry.
   122 basis functions,   224 primitive gaussians,   122 cartesian basis functions
    29 alpha electrons       29 beta electrons
       nuclear repulsion energy       323.1755164365 Hartrees.
 NAtoms=    8 NActive=    8 NUniq=    8 SFac= 1.00D+00 NAtFMM=   60 NAOKFM=F Big=F
 Integral buffers will be    131072 words long.
 Raffenetti 2 integral format.
 Two-electron integral symmetry is turned on.
 One-electron integrals computed using PRISM.
 NBasis=   122 RedAO= T EigKep=  1.90D-04  NBF=   122
 NBsUse=   122 1.00D-06 EigRej= -1.00D+00 NBFU=   122
 Initial guess from the checkpoint file:  "/srv/scratch/z5358697/gauss/Gau-817642.chk"
 B after Tr=     0.000000    0.000000    0.000000
         Rot=    0.999999   -0.001570    0.000183   -0.000537 Ang=  -0.19 deg.
 Keep R1 ints in memory in canonical form, NReq=29160581.
 Requested convergence on RMS density matrix=1.00D-08 within 128 cycles.
 Requested convergence on MAX density matrix=1.00D-06.
 Requested convergence on             energy=1.00D-06.
 No special actions if energy rises.
 SCF Done:  E(RM062X) =  -837.000036671     A.U. after    9 cycles
            NFock=  9  Conv=0.53D-08     -V/T= 2.0047
 Calling FoFJK, ICntrl=      2127 FMM=F ISym2X=0 I1Cent= 0 IOpClX= 0 NMat=1 NMatS=1 NMatT=0.
 ***** Axes restored to original set *****
 -------------------------------------------------------------------
 Center     Atomic                   Forces (Hartrees/Bohr)
 Number     Number              X              Y              Z
 -------------------------------------------------------------------
      1        6          -0.000039643    0.000579949    0.000408299
      2        6          -0.000083197    0.000810893    0.000873290
      3        9           0.000258015   -0.000270873   -0.000123717
      4        9          -0.000251092   -0.000308195   -0.000181003
      5        9           0.000101588   -0.000887698   -0.000451408
      6       17           0.000019585   -0.000038156   -0.000268281
      7        1           0.000044934    0.000062903   -0.000138237
      8        1          -0.000050189    0.000051177   -0.000118942
 -------------------------------------------------------------------
 Cartesian Forces:  Max     0.000887698 RMS     0.000376278

 GradGradGradGradGradGradGradGradGradGradGradGradGradGradGradGradGradGrad
 Berny optimization.
 Using GEDIIS/GDIIS optimizer.
 FormGI is forming the generalized inverse of G from B-inverse, IUseBI=4.
 Internal  Forces:  Max     0.000884926 RMS     0.000323988
 Search for a local minimum.
 Step number   3 out of a maximum of   38
 All quantities printed in internal units (Hartrees-Bohrs-Radians)
 Mixed Optimization -- En-DIIS/RFO-DIIS
 Swapping is turned off.
 Update second derivatives using D2CorX and points    1    2    3
 DE= -4.43D-05 DEPred=-4.87D-05 R= 9.09D-01
 TightC=F SS=  1.41D+00  RLast= 2.31D-02 DXNew= 5.0454D-01 6.9393D-02
 Trust test= 9.09D-01 RLast= 2.31D-02 DXMaxT set to 3.00D-01
 ITU=  1  1  0
     Eigenvalues ---    0.00660   0.05860   0.06426   0.08176   0.08984
     Eigenvalues ---    0.14344   0.16001   0.21521   0.23634   0.25003
     Eigenvalues ---    0.27440   0.29860   0.33731   0.34416   0.34602
     Eigenvalues ---    0.51963   0.55051   0.58404
 En-DIIS/RFO-DIIS IScMMF=        0 using points:     3    2
 RFO step:  Lambda=-4.89971910D-06.
 DidBck=F Rises=F RFO-DIIS coefs:    0.92844    0.07156
 Iteration  1 RMS(Cart)=  0.00184633 RMS(Int)=  0.00000146
 Iteration  2 RMS(Cart)=  0.00000138 RMS(Int)=  0.00000056
 Iteration  3 RMS(Cart)=  0.00000000 RMS(Int)=  0.00000056
 Variable       Old X    -DE/DX   Delta X   Delta X   Delta X     New X
                                 (Linear)    (Quad)   (Total)
    R1        2.86056   0.00066  -0.00048   0.00292   0.00245   2.86300
    R2        3.35108  -0.00023   0.00054  -0.00187  -0.00132   3.34975
    R3        2.05966   0.00011   0.00000   0.00029   0.00030   2.05996
    R4        2.05965   0.00011   0.00000   0.00029   0.00030   2.05994
    R5        2.52730  -0.00020   0.00021  -0.00078  -0.00057   2.52672
    R6        2.52747  -0.00024   0.00020  -0.00084  -0.00064   2.52683
    R7        2.54053   0.00088  -0.00011   0.00173   0.00162   2.54215
    A1        1.94486   0.00022  -0.00016   0.00134   0.00118   1.94604
    A2        1.89344   0.00005   0.00035  -0.00042  -0.00006   1.89338
    A3        1.89385   0.00002   0.00036  -0.00067  -0.00032   1.89353
    A4        1.90322  -0.00010  -0.00006  -0.00005  -0.00011   1.90312
    A5        1.90346  -0.00010  -0.00001  -0.00030  -0.00031   1.90315
    A6        1.92514  -0.00010  -0.00049   0.00010  -0.00039   1.92475
    A7        1.95917   0.00039   0.00010   0.00131   0.00142   1.96059
    A8        1.95876   0.00043   0.00007   0.00154   0.00161   1.96037
    A9        1.89749   0.00060   0.00085   0.00032   0.00118   1.89866
   A10        1.88400  -0.00042  -0.00026  -0.00078  -0.00104   1.88296
   A11        1.88062  -0.00053  -0.00040  -0.00126  -0.00166   1.87897
   A12        1.88071  -0.00056  -0.00042  -0.00137  -0.00178   1.87893
    D1        1.06141   0.00003  -0.00029   0.00166   0.00137   1.06278
    D2       -1.06426  -0.00003  -0.00007   0.00058   0.00050  -1.06376
    D3        3.14024   0.00000  -0.00016   0.00112   0.00096   3.14120
    D4       -3.12635   0.00007  -0.00023   0.00215   0.00193  -3.12443
    D5        1.03116   0.00002  -0.00002   0.00107   0.00106   1.03222
    D6       -1.04752   0.00005  -0.00010   0.00161   0.00151  -1.04601
    D7       -1.03457   0.00000  -0.00041   0.00164   0.00124  -1.03334
    D8        3.12294  -0.00006  -0.00019   0.00056   0.00037   3.12331
    D9        1.04426  -0.00002  -0.00028   0.00110   0.00082   1.04508
         Item               Value     Threshold  Converged?
 Maximum Force            0.000885     0.000450     NO 
 RMS     Force            0.000324     0.000300     NO 
 Maximum Displacement     0.004257     0.001800     NO 
 RMS     Displacement     0.001846     0.001200     NO 
 Predicted change in Energy=-4.230379D-06
 GradGradGradGradGradGradGradGradGradGradGradGradGradGradGradGradGradGrad

                          Input orientation:                          
 ---------------------------------------------------------------------
 Center     Atomic      Atomic             Coordinates (Angstroms)
 Number     Number       Type             X           Y           Z
 ---------------------------------------------------------------------
      1          6           0       -0.018418    0.727172   -0.264495
      2          6           0        0.029030   -0.735586    0.127196
      3          9           0       -1.082809   -1.129250    0.756986
      4          9           0        1.070137   -1.016036    0.918016
      5          9           0        0.151501   -1.478765   -0.987422
      6         17           0       -0.180443    1.775152    1.155943
      7          1           0        0.906068    0.975435   -0.786008
      8          1           0       -0.875365    0.881878   -0.920216
 ---------------------------------------------------------------------
                    Distance matrix (angstroms):
                    1          2          3          4          5
     1  C    0.000000
     2  C    1.515036   0.000000
     3  F    2.371214   1.337084   0.000000
     4  F    2.371088   1.337143   2.161926   0.000000
     5  F    2.327586   1.345246   2.165327   2.165341   0.000000
     6  Cl   1.772612   2.721397   3.067406   3.067782   3.910521
     7  H    1.090085   2.128551   3.281183   2.626133   2.575469
     8  H    1.090075   2.128659   2.626914   3.281182   2.575191
                    6          7          8
     6  Cl   0.000000
     7  H    2.364577   0.000000
     8  H    2.364591   1.788930   0.000000
 Stoichiometry    C2H2ClF3
 Framework group  C1[X(C2H2ClF3)]
 Deg. of freedom    18
 Full point group                 C1      NOp   1
 Largest Abelian subgroup         C1      NOp   1
 Largest concise Abelian subgroup C1      NOp   1
                         Standard orientation:                         
 ---------------------------------------------------------------------
 Center     Atomic      Atomic             Coordinates (Angstroms)
 Number     Number       Type             X           Y           Z
 ---------------------------------------------------------------------
      1          6           0       -0.451779    0.885906   -0.000157
      2          6           0        0.777224   -0.000031   -0.000044
      3          9           0        0.837565   -0.785333   -1.080530
      4          9           0        0.837951   -0.784094    1.081395
      5          9           0        1.873386    0.779787   -0.000664
      6         17           0       -1.943218   -0.072094   -0.000014
      7          1           0       -0.428992    1.508594    0.894284
      8          1           0       -0.429083    1.508512   -0.894646
 ---------------------------------------------------------------------
 Rotational constants (GHZ):      5.3193598      1.7957460      1.7768986
 Standard basis: 6-31+G(d) (6D, 7F)
 There are   122 symmetry adapted cartesian basis functions of A   symmetry.
 There are   122 symmetry adapted basis functions of A   symmetry.
   122 basis functions,   224 primitive gaussians,   122 cartesian basis functions
    29 alpha electrons       29 beta electrons
       nuclear repulsion energy       323.0712732862 Hartrees.
 NAtoms=    8 NActive=    8 NUniq=    8 SFac= 1.00D+00 NAtFMM=   60 NAOKFM=F Big=F
 Integral buffers will be    131072 words long.
 Raffenetti 2 integral format.
 Two-electron integral symmetry is turned on.
 One-electron integrals computed using PRISM.
 NBasis=   122 RedAO= T EigKep=  1.91D-04  NBF=   122
 NBsUse=   122 1.00D-06 EigRej= -1.00D+00 NBFU=   122
 Initial guess from the checkpoint file:  "/srv/scratch/z5358697/gauss/Gau-817642.chk"
 B after Tr=     0.000000    0.000000    0.000000
         Rot=    1.000000   -0.000271    0.000066   -0.000454 Ang=  -0.06 deg.
 Keep R1 ints in memory in canonical form, NReq=29160581.
 Requested convergence on RMS density matrix=1.00D-08 within 128 cycles.
 Requested convergence on MAX density matrix=1.00D-06.
 Requested convergence on             energy=1.00D-06.
 No special actions if energy rises.
 SCF Done:  E(RM062X) =  -837.000039570     A.U. after    8 cycles
            NFock=  8  Conv=0.39D-08     -V/T= 2.0047
 Calling FoFJK, ICntrl=      2127 FMM=F ISym2X=0 I1Cent= 0 IOpClX= 0 NMat=1 NMatS=1 NMatT=0.
 ***** Axes restored to original set *****
 -------------------------------------------------------------------
 Center     Atomic                   Forces (Hartrees/Bohr)
 Number     Number              X              Y              Z
 -------------------------------------------------------------------
      1        6           0.000002031   -0.000226563    0.000163977
      2        6          -0.000001811    0.000268390    0.000291827
      3        9          -0.000100977    0.000104393    0.000002103
      4        9           0.000061430    0.000110657    0.000010006
      5        9           0.000031406   -0.000174874   -0.000309678
      6       17           0.000000573   -0.000012898    0.000009169
      7        1          -0.000025503   -0.000034339   -0.000087242
      8        1           0.000032852   -0.000034765   -0.000080162
 -------------------------------------------------------------------
 Cartesian Forces:  Max     0.000309678 RMS     0.000132053

 GradGradGradGradGradGradGradGradGradGradGradGradGradGradGradGradGradGrad
 Berny optimization.
 Using GEDIIS/GDIIS optimizer.
 FormGI is forming the generalized inverse of G from B-inverse, IUseBI=4.
 Internal  Forces:  Max     0.000368290 RMS     0.000111864
 Search for a local minimum.
 Step number   4 out of a maximum of   38
 All quantities printed in internal units (Hartrees-Bohrs-Radians)
 Mixed Optimization -- En-DIIS/RFO-DIIS
 Swapping is turned off.
 Update second derivatives using D2CorX and points    1    2    3    4
 DE= -2.90D-06 DEPred=-4.23D-06 R= 6.85D-01
 TightC=F SS=  1.41D+00  RLast= 6.21D-03 DXNew= 5.0454D-01 1.8623D-02
 Trust test= 6.85D-01 RLast= 6.21D-03 DXMaxT set to 3.00D-01
 ITU=  1  1  1  0
     Eigenvalues ---    0.00655   0.05847   0.06316   0.08104   0.08965
     Eigenvalues ---    0.14429   0.15999   0.22662   0.24325   0.24983
     Eigenvalues ---    0.27112   0.30237   0.34415   0.34507   0.40818
     Eigenvalues ---    0.47654   0.55045   0.57505
 En-DIIS/RFO-DIIS IScMMF=        0 using points:     4    3    2
 RFO step:  Lambda=-5.24889984D-07.
 DidBck=F Rises=F RFO-DIIS coefs:    0.86399    0.12952    0.00649
 Iteration  1 RMS(Cart)=  0.00049293 RMS(Int)=  0.00000011
 Iteration  2 RMS(Cart)=  0.00000008 RMS(Int)=  0.00000007
 Variable       Old X    -DE/DX   Delta X   Delta X   Delta X     New X
                                 (Linear)    (Quad)   (Total)
    R1        2.86300  -0.00031  -0.00038  -0.00033  -0.00071   2.86230
    R2        3.34975   0.00001   0.00023  -0.00021   0.00002   3.34977
    R3        2.05996   0.00001  -0.00004   0.00007   0.00003   2.06000
    R4        2.05994   0.00001  -0.00004   0.00009   0.00005   2.05999
    R5        2.52672   0.00005   0.00010  -0.00005   0.00005   2.52677
    R6        2.52683   0.00002   0.00011  -0.00010   0.00000   2.52684
    R7        2.54215   0.00037  -0.00023   0.00091   0.00068   2.54282
    A1        1.94604  -0.00011  -0.00017  -0.00007  -0.00024   1.94579
    A2        1.89338   0.00001   0.00004  -0.00003   0.00001   1.89339
    A3        1.89353   0.00000   0.00008  -0.00015  -0.00008   1.89346
    A4        1.90312   0.00006   0.00001   0.00042   0.00043   1.90355
    A5        1.90315   0.00007   0.00004   0.00037   0.00041   1.90356
    A6        1.92475  -0.00004   0.00001  -0.00057  -0.00056   1.92419
    A7        1.96059  -0.00016  -0.00018  -0.00024  -0.00042   1.96017
    A8        1.96037  -0.00014  -0.00021  -0.00009  -0.00030   1.96007
    A9        1.89866  -0.00004  -0.00008   0.00013   0.00004   1.89871
   A10        1.88296   0.00017   0.00012   0.00038   0.00049   1.88345
   A11        1.87897   0.00010   0.00019  -0.00009   0.00010   1.87907
   A12        1.87893   0.00009   0.00020  -0.00009   0.00012   1.87904
    D1        1.06278   0.00001  -0.00021   0.00056   0.00034   1.06312
    D2       -1.06376   0.00000  -0.00008   0.00030   0.00023  -1.06353
    D3        3.14120   0.00000  -0.00014   0.00038   0.00024   3.14143
    D4       -3.12443   0.00003  -0.00028   0.00102   0.00074  -3.12368
    D5        1.03222   0.00002  -0.00015   0.00077   0.00062   1.03284
    D6       -1.04601   0.00002  -0.00021   0.00085   0.00063  -1.04538
    D7       -1.03334  -0.00001  -0.00021   0.00024   0.00003  -1.03330
    D8        3.12331  -0.00002  -0.00007  -0.00002  -0.00008   3.12323
    D9        1.04508  -0.00002  -0.00014   0.00006  -0.00007   1.04501
         Item               Value     Threshold  Converged?
 Maximum Force            0.000368     0.000450     YES
 RMS     Force            0.000112     0.000300     YES
 Maximum Displacement     0.001128     0.001800     YES
 RMS     Displacement     0.000493     0.001200     YES
 Predicted change in Energy=-4.164040D-07
 Optimization completed.
    -- Stationary point found.
                           ----------------------------
                           !   Optimized Parameters   !
                           ! (Angstroms and Degrees)  !
 --------------------------                            --------------------------
 ! Name  Definition              Value          Derivative Info.                !
 --------------------------------------------------------------------------------
 ! R1    R(1,2)                  1.515          -DE/DX =   -0.0003              !
 ! R2    R(1,6)                  1.7726         -DE/DX =    0.0                 !
 ! R3    R(1,7)                  1.0901         -DE/DX =    0.0                 !
 ! R4    R(1,8)                  1.0901         -DE/DX =    0.0                 !
 ! R5    R(2,3)                  1.3371         -DE/DX =    0.0                 !
 ! R6    R(2,4)                  1.3371         -DE/DX =    0.0                 !
 ! R7    R(2,5)                  1.3452         -DE/DX =    0.0004              !
 ! A1    A(2,1,6)              111.4998         -DE/DX =   -0.0001              !
 ! A2    A(2,1,7)              108.4825         -DE/DX =    0.0                 !
 ! A3    A(2,1,8)              108.4915         -DE/DX =    0.0                 !
 ! A4    A(6,1,7)              109.0407         -DE/DX =    0.0001              !
 ! A5    A(6,1,8)              109.0422         -DE/DX =    0.0001              !
 ! A6    A(7,1,8)              110.2798         -DE/DX =    0.0                 !
 ! A7    A(1,2,3)              112.3333         -DE/DX =   -0.0002              !
 ! A8    A(1,2,4)              112.3207         -DE/DX =   -0.0001              !
 ! A9    A(1,2,5)              108.7854         -DE/DX =    0.0                 !
 ! A10   A(3,2,4)              107.8857         -DE/DX =    0.0002              !
 ! A11   A(3,2,5)              107.657          -DE/DX =    0.0001              !
 ! A12   A(4,2,5)              107.6546         -DE/DX =    0.0001              !
 ! D1    D(6,1,2,3)             60.8928         -DE/DX =    0.0                 !
 ! D2    D(6,1,2,4)            -60.949          -DE/DX =    0.0                 !
 ! D3    D(6,1,2,5)            179.9773         -DE/DX =    0.0                 !
 ! D4    D(7,1,2,3)           -179.0164         -DE/DX =    0.0                 !
 ! D5    D(7,1,2,4)             59.1418         -DE/DX =    0.0                 !
 ! D6    D(7,1,2,5)            -59.9319         -DE/DX =    0.0                 !
 ! D7    D(8,1,2,3)            -59.2058         -DE/DX =    0.0                 !
 ! D8    D(8,1,2,4)            178.9525         -DE/DX =    0.0                 !
 ! D9    D(8,1,2,5)             59.8787         -DE/DX =    0.0                 !
 --------------------------------------------------------------------------------
 GradGradGradGradGradGradGradGradGradGradGradGradGradGradGradGradGradGrad

                          Input orientation:                          
 ---------------------------------------------------------------------
 Center     Atomic      Atomic             Coordinates (Angstroms)
 Number     Number       Type             X           Y           Z
 ---------------------------------------------------------------------
      1          6           0       -0.018418    0.727172   -0.264495
      2          6           0        0.029030   -0.735586    0.127196
      3          9           0       -1.082809   -1.129250    0.756986
      4          9           0        1.070137   -1.016036    0.918016
      5          9           0        0.151501   -1.478765   -0.987422
      6         17           0       -0.180443    1.775152    1.155943
      7          1           0        0.906068    0.975435   -0.786008
      8          1           0       -0.875365    0.881878   -0.920216
 ---------------------------------------------------------------------
                    Distance matrix (angstroms):
                    1          2          3          4          5
     1  C    0.000000
     2  C    1.515036   0.000000
     3  F    2.371214   1.337084   0.000000
     4  F    2.371088   1.337143   2.161926   0.000000
     5  F    2.327586   1.345246   2.165327   2.165341   0.000000
     6  Cl   1.772612   2.721397   3.067406   3.067782   3.910521
     7  H    1.090085   2.128551   3.281183   2.626133   2.575469
     8  H    1.090075   2.128659   2.626914   3.281182   2.575191
                    6          7          8
     6  Cl   0.000000
     7  H    2.364577   0.000000
     8  H    2.364591   1.788930   0.000000
 Stoichiometry    C2H2ClF3
 Framework group  C1[X(C2H2ClF3)]
 Deg. of freedom    18
 Full point group                 C1      NOp   1
 Largest Abelian subgroup         C1      NOp   1
 Largest concise Abelian subgroup C1      NOp   1
                         Standard orientation:                         
 ---------------------------------------------------------------------
 Center     Atomic      Atomic             Coordinates (Angstroms)
 Number     Number       Type             X           Y           Z
 ---------------------------------------------------------------------
      1          6           0       -0.451779    0.885906   -0.000157
      2          6           0        0.777224   -0.000031   -0.000044
      3          9           0        0.837565   -0.785333   -1.080530
      4          9           0        0.837951   -0.784094    1.081395
      5          9           0        1.873386    0.779787   -0.000664
      6         17           0       -1.943218   -0.072094   -0.000014
      7          1           0       -0.428992    1.508594    0.894284
      8          1           0       -0.429083    1.508512   -0.894646
 ---------------------------------------------------------------------
 Rotational constants (GHZ):      5.3193598      1.7957460      1.7768986

 **********************************************************************

            Population analysis using the SCF density.

 **********************************************************************

 Orbital symmetries:
       Occupied  (A) (A) (A) (A) (A) (A) (A) (A) (A) (A) (A) (A)
                 (A) (A) (A) (A) (A) (A) (A) (A) (A) (A) (A) (A)
                 (A) (A) (A) (A) (A)
       Virtual   (A) (A) (A) (A) (A) (A) (A) (A) (A) (A) (A) (A)
                 (A) (A) (A) (A) (A) (A) (A) (A) (A) (A) (A) (A)
                 (A) (A) (A) (A) (A) (A) (A) (A) (A) (A) (A) (A)
                 (A) (A) (A) (A) (A) (A) (A) (A) (A) (A) (A) (A)
                 (A) (A) (A) (A) (A) (A) (A) (A) (A) (A) (A) (A)
                 (A) (A) (A) (A) (A) (A) (A) (A) (A) (A) (A) (A)
                 (A) (A) (A) (A) (A) (A) (A) (A) (A) (A) (A) (A)
                 (A) (A) (A) (A) (A) (A) (A) (A) (A)
 The electronic state is 1-A.
 Alpha  occ. eigenvalues -- -102.68712 -25.31772 -25.31544 -25.31542 -10.82953
 Alpha  occ. eigenvalues --  -10.64940  -9.83425  -7.55866  -7.55137  -7.55118
 Alpha  occ. eigenvalues --   -1.48453  -1.39103  -1.39065  -0.99991  -0.87446
 Alpha  occ. eigenvalues --   -0.78328  -0.71041  -0.70848  -0.66600  -0.59148
 Alpha  occ. eigenvalues --   -0.58751  -0.56650  -0.55121  -0.53072  -0.52554
 Alpha  occ. eigenvalues --   -0.51044  -0.49300  -0.39298  -0.38937
 Alpha virt. eigenvalues --    0.01268   0.02067   0.04406   0.04732   0.06861
 Alpha virt. eigenvalues --    0.07200   0.07365   0.09074   0.09782   0.10563
 Alpha virt. eigenvalues --    0.12119   0.13454   0.17394   0.17980   0.21853
 Alpha virt. eigenvalues --    0.23640   0.25053   0.26456   0.27674   0.27899
 Alpha virt. eigenvalues --    0.30404   0.31163   0.32494   0.34263   0.34394
 Alpha virt. eigenvalues --    0.37023   0.38041   0.38237   0.41026   0.42703
 Alpha virt. eigenvalues --    0.43203   0.59188   0.63592   0.65280   0.66033
 Alpha virt. eigenvalues --    0.66689   0.67349   0.74984   0.75366   0.80167
 Alpha virt. eigenvalues --    0.82762   0.94887   0.94925   0.99328   1.03725
 Alpha virt. eigenvalues --    1.06337   1.07990   1.12510   1.24932   1.30690
 Alpha virt. eigenvalues --    1.33479   1.42778   1.60817   1.63724   1.64912
 Alpha virt. eigenvalues --    1.66159   1.67463   1.70708   1.71510   1.71601
 Alpha virt. eigenvalues --    1.73124   1.78807   1.81447   1.84191   1.86876
 Alpha virt. eigenvalues --    1.87630   1.88375   1.90579   1.90903   2.01984
 Alpha virt. eigenvalues --    2.06949   2.08168   2.11124   2.12063   2.12930
 Alpha virt. eigenvalues --    2.20480   2.24861   2.33389   2.39268   2.48202
 Alpha virt. eigenvalues --    2.50337   2.79200   2.80442   2.84577   3.16283
 Alpha virt. eigenvalues --    3.19018   3.23383   4.19459   4.43835   4.60159
 Alpha virt. eigenvalues --    5.46466   5.58339   6.22190
          Condensed to atoms (all electrons):
               1          2          3          4          5          6
     1  C    5.730181   0.293309  -0.099077  -0.099113  -0.075224   0.180807
     2  C    0.293309   4.328583   0.210736   0.210765   0.172044  -0.044190
     3  F   -0.099077   0.210736   9.271552  -0.053939  -0.048269   0.002183
     4  F   -0.099113   0.210765  -0.053939   9.271616  -0.048258   0.002179
     5  F   -0.075224   0.172044  -0.048269  -0.048258   9.298461   0.009279
     6  Cl   0.180807  -0.044190   0.002183   0.002179   0.009279  16.866910
     7  H    0.371703  -0.036278   0.008807  -0.007517  -0.002430  -0.044181
     8  H    0.371687  -0.036265  -0.007513   0.008806  -0.002422  -0.044185
               7          8
     1  C    0.371703   0.371687
     2  C   -0.036278  -0.036265
     3  F    0.008807  -0.007513
     4  F   -0.007517   0.008806
     5  F   -0.002430  -0.002422
     6  Cl  -0.044181  -0.044185
     7  H    0.449769  -0.026862
     8  H   -0.026862   0.449768
 Mulliken charges:
               1
     1  C   -0.674272
     2  C    0.901296
     3  F   -0.284480
     4  F   -0.284539
     5  F   -0.303180
     6  Cl   0.071198
     7  H    0.286990
     8  H    0.286987
 Sum of Mulliken charges =   0.00000
 Mulliken charges with hydrogens summed into heavy atoms:
               1
     1  C   -0.100295
     2  C    0.901296
     3  F   -0.284480
     4  F   -0.284539
     5  F   -0.303180
     6  Cl   0.071198
 Electronic spatial extent (au):  <R**2>=            669.6387
 Charge=              0.0000 electrons
 Dipole moment (field-independent basis, Debye):
    X=             -0.4384    Y=              2.0474    Z=             -0.0007  Tot=              2.0938
 Quadrupole moment (field-independent basis, Debye-Ang):
   XX=            -43.4609   YY=            -38.1393   ZZ=            -40.1591
   XY=             -0.5633   XZ=             -0.0001   YZ=             -0.0001
 Traceless Quadrupole moment (field-independent basis, Debye-Ang):
   XX=             -2.8744   YY=              2.4471   ZZ=              0.4273
   XY=             -0.5633   XZ=             -0.0001   YZ=             -0.0001
 Octapole moment (field-independent basis, Debye-Ang**2):
  XXX=             15.2022  YYY=             -2.0666  ZZZ=             -0.0024  XYY=              3.2038
  XXY=             -6.0210  XXZ=              0.0014  XZZ=              5.1250  YZZ=              1.6345
  YYZ=              0.0016  XYZ=              0.0012
 Hexadecapole moment (field-independent basis, Debye-Ang**3):
 XXXX=           -496.2840 YYYY=           -128.8966 ZZZZ=           -110.9167 XXXY=              7.4887
 XXXZ=             -0.0003 YYYX=              0.0016 YYYZ=              0.0013 ZZZX=             -0.0027
 ZZZY=              0.0004 XXYY=           -105.1285 XXZZ=           -104.2423 YYZZ=            -37.7198
 XXYZ=              0.0013 YYXZ=              0.0012 ZZXY=              0.4785
 N-N= 3.230712732862D+02 E-N=-2.631840340776D+03  KE= 8.330452844066D+02
 1\1\GINC-KATANA1\FOpt\RM062X\6-31+G(d)\C2H2Cl1F3\Z5358697\14-Mar-2025\
 0\\#m062X/6-31+G(d) OPT Freq=noraman\\2-chloro-1,1,1-trifluoro-ethane\
 \0,1\C,-0.0184179685,0.7271723256,-0.2644946539\C,0.0290299423,-0.7355
 855126,0.127195803\F,-1.0828088404,-1.1292502341,0.7569857773\F,1.0701
 365428,-1.0160361712,0.9180159208\F,0.1515009735,-1.4787653103,-0.9874
 217662\Cl,-0.1804433762,1.7751516447,1.1559425908\H,0.9060680698,0.975
 435125,-0.7860075406\H,-0.8753653433,0.8818781329,-0.9202161312\\Versi
 on=ES64L-G09RevD.01\State=1-A\HF=-837.0000396\RMSD=3.929e-09\RMSF=1.32
 1e-04\Dipole=0.028179,0.4488984,-0.6901451\Quadrupole=0.3043339,-1.344
 9389,1.040605,0.2096297,0.0307792,-1.6209416\PG=C01 [X(C2H2Cl1F3)]\\@


 I FIND THAT THE THREE TRULY GREAT TIMES FOR THINKING THOUGHTS
 ARE WHEN I AM STANDING IN THE SHOWER, SITTING ON THE JOHN, OR WALKING.

                                    -- COLIN FLETCHER
 Job cpu time:       0 days  0 hours  0 minutes 55.3 seconds.
 File lengths (MBytes):  RWF=    132 Int=      0 D2E=      0 Chk=      3 Scr=      2
 Normal termination of Gaussian 09 at Fri Mar 14 15:53:18 2025.
 Link1:  Proceeding to internal job step number  2.
 ---------------------------------------------------------------------
 #N Geom=AllCheck Guess=TCheck SCRF=Check GenChk RM062X/6-31+G(d) Freq
 ---------------------------------------------------------------------
 1/10=4,29=7,30=1,38=1,40=1/1,3;
 2/12=2,40=1/2;
 3/5=1,6=6,7=11,11=2,14=-4,16=1,25=1,30=1,70=2,71=2,74=-55,116=1,140=1/1,2,3;
 4/5=101/1;
 5/5=2,98=1/2;
 8/6=4,10=90,11=11/1;
 11/6=1,8=1,9=11,15=111,16=1/1,2,10;
 10/6=1/2;
 6/7=2,8=2,9=2,10=2,18=1,28=1/1;
 7/8=1,10=1,25=1/1,2,3,16;
 1/10=4,30=1/3;
 99//99;
 Structure from the checkpoint file:  "/srv/scratch/z5358697/gauss/Gau-817642.chk"
 -------------------------------
 2-chloro-1,1,1-trifluoro-ethane
 -------------------------------
 Charge =  0 Multiplicity = 1
 Redundant internal coordinates found in file.
 C,0,-0.0184179685,0.7271723256,-0.2644946539
 C,0,0.0290299423,-0.7355855126,0.127195803
 F,0,-1.0828088404,-1.1292502341,0.7569857773
 F,0,1.0701365428,-1.0160361712,0.9180159208
 F,0,0.1515009735,-1.4787653103,-0.9874217662
 Cl,0,-0.1804433762,1.7751516447,1.1559425908
 H,0,0.9060680698,0.975435125,-0.7860075406
 H,0,-0.8753653433,0.8818781329,-0.9202161312
 Recover connectivity data from disk.

 GradGradGradGradGradGradGradGradGradGradGradGradGradGradGradGradGradGrad
 Berny optimization.
 Initialization pass.
                           ----------------------------
                           !    Initial Parameters    !
                           ! (Angstroms and Degrees)  !
 --------------------------                            --------------------------
 ! Name  Definition              Value          Derivative Info.                !
 --------------------------------------------------------------------------------
 ! R1    R(1,2)                  1.515          calculate D2E/DX2 analytically  !
 ! R2    R(1,6)                  1.7726         calculate D2E/DX2 analytically  !
 ! R3    R(1,7)                  1.0901         calculate D2E/DX2 analytically  !
 ! R4    R(1,8)                  1.0901         calculate D2E/DX2 analytically  !
 ! R5    R(2,3)                  1.3371         calculate D2E/DX2 analytically  !
 ! R6    R(2,4)                  1.3371         calculate D2E/DX2 analytically  !
 ! R7    R(2,5)                  1.3452         calculate D2E/DX2 analytically  !
 ! A1    A(2,1,6)              111.4998         calculate D2E/DX2 analytically  !
 ! A2    A(2,1,7)              108.4825         calculate D2E/DX2 analytically  !
 ! A3    A(2,1,8)              108.4915         calculate D2E/DX2 analytically  !
 ! A4    A(6,1,7)              109.0407         calculate D2E/DX2 analytically  !
 ! A5    A(6,1,8)              109.0422         calculate D2E/DX2 analytically  !
 ! A6    A(7,1,8)              110.2798         calculate D2E/DX2 analytically  !
 ! A7    A(1,2,3)              112.3333         calculate D2E/DX2 analytically  !
 ! A8    A(1,2,4)              112.3207         calculate D2E/DX2 analytically  !
 ! A9    A(1,2,5)              108.7854         calculate D2E/DX2 analytically  !
 ! A10   A(3,2,4)              107.8857         calculate D2E/DX2 analytically  !
 ! A11   A(3,2,5)              107.657          calculate D2E/DX2 analytically  !
 ! A12   A(4,2,5)              107.6546         calculate D2E/DX2 analytically  !
 ! D1    D(6,1,2,3)             60.8928         calculate D2E/DX2 analytically  !
 ! D2    D(6,1,2,4)            -60.949          calculate D2E/DX2 analytically  !
 ! D3    D(6,1,2,5)            179.9773         calculate D2E/DX2 analytically  !
 ! D4    D(7,1,2,3)           -179.0164         calculate D2E/DX2 analytically  !
 ! D5    D(7,1,2,4)             59.1418         calculate D2E/DX2 analytically  !
 ! D6    D(7,1,2,5)            -59.9319         calculate D2E/DX2 analytically  !
 ! D7    D(8,1,2,3)            -59.2058         calculate D2E/DX2 analytically  !
 ! D8    D(8,1,2,4)            178.9525         calculate D2E/DX2 analytically  !
 ! D9    D(8,1,2,5)             59.8787         calculate D2E/DX2 analytically  !
 --------------------------------------------------------------------------------
 Trust Radius=3.00D-01 FncErr=1.00D-07 GrdErr=1.00D-07
 Number of steps in this run=      2 maximum allowed number of steps=      2.
 GradGradGradGradGradGradGradGradGradGradGradGradGradGradGradGradGradGrad

                          Input orientation:                          
 ---------------------------------------------------------------------
 Center     Atomic      Atomic             Coordinates (Angstroms)
 Number     Number       Type             X           Y           Z
 ---------------------------------------------------------------------
      1          6           0       -0.018418    0.727172   -0.264495
      2          6           0        0.029030   -0.735586    0.127196
      3          9           0       -1.082809   -1.129250    0.756986
      4          9           0        1.070137   -1.016036    0.918016
      5          9           0        0.151501   -1.478765   -0.987422
      6         17           0       -0.180443    1.775152    1.155943
      7          1           0        0.906068    0.975435   -0.786008
      8          1           0       -0.875365    0.881878   -0.920216
 ---------------------------------------------------------------------
                    Distance matrix (angstroms):
                    1          2          3          4          5
     1  C    0.000000
     2  C    1.515036   0.000000
     3  F    2.371214   1.337084   0.000000
     4  F    2.371088   1.337143   2.161926   0.000000
     5  F    2.327586   1.345246   2.165327   2.165341   0.000000
     6  Cl   1.772612   2.721397   3.067406   3.067782   3.910521
     7  H    1.090085   2.128551   3.281183   2.626133   2.575469
     8  H    1.090075   2.128659   2.626914   3.281182   2.575191
                    6          7          8
     6  Cl   0.000000
     7  H    2.364577   0.000000
     8  H    2.364591   1.788930   0.000000
 Stoichiometry    C2H2ClF3
 Framework group  C1[X(C2H2ClF3)]
 Deg. of freedom    18
 Full point group                 C1      NOp   1
 Largest Abelian subgroup         C1      NOp   1
 Largest concise Abelian subgroup C1      NOp   1
                         Standard orientation:                         
 ---------------------------------------------------------------------
 Center     Atomic      Atomic             Coordinates (Angstroms)
 Number     Number       Type             X           Y           Z
 ---------------------------------------------------------------------
      1          6           0       -0.451779    0.885906   -0.000157
      2          6           0        0.777224   -0.000031   -0.000044
      3          9           0        0.837565   -0.785333   -1.080530
      4          9           0        0.837951   -0.784094    1.081395
      5          9           0        1.873386    0.779787   -0.000664
      6         17           0       -1.943218   -0.072094   -0.000014
      7          1           0       -0.428992    1.508594    0.894284
      8          1           0       -0.429083    1.508512   -0.894646
 ---------------------------------------------------------------------
 Rotational constants (GHZ):      5.3193598      1.7957460      1.7768986
 Standard basis: 6-31+G(d) (6D, 7F)
 There are   122 symmetry adapted cartesian basis functions of A   symmetry.
 There are   122 symmetry adapted basis functions of A   symmetry.
   122 basis functions,   224 primitive gaussians,   122 cartesian basis functions
    29 alpha electrons       29 beta electrons
       nuclear repulsion energy       323.0712732862 Hartrees.
 NAtoms=    8 NActive=    8 NUniq=    8 SFac= 1.00D+00 NAtFMM=   60 NAOKFM=F Big=F
 Integral buffers will be    131072 words long.
 Raffenetti 2 integral format.
 Two-electron integral symmetry is turned on.
 One-electron integrals computed using PRISM.
 NBasis=   122 RedAO= T EigKep=  1.91D-04  NBF=   122
 NBsUse=   122 1.00D-06 EigRej= -1.00D+00 NBFU=   122
 Initial guess from the checkpoint file:  "/srv/scratch/z5358697/gauss/Gau-817642.chk"
 B after Tr=     0.000000    0.000000    0.000000
         Rot=    1.000000    0.000000    0.000000    0.000000 Ang=   0.00 deg.
 Keep R1 ints in memory in canonical form, NReq=29160581.
 Requested convergence on RMS density matrix=1.00D-08 within 128 cycles.
 Requested convergence on MAX density matrix=1.00D-06.
 Requested convergence on             energy=1.00D-06.
 No special actions if energy rises.
 SCF Done:  E(RM062X) =  -837.000039570     A.U. after    1 cycles
            NFock=  1  Conv=0.19D-08     -V/T= 2.0047
 DoSCS=F DFT=T ScalE2(SS,OS)=  1.000000  1.000000
 Range of M.O.s used for correlation:     1   122
 NBasis=   122 NAE=    29 NBE=    29 NFC=     0 NFV=     0
 NROrb=    122 NOA=    29 NOB=    29 NVA=    93 NVB=    93

 **** Warning!!: The largest alpha MO coefficient is  0.31846105D+02

 Symmetrizing basis deriv contribution to polar:
 IMax=3 JMax=2 DiffMx= 0.00D+00
 G2DrvN: will do     9 centers at a time, making    1 passes.
 Calling FoFCou, ICntrl=  3107 FMM=F I1Cent=   0 AccDes= 0.00D+00.
 End of G2Drv F.D. properties file   721 does not exist.
 End of G2Drv F.D. properties file   722 does not exist.
 End of G2Drv F.D. properties file   788 does not exist.
          IDoAtm=11111111
          Differentiating once with respect to electric field.
                with respect to dipole field.
          Differentiating once with respect to nuclear coordinates.
 Keep R1 ints in memory in canonical form, NReq=29097123.
          There are    27 degrees of freedom in the 1st order CPHF.  IDoFFX=6 NUNeed=     3.
     25 vectors produced by pass  0 Test12= 9.99D-15 3.70D-09 XBig12= 1.68D+01 1.32D+00.
 AX will form    25 AO Fock derivatives at one time.
     24 vectors produced by pass  1 Test12= 9.99D-15 3.70D-09 XBig12= 1.35D+00 3.11D-01.
     24 vectors produced by pass  2 Test12= 9.99D-15 3.70D-09 XBig12= 3.64D-02 3.46D-02.
     24 vectors produced by pass  3 Test12= 9.99D-15 3.70D-09 XBig12= 5.17D-04 3.10D-03.
     24 vectors produced by pass  4 Test12= 9.99D-15 3.70D-09 XBig12= 4.43D-06 3.31D-04.
     24 vectors produced by pass  5 Test12= 9.99D-15 3.70D-09 XBig12= 1.83D-08 2.21D-05.
     18 vectors produced by pass  6 Test12= 9.99D-15 3.70D-09 XBig12= 5.97D-11 1.10D-06.
      5 vectors produced by pass  7 Test12= 9.99D-15 3.70D-09 XBig12= 1.84D-13 6.11D-08.
      1 vectors produced by pass  8 Test12= 9.99D-15 3.70D-09 XBig12= 8.04D-16 4.70D-09.
 InvSVY:  IOpt=1 It=  1 EMax= 4.88D-15
 Solved reduced A of dimension   169 with    27 vectors.
 Isotropic polarizability for W=    0.000000       37.14 Bohr**3.
 End of Minotr F.D. properties file   721 does not exist.
 End of Minotr F.D. properties file   722 does not exist.
 End of Minotr F.D. properties file   788 does not exist.

 **********************************************************************

            Population analysis using the SCF density.

 **********************************************************************

 Orbital symmetries:
       Occupied  (A) (A) (A) (A) (A) (A) (A) (A) (A) (A) (A) (A)
                 (A) (A) (A) (A) (A) (A) (A) (A) (A) (A) (A) (A)
                 (A) (A) (A) (A) (A)
       Virtual   (A) (A) (A) (A) (A) (A) (A) (A) (A) (A) (A) (A)
                 (A) (A) (A) (A) (A) (A) (A) (A) (A) (A) (A) (A)
                 (A) (A) (A) (A) (A) (A) (A) (A) (A) (A) (A) (A)
                 (A) (A) (A) (A) (A) (A) (A) (A) (A) (A) (A) (A)
                 (A) (A) (A) (A) (A) (A) (A) (A) (A) (A) (A) (A)
                 (A) (A) (A) (A) (A) (A) (A) (A) (A) (A) (A) (A)
                 (A) (A) (A) (A) (A) (A) (A) (A) (A) (A) (A) (A)
                 (A) (A) (A) (A) (A) (A) (A) (A) (A)
 The electronic state is 1-A.
 Alpha  occ. eigenvalues -- -102.68712 -25.31772 -25.31544 -25.31542 -10.82953
 Alpha  occ. eigenvalues --  -10.64940  -9.83425  -7.55866  -7.55137  -7.55118
 Alpha  occ. eigenvalues --   -1.48453  -1.39103  -1.39065  -0.99991  -0.87446
 Alpha  occ. eigenvalues --   -0.78328  -0.71041  -0.70848  -0.66600  -0.59148
 Alpha  occ. eigenvalues --   -0.58751  -0.56650  -0.55121  -0.53072  -0.52554
 Alpha  occ. eigenvalues --   -0.51044  -0.49300  -0.39298  -0.38937
 Alpha virt. eigenvalues --    0.01268   0.02067   0.04406   0.04732   0.06861
 Alpha virt. eigenvalues --    0.07200   0.07365   0.09074   0.09782   0.10563
 Alpha virt. eigenvalues --    0.12119   0.13454   0.17394   0.17980   0.21853
 Alpha virt. eigenvalues --    0.23640   0.25053   0.26456   0.27674   0.27899
 Alpha virt. eigenvalues --    0.30404   0.31163   0.32494   0.34263   0.34394
 Alpha virt. eigenvalues --    0.37023   0.38041   0.38237   0.41026   0.42703
 Alpha virt. eigenvalues --    0.43203   0.59188   0.63592   0.65280   0.66033
 Alpha virt. eigenvalues --    0.66689   0.67349   0.74984   0.75366   0.80167
 Alpha virt. eigenvalues --    0.82762   0.94887   0.94925   0.99328   1.03725
 Alpha virt. eigenvalues --    1.06337   1.07990   1.12510   1.24932   1.30690
 Alpha virt. eigenvalues --    1.33479   1.42778   1.60817   1.63724   1.64912
 Alpha virt. eigenvalues --    1.66159   1.67463   1.70708   1.71510   1.71601
 Alpha virt. eigenvalues --    1.73124   1.78807   1.81447   1.84191   1.86876
 Alpha virt. eigenvalues --    1.87630   1.88375   1.90579   1.90903   2.01984
 Alpha virt. eigenvalues --    2.06949   2.08168   2.11124   2.12063   2.12930
 Alpha virt. eigenvalues --    2.20480   2.24861   2.33389   2.39268   2.48202
 Alpha virt. eigenvalues --    2.50337   2.79200   2.80442   2.84577   3.16283
 Alpha virt. eigenvalues --    3.19018   3.23383   4.19459   4.43835   4.60159
 Alpha virt. eigenvalues --    5.46466   5.58339   6.22190
          Condensed to atoms (all electrons):
               1          2          3          4          5          6
     1  C    5.730181   0.293309  -0.099077  -0.099113  -0.075224   0.180807
     2  C    0.293309   4.328583   0.210736   0.210765   0.172044  -0.044190
     3  F   -0.099077   0.210736   9.271552  -0.053939  -0.048269   0.002183
     4  F   -0.099113   0.210765  -0.053939   9.271616  -0.048258   0.002179
     5  F   -0.075224   0.172044  -0.048269  -0.048258   9.298461   0.009279
     6  Cl   0.180807  -0.044190   0.002183   0.002179   0.009279  16.866910
     7  H    0.371703  -0.036278   0.008807  -0.007517  -0.002430  -0.044182
     8  H    0.371687  -0.036265  -0.007513   0.008806  -0.002422  -0.044185
               7          8
     1  C    0.371703   0.371687
     2  C   -0.036278  -0.036265
     3  F    0.008807  -0.007513
     4  F   -0.007517   0.008806
     5  F   -0.002430  -0.002422
     6  Cl  -0.044182  -0.044185
     7  H    0.449769  -0.026862
     8  H   -0.026862   0.449768
 Mulliken charges:
               1
     1  C   -0.674272
     2  C    0.901296
     3  F   -0.284480
     4  F   -0.284539
     5  F   -0.303180
     6  Cl   0.071198
     7  H    0.286990
     8  H    0.286987
 Sum of Mulliken charges =   0.00000
 Mulliken charges with hydrogens summed into heavy atoms:
               1
     1  C   -0.100295
     2  C    0.901296
     3  F   -0.284480
     4  F   -0.284539
     5  F   -0.303180
     6  Cl   0.071198
 APT charges:
               1
     1  C    0.212486
     2  C    1.625768
     3  F   -0.538605
     4  F   -0.538620
     5  F   -0.584256
[...]
                      A                      A                      A
 Frequencies --   1319.3206              1345.8536              1403.0861
 Red. masses --      3.0454                 2.6866                 2.2381
 Frc consts  --      3.1232                 2.8672                 2.5960
 IR Inten    --    133.1754               181.0043                73.5747
  Atom  AN      X      Y      Z        X      Y      Z        X      Y      Z
     1   6    -0.03  -0.08   0.00     0.00   0.00  -0.07     0.21  -0.02   0.00
     2   6    -0.10   0.37   0.00     0.00   0.00   0.35    -0.22   0.10   0.00
     3   9     0.01  -0.07  -0.06     0.00  -0.04  -0.07     0.02  -0.03  -0.02
     4   9     0.01  -0.07   0.06     0.00   0.04  -0.07     0.02  -0.03   0.02
     5   9     0.00  -0.03   0.00     0.00   0.00  -0.02     0.04   0.01   0.00
     6  17    -0.01  -0.01   0.00     0.00   0.00  -0.01     0.00   0.01   0.00
     7   1     0.64  -0.04  -0.03     0.64  -0.15   0.04    -0.62  -0.23   0.13
     8   1     0.64  -0.04   0.03    -0.63   0.15   0.04    -0.62  -0.22  -0.13
                     16                     17                     18
                      A                      A                      A
 Frequencies --   1496.4514              3162.9913              3230.5667
 Red. masses --      1.1354                 1.0577                 1.1107
 Frc consts  --      1.4980                 6.2348                 6.8294
 IR Inten    --     23.2139                 5.6621                 0.1646
  Atom  AN      X      Y      Z        X      Y      Z        X      Y      Z
     1   6    -0.04   0.09   0.00     0.00  -0.07   0.00     0.00   0.00   0.10
     2   6     0.04   0.00   0.00     0.00   0.00   0.00     0.00   0.00   0.00
     3   9     0.00   0.00   0.00     0.00   0.00   0.00     0.00   0.00   0.00
     4   9     0.00   0.00   0.00     0.00   0.00   0.00     0.00   0.00   0.00
     5   9    -0.01   0.00   0.00     0.00   0.00   0.00     0.00   0.00   0.00
     6  17     0.00   0.00   0.00     0.00   0.00   0.00     0.00   0.00   0.00
     7   1     0.08  -0.55   0.43     0.00   0.39   0.59     0.00  -0.40  -0.58
     8   1     0.08  -0.55  -0.43     0.00   0.39  -0.59     0.00   0.40  -0.58

 -------------------
 - Thermochemistry -
 -------------------
 Temperature   298.150 Kelvin.  Pressure   1.00000 Atm.
 Atom     1 has atomic number  6 and mass  12.00000
 Atom     2 has atomic number  6 and mass  12.00000
 Atom     3 has atomic number  9 and mass  18.99840
 Atom     4 has atomic number  9 and mass  18.99840
 Atom     5 has atomic number  9 and mass  18.99840
 Atom     6 has atomic number 17 and mass  34.96885
 Atom     7 has atomic number  1 and mass   1.00783
 Atom     8 has atomic number  1 and mass   1.00783
 Molecular mass:   117.97971 amu.
 Principal axes and moments of inertia in atomic units:
                           1         2         3
     Eigenvalues --   339.277901005.009151015.66921
           X            0.99996  -0.00884   0.00000
           Y            0.00884   0.99996  -0.00021
           Z            0.00000   0.00021   1.00000
 This molecule is an asymmetric top.
 Rotational symmetry number  1.
 Rotational temperatures (Kelvin)      0.25529     0.08618     0.08528
 Rotational constants (GHZ):           5.31936     1.79575     1.77690
 Zero-point vibrational energy     117904.9 (Joules/Mol)
                                   28.17996 (Kcal/Mol)
 Warning -- explicit consideration of   6 degrees of freedom as
           vibrations may cause significant error
 Vibrational temperatures:    152.26   268.52   516.43   521.38   772.12
          (Kelvin)            778.64   928.68  1182.17  1274.79  1346.47
                             1668.43  1746.21  1898.21  1936.38  2018.73
                             2153.06  4550.83  4648.06
 
 Zero-point correction=                           0.044908 (Hartree/Particle)
 Thermal correction to Energy=                    0.050519
 Thermal correction to Enthalpy=                  0.051463
 Thermal correction to Gibbs Free Energy=         0.014626
 Sum of electronic and zero-point Energies=           -836.955132
 Sum of electronic and thermal Energies=              -836.949520
 Sum of electronic and thermal Enthalpies=            -836.948576
 Sum of electronic and thermal Free Energies=         -836.985414
 
                     E (Thermal)             CV                S
                      KCal/Mol        Cal/Mol-Kelvin    Cal/Mol-Kelvin
 Total                   31.701             18.600             77.532
 Electronic               0.000              0.000              0.000
 Translational            0.889              2.981             40.211
 Rotational               0.889              2.981             27.340
 Vibrational             29.924             12.638              9.981
 Vibration     1          0.605              1.945              3.344
 Vibration     2          0.632              1.858              2.261
 Vibration     3          0.734              1.557              1.127
 Vibration     4          0.736              1.550              1.112
 Vibration     5          0.892              1.169              0.573
 Vibration     6          0.896              1.159              0.563
                       Q            Log10(Q)             Ln(Q)
 Total Bot       0.187383D-06         -6.727270        -15.490111
 Total V=0       0.848709D+14         13.928759         32.072152
 Vib (Bot)       0.176595D-19        -19.753021        -45.483012
 Vib (Bot)    1  0.193703D+01          0.287137          0.661157
 Vib (Bot)    2  0.107368D+01          0.030875          0.071091
 Vib (Bot)    3  0.511013D+00         -0.291568         -0.671359
 Vib (Bot)    4  0.504993D+00         -0.296714         -0.683210
 Vib (Bot)    5  0.296162D+00         -0.528471         -1.216850
 Vib (Bot)    6  0.292427D+00         -0.533982         -1.229540
 Vib (V=0)       0.799847D+01          0.903007          2.079251
 Vib (V=0)    1  0.250052D+01          0.398031          0.916500
 Vib (V=0)    2  0.168439D+01          0.226444          0.521405
 Vib (V=0)    3  0.121494D+01          0.084554          0.194692
 Vib (V=0)    4  0.121065D+01          0.083017          0.191154
 Vib (V=0)    5  0.108113D+01          0.033878          0.078007
 Vib (V=0)    6  0.107924D+01          0.033116          0.076253
 Electronic      0.100000D+01          0.000000          0.000000
 Translational   0.503693D+08          7.702166         17.734893
 Rotational      0.210662D+06          5.323585         12.258008
 ***** Axes restored to original set *****
 -------------------------------------------------------------------
 Center     Atomic                   Forces (Hartrees/Bohr)
 Number     Number              X              Y              Z
 -------------------------------------------------------------------
      1        6           0.000002024   -0.000226539    0.000163972
      2        6          -0.000001811    0.000268361    0.000291827
      3        9          -0.000100990    0.000104396    0.000002110
      4        9           0.000061442    0.000110661    0.000010016
      5        9           0.000031407   -0.000174874   -0.000309688
      6       17           0.000000577   -0.000012899    0.000009159
      7        1          -0.000025503   -0.000034338   -0.000087237
      8        1           0.000032854   -0.000034766   -0.000080159
 -------------------------------------------------------------------
 Cartesian Forces:  Max     0.000309688 RMS     0.000132050
 FormGI is forming the generalized inverse of G from B-inverse, IUseBI=4.

 GradGradGradGradGradGradGradGradGradGradGradGradGradGradGradGradGradGrad
 Berny optimization.
 Internal  Forces:  Max     0.000368299 RMS     0.000111864
 Search for a local minimum.
 Step number   1 out of a maximum of    2
 All quantities printed in internal units (Hartrees-Bohrs-Radians)
 Second derivative matrix not updated -- analytic derivatives used.
 ITU=  0
     Eigenvalues ---    0.00409   0.04777   0.06080   0.10282   0.10291
     Eigenvalues ---    0.14067   0.14707   0.20145   0.23623   0.24811
     Eigenvalues ---    0.27339   0.27721   0.36077   0.36361   0.39822
     Eigenvalues ---    0.40582   0.40749   0.56466
 Angle between quadratic step and forces=  49.79 degrees.
 Linear search not attempted -- first point.
 Iteration  1 RMS(Cart)=  0.00058919 RMS(Int)=  0.00000014
 Iteration  2 RMS(Cart)=  0.00000014 RMS(Int)=  0.00000002
 Variable       Old X    -DE/DX   Delta X   Delta X   Delta X     New X
                                 (Linear)    (Quad)   (Total)
    R1        2.86300  -0.00031   0.00000  -0.00095  -0.00095   2.86205
    R2        3.34975   0.00001   0.00000  -0.00003  -0.00003   3.34973
    R3        2.05996   0.00001   0.00000   0.00004   0.00004   2.06001
    R4        2.05994   0.00001   0.00000   0.00006   0.00006   2.06000
    R5        2.52672   0.00005   0.00000   0.00001   0.00001   2.52673
    R6        2.52683   0.00002   0.00000  -0.00011  -0.00011   2.52673
    R7        2.54215   0.00037   0.00000   0.00095   0.00095   2.54310
    A1        1.94604  -0.00011   0.00000  -0.00033  -0.00033   1.94571
    A2        1.89338   0.00001   0.00000   0.00015   0.00015   1.89353
    A3        1.89353   0.00000   0.00000  -0.00001  -0.00001   1.89353
    A4        1.90312   0.00006   0.00000   0.00050   0.00050   1.90362
    A5        1.90315   0.00007   0.00000   0.00048   0.00048   1.90363
    A6        1.92475  -0.00004   0.00000  -0.00082  -0.00082   1.92393
    A7        1.96059  -0.00016   0.00000  -0.00037  -0.00037   1.96021
    A8        1.96037  -0.00014   0.00000  -0.00015  -0.00015   1.96021
    A9        1.89866  -0.00004   0.00000  -0.00012  -0.00012   1.89855
   A10        1.88296   0.00017   0.00000   0.00057   0.00057   1.88353
   A11        1.87897   0.00010   0.00000   0.00003   0.00003   1.87900
   A12        1.87893   0.00009   0.00000   0.00007   0.00007   1.87899
    D1        1.06278   0.00001   0.00000   0.00067   0.00067   1.06345
    D2       -1.06376   0.00000   0.00000   0.00031   0.00031  -1.06345
    D3        3.14120   0.00000   0.00000   0.00040   0.00040  -3.14159
    D4       -3.12443   0.00003   0.00000   0.00119   0.00119  -3.12324
    D5        1.03222   0.00002   0.00000   0.00083   0.00083   1.03305
    D6       -1.04601   0.00002   0.00000   0.00091   0.00091  -1.04510
    D7       -1.03334  -0.00001   0.00000   0.00029   0.00029  -1.03305
    D8        3.12331  -0.00002   0.00000  -0.00007  -0.00007   3.12324
    D9        1.04508  -0.00002   0.00000   0.00001   0.00001   1.04509
         Item               Value     Threshold  Converged?
 Maximum Force            0.000368     0.000450     YES
 RMS     Force            0.000112     0.000300     YES
 Maximum Displacement     0.001153     0.001800     YES
 RMS     Displacement     0.000589     0.001200     YES
 Predicted change in Energy=-5.181868D-07
 Optimization completed.
    -- Stationary point found.
                           ----------------------------
                           !   Optimized Parameters   !
                           ! (Angstroms and Degrees)  !
 --------------------------                            --------------------------
 ! Name  Definition              Value          Derivative Info.                !
 --------------------------------------------------------------------------------
 ! R1    R(1,2)                  1.515          -DE/DX =   -0.0003              !
 ! R2    R(1,6)                  1.7726         -DE/DX =    0.0                 !
 ! R3    R(1,7)                  1.0901         -DE/DX =    0.0                 !
 ! R4    R(1,8)                  1.0901         -DE/DX =    0.0                 !
 ! R5    R(2,3)                  1.3371         -DE/DX =    0.0                 !
 ! R6    R(2,4)                  1.3371         -DE/DX =    0.0                 !
 ! R7    R(2,5)                  1.3452         -DE/DX =    0.0004              !
 ! A1    A(2,1,6)              111.4998         -DE/DX =   -0.0001              !
 ! A2    A(2,1,7)              108.4825         -DE/DX =    0.0                 !
 ! A3    A(2,1,8)              108.4915         -DE/DX =    0.0                 !
 ! A4    A(6,1,7)              109.0407         -DE/DX =    0.0001              !
 ! A5    A(6,1,8)              109.0422         -DE/DX =    0.0001              !
 ! A6    A(7,1,8)              110.2798         -DE/DX =    0.0                 !
 ! A7    A(1,2,3)              112.3333         -DE/DX =   -0.0002              !
 ! A8    A(1,2,4)              112.3207         -DE/DX =   -0.0001              !
 ! A9    A(1,2,5)              108.7854         -DE/DX =    0.0                 !
 ! A10   A(3,2,4)              107.8857         -DE/DX =    0.0002              !
 ! A11   A(3,2,5)              107.657          -DE/DX =    0.0001              !
 ! A12   A(4,2,5)              107.6546         -DE/DX =    0.0001              !
 ! D1    D(6,1,2,3)             60.8928         -DE/DX =    0.0                 !
 ! D2    D(6,1,2,4)            -60.949          -DE/DX =    0.0                 !
 ! D3    D(6,1,2,5)           -180.0227         -DE/DX =    0.0                 !
 ! D4    D(7,1,2,3)           -179.0164         -DE/DX =    0.0                 !
 ! D5    D(7,1,2,4)             59.1418         -DE/DX =    0.0                 !
 ! D6    D(7,1,2,5)            -59.9319         -DE/DX =    0.0                 !
 ! D7    D(8,1,2,3)            -59.2058         -DE/DX =    0.0                 !
 ! D8    D(8,1,2,4)            178.9525         -DE/DX =    0.0                 !
 ! D9    D(8,1,2,5)             59.8787         -DE/DX =    0.0                 !
 --------------------------------------------------------------------------------
 GradGradGradGradGradGradGradGradGradGradGradGradGradGradGradGradGradGrad

 1\1\GINC-KATANA1\Freq\RM062X\6-31+G(d)\C2H2Cl1F3\Z5358697\14-Mar-2025\
 0\\#N Geom=AllCheck Guess=TCheck SCRF=Check GenChk RM062X/6-31+G(d) Fr
 eq\\2-chloro-1,1,1-trifluoro-ethane\\0,1\C,-0.0184179685,0.7271723256,
 -0.2644946539\C,0.0290299423,-0.7355855126,0.127195803\F,-1.0828088404
 ,-1.1292502341,0.7569857773\F,1.0701365428,-1.0160361712,0.9180159208\
 F,0.1515009735,-1.4787653103,-0.9874217662\Cl,-0.1804433762,1.77515164
 47,1.1559425908\H,0.9060680698,0.975435125,-0.7860075406\H,-0.87536534
 33,0.8818781329,-0.9202161312\\Version=ES64L-G09RevD.01\State=1-A\HF=-
 837.0000396\RMSD=1.873e-09\RMSF=1.321e-04\ZeroPoint=0.0449076\Thermal=
 0.0505193\Dipole=0.0281791,0.4488982,-0.6901453\DipoleDeriv=0.062258,-
 0.0346586,-0.0423178,-0.0292679,0.172544,0.3081891,-0.0459008,0.377783
 9,0.4026561,1.6679438,0.0031934,0.0012841,-0.0128358,1.6742013,0.16721
 41,0.0123742,-0.0446819,1.5351578,-0.71849,-0.1506649,0.2161134,-0.211
 2741,-0.4754111,0.1058516,0.2419869,0.1107896,-0.4219146,-0.6762552,0.
 1092036,-0.2634808,0.1697302,-0.4417847,0.1090222,-0.2891512,0.1021022
 ,-0.4978205,-0.314898,0.0406136,0.0543465,0.0518902,-0.6976737,-0.4196
 283,0.0464509,-0.2694644,-0.7401957,-0.1063552,0.0223403,0.0208689,0.0
 193085,-0.2814656,-0.1322008,0.0227915,-0.1707644,-0.2872131,0.0366089
 ,-0.0024424,0.0516368,0.013821,0.0248449,-0.0662322,0.0432765,-0.05140
 86,0.0109476,0.0491877,0.012415,-0.0384512,-0.0013721,0.0247448,-0.072
 2156,-0.031828,-0.0543564,-0.0016177\Polar=32.8664762,-0.8276573,39.69
 78711,-0.7807038,6.1116666,38.8435352\PG=C01 [X(C2H2Cl1F3)]\NImag=0\\0
 .63315951,0.01340652,0.46008543,0.01473930,-0.05641859,0.47895216,-0.0
 8020744,0.00350782,-0.00280792,0.58406594,0.00391517,-0.21181386,0.039
 98251,-0.00019261,0.63428298,-0.00309568,0.04547693,-0.07090603,0.0023
 1856,-0.03213375,0.57517537,-0.01328666,-0.00665987,0.01375397,-0.2185
 0288,-0.07650381,0.08559969,0.32749824,-0.03953639,-0.01115216,0.02404
 592,-0.06739569,-0.12165522,0.04391951,0.08818075,0.10675424,0.0215612
 3,0.00724353,-0.00730822,0.08584650,0.04940049,-0.12750196,-0.14050845
 ,-0.04868318,0.16104323,-0.01223689,0.00525982,-0.01691344,-0.20365996
 ,0.05888325,-0.10066669,-0.08359715,-0.00007120,-0.01502179,0.29692612
 ,0.03521746,-0.00661190,0.02804146,0.05068182,-0.10837146,0.04288999,-
 0.00967004,0.01616825,-0.00635328,-0.05868599,0.09140470,-0.02266243,0
 .00581888,-0.01292417,-0.10155613,0.04959885,-0.15547765,0.00009455,-0
 .00483986,0.01929600,0.16473460,-0.04349767,0.20682625,0.00741816,0.00
 260294,0.00331683,-0.07689248,0.01339621,0.01440204,-0.01555867,0.0185
 9725,0.04959226,-0.00028351,-0.01815140,-0.04164629,0.08290611,0.00487
 425,-0.02767395,-0.04021763,0.01284701,-0.17629135,-0.10075032,0.00829
 632,0.01709672,-0.00433246,-0.00963317,0.01417981,-0.01053442,-0.01714
 984,0.18017133,0.00172137,-0.00986116,-0.00828739,0.01479801,-0.108146
 10,-0.19714539,0.04100272,-0.01600793,-0.04926375,-0.03181253,-0.02264
 943,-0.06161757,-0.02580926,0.15907309,0.31349295,-0.03610114,0.007100
 25,0.00985140,-0.00297889,0.00092773,0.00251268,0.00108259,-0.00092489
 ,-0.00128629,0.00071522,0.00090433,0.00093648,0.00139840,0.00069177,0.
 00000360,0.02558383,0.00688109,-0.07842684,-0.06103636,0.00310825,-0.0
 1413438,-0.03338006,0.00035381,-0.00005531,0.00050991,-0.00033873,0.00
 000907,0.00058204,0.00065018,-0.00928917,-0.00116302,-0.01225570,0.107
 21522,0.01000490,-0.06392997,-0.12320405,0.00098559,-0.00441325,-0.012
 76926,-0.00110096,0.00063891,0.00265791,0.00073376,0.00087059,0.002962
 99,0.00003329,-0.00170928,0.00219633,-0.01627801,0.10449831,0.16689319
 ,-0.26369151,-0.06069130,0.11485683,-0.00013332,0.00122447,-0.00083419
 ,0.00184599,0.00110121,-0.00055577,0.00051033,-0.00000410,-0.00025387,
 0.00060281,-0.00033538,-0.00084171,0.00363340,0.00119747,-0.00078690,0
 .27452519,-0.05447713,-0.06689913,0.03629222,-0.03093649,-0.00249686,0
 .01474019,-0.00265480,-0.00828844,0.00392771,0.00150902,0.00128187,-0.
 00153238,0.00175858,0.00097364,-0.00054059,0.01466272,-0.00195788,-0.0
 1719032,0.06458932,0.07443227,0.11444108,0.03886191,-0.10913603,0.0099
 2731,0.00347406,-0.00498316,0.00054801,0.00164667,0.00016845,-0.000578
 82,-0.00078836,0.00077126,-0.00127983,-0.00086166,0.00014432,0.0164225
 0,-0.00421881,-0.01855475,-0.12351647,-0.03283132,0.11947981,-0.235054
 03,0.03547381,-0.13679696,-0.00169096,-0.00165041,-0.00023641,0.000518
 54,0.00004895,0.00037231,0.00162584,-0.00029207,0.00035309,0.00040917,
 0.00040904,0.00093780,0.00666660,0.00040362,0.00640833,-0.01729290,0.0
 0554878,-0.01596378,0.24481775,0.02971903,-0.05750759,0.02931046,0.028
 37988,0.00048015,0.01923751,-0.00134236,0.00113191,-0.00171272,0.00307
 700,-0.00806033,0.00440457,-0.00170392,0.00083297,-0.00070486,-0.01110
 621,-0.00336072,-0.01876501,-0.00708169,0.00295452,-0.00528250,-0.0399
 4173,0.06352909,-0.13670977,0.03280846,-0.14718626,-0.00951193,0.00223
 718,-0.00639193,0.00061048,-0.00072004,0.00090834,-0.00047510,0.001486
 72,0.00016289,0.00139097,-0.00066733,0.00048051,-0.01216236,-0.0057920
 1,-0.02018235,0.01193208,-0.00286553,0.01211009,0.14492562,-0.02648745
 ,0.16009871\\-0.00000202,0.00022654,-0.00016397,0.00000181,-0.00026836
 ,-0.00029183,0.00010099,-0.00010440,-0.00000211,-0.00006144,-0.0001106
 6,-0.00001002,-0.00003141,0.00017487,0.00030969,-0.00000058,0.00001290
 ,-0.00000916,0.00002550,0.00003434,0.00008724,-0.00003285,0.00003477,0
 .00008016\\\@


 IF YOU BELIEVE CERTAIN WORDS, YOU BELIEVE THEIR HIDDEN ARGUMENTS.
 WHEN YOU BELIEVE SOMETHING IS RIGHT OR WRONG, TRUE OR FALSE, 
 YOU BELIEVE THE ASSUMPTIONS IN THE WORDS WHICH EXPRESS THE ARGUMENTS.
 SUCH ASSUMPTIONS ARE OFTEN FULL OF HOLES, BUT REMAIN MOST PRECIOUS 
 TO THE CONVINCED.

                 -- THE OPEN-ENDED PROOF FROM THE PANOPLIA PROPHETICA
                    CHILDREN OF DUNE BY FRANK HERBERT
 Job cpu time:       0 days  0 hours  1 minutes 14.6 seconds.
 File lengths (MBytes):  RWF=    132 Int=      0 D2E=      0 Chk=      3 Scr=      2
 Normal termination of Gaussian 09 at Fri Mar 14 15:54:37 2025.
