 Entering Gaussian System, Link 0=g09
 Initial command:
 /apps/z_install_tree/linux-rocky8-ivybridge/gcc-12.2.0/gaussian-09-D.01-wczn3gur5lpur3omlkzwa2l5ecyxp5ef/g09/l1.exe "/srv/scratch/z5358697/gauss/Gau-4005042.inp" -scrdir="/srv/scratch/z5358697/gauss/"
 Entering Link 1 = /apps/z_install_tree/linux-rocky8-ivybridge/gcc-12.2.0/gaussian-09-D.01-wczn3gur5lpur3omlkzwa2l5ecyxp5ef/g09/l1.exe PID=   4005044.
  
 Copyright (c) 1988,1990,1992,1993,1995,1998,2003,2009,2013,
            Gaussian, Inc.  All Rights Reserved.
  
 This is part of the Gaussian(R) 09 program.  It is based on
 the Gaussian(R) 03 system (copyright 2003, Gaussian, Inc.),
 the Gaussian(R) 98 system (copyright 1998, Gaussian, Inc.),
 the Gaussian(R) 94 system (copyright 1995, Gaussian, Inc.),
 the Gaussian 92(TM) system (copyright 1992, Gaussian, Inc.),
 the Gaussian 90(TM) system (copyright 1990, Gaussian, Inc.),
 the Gaussian 88(TM) system (copyright 1988, Gaussian, Inc.),
 the Gaussian 86(TM) system (copyright 1986, Carnegie Mellon
 University), and the Gaussian 82(TM) system (copyright 1983,
 Carnegie Mellon University). Gaussian is a federally registered
 trademark of Gaussian, Inc.
  
 This software contains proprietary and confidential information,
 including trade secrets, belonging to Gaussian, Inc.
  
 This software is provided under written license and may be
 used, copied, transmitted, or stored only in accord with that
 written license.
  
 The following legend is applicable only to US Government
 contracts under FAR:
  
                    RESTRICTED RIGHTS LEGEND
  
 Use, reproduction and disclosure by the US Government is
 subject to restrictions as set forth in subparagraphs (a)
 and (c) of the Commercial Computer Software - Restricted
 Rights clause in FAR 52.227-19.
  
 Gaussian, Inc.
 340 Quinnipiac St., Bldg. 40, Wallingford CT 06492
  
  
 ---------------------------------------------------------------
 Warning -- This program may not be used in any manner that
 competes with the business of Gaussian, Inc. or will provide
 assistance to any competitor of Gaussian, Inc.  The licensee
 of this program is prohibited from giving any competitor of
 Gaussian, Inc. access to this program.  By using this program,
 the user acknowledges that Gaussian, Inc. is engaged in the
 business of creating and licensing software in the field of
 computational chemistry and represents and warrants to the
 licensee that it is not a competitor of Gaussian, Inc. and that
 it will not use this program in any manner prohibited above.
 ---------------------------------------------------------------
  

 Cite this work as:
 Gaussian 09, Revision D.01,
 M. J. Frisch, G. W. Trucks, H. B. Schlegel, G. E. Scuseria, 
 M. A. Robb, J. R. Cheeseman, G. Scalmani, V. Barone, B. Mennucci, 
 G. A. Petersson, H. Nakatsuji, M. Caricato, X. Li, H. P. Hratchian, 
 A. F. Izmaylov, J. Bloino, G. Zheng, J. L. Sonnenberg, M. Hada, 
 M. Ehara, K. Toyota, R. Fukuda, J. Hasegawa, M. Ishida, T. Nakajima, 
 Y. Honda, O. Kitao, H. Nakai, T. Vreven, J. A. Montgomery, Jr., 
 J. E. Peralta, F. Ogliaro, M. Bearpark, J. J. Heyd, E. Brothers, 
 K. N. Kudin, V. N. Staroverov, T. Keith, R. Kobayashi, J. Normand, 
 K. Raghavachari, A. Rendell, J. C. Burant, S. S. Iyengar, J. Tomasi, 
 M. Cossi, N. Rega, J. M. Millam, M. Klene, J. E. Knox, J. B. Cross, 
 V. Bakken, C. Adamo, J. Jaramillo, R. Gomperts, R. E. Stratmann, 
 O. Yazyev, A. J. Austin, R. Cammi, C. Pomelli, J. W. Ochterski, 
 R. L. Martin, K. Morokuma, V. G. Zakrzewski, G. A. Voth, 
 P. Salvador, J. J. Dannenberg, S. Dapprich, A. D. Daniels, 
 O. Farkas, J. B. Foresman, J. V. Ortiz, J. Cioslowski, 
 and D. J. Fox, Gaussian, Inc., Wallingford CT, 2013.
 
 ******************************************
 Gaussian 09:  ES64L-G09RevD.01 24-Apr-2013
                17-Mar-2025 
 ******************************************
 ---------------------------------
 #m062X/6-31+G(d) OPT Freq=noraman
 ---------------------------------
 1/14=-1,18=20,19=15,26=3,38=1/1,3;
 2/9=110,12=2,17=6,18=5,40=1/2;
 3/5=1,6=6,7=11,11=2,16=1,25=1,30=1,71=1,74=-55/1,2,3;
 4//1;
 5/5=2,38=5/2;
 6/7=2,8=2,9=2,10=2,28=1/1;
 7//1,2,3,16;
 1/14=-1,18=20,19=15,26=3/3(2);
 2/9=110/2;
 99//99;
 2/9=110/2;
 3/5=1,6=6,7=11,11=2,16=1,25=1,30=1,71=1,74=-55/1,2,3;
 4/5=5,16=3,69=1/1;
 5/5=2,38=5/2;
 7//1,2,3,16;
 1/14=-1,18=20,19=15,26=3/3(-5);
 2/9=110/2;
 6/7=2,8=2,9=2,10=2,19=2,28=1/1;
 99/9=1/99;
 -----------------------
 pyridine-3-carbonitrile
 -----------------------
 Symbolic Z-matrix:
 Charge =  0 Multiplicity = 1
 C                     1.652    -0.6227    2.8997 
 C                     1.3879   -0.0684    1.6522 
 C                     0.2265   -0.4197    0.9733 
 C                    -0.6317   -1.3224    1.5803 
 N                    -0.4092   -1.8816    2.7908 
 C                     0.7299   -1.5161    3.4206 
 C                    -0.0721    0.1325   -0.3077 
 N                    -0.3158    0.5832   -1.3532 
 H                     2.5513   -0.3639    3.447 
 H                     2.0964    0.6352    1.222 
 H                    -1.555    -1.6384    1.1027 
 H                     0.8895   -1.9762    4.3902 
 

 GradGradGradGradGradGradGradGradGradGradGradGradGradGradGradGradGradGrad
 Berny optimization.
 Initialization pass.
                           ----------------------------
                           !    Initial Parameters    !
                           ! (Angstroms and Degrees)  !
 --------------------------                            --------------------------
 ! Name  Definition              Value          Derivative Info.                !
 --------------------------------------------------------------------------------
 ! R1    R(1,2)                  1.3904         estimate D2E/DX2                !
 ! R2    R(1,6)                  1.3856         estimate D2E/DX2                !
 ! R3    R(1,9)                  1.0841         estimate D2E/DX2                !
 ! R4    R(2,3)                  1.3904         estimate D2E/DX2                !
 ! R5    R(2,10)                 1.0872         estimate D2E/DX2                !
 ! R6    R(3,4)                  1.3856         estimate D2E/DX2                !
 ! R7    R(3,7)                  1.4266         estimate D2E/DX2                !
 ! R8    R(4,5)                  1.3519         estimate D2E/DX2                !
 ! R9    R(4,11)                 1.0865         estimate D2E/DX2                !
 ! R10   R(5,6)                  1.352          estimate D2E/DX2                !
 ! R11   R(6,12)                 1.085          estimate D2E/DX2                !
 ! R12   R(7,8)                  1.1643         estimate D2E/DX2                !
 ! A1    A(2,1,6)              117.9014         estimate D2E/DX2                !
 ! A2    A(2,1,9)              121.021          estimate D2E/DX2                !
 ! A3    A(6,1,9)              121.0776         estimate D2E/DX2                !
 ! A4    A(1,2,3)              119.7376         estimate D2E/DX2                !
 ! A5    A(1,2,10)             119.2894         estimate D2E/DX2                !
 ! A6    A(3,2,10)             120.973          estimate D2E/DX2                !
 ! A7    A(2,3,4)              117.9094         estimate D2E/DX2                !
 ! A8    A(2,3,7)              121.0311         estimate D2E/DX2                !
 ! A9    A(4,3,7)              121.0594         estimate D2E/DX2                !
 ! A10   A(3,4,5)              124.0438         estimate D2E/DX2                !
 ! A11   A(3,4,11)             121.5516         estimate D2E/DX2                !
 ! A12   A(5,4,11)             114.4046         estimate D2E/DX2                !
 ! A13   A(4,5,6)              116.3579         estimate D2E/DX2                !
 ! A14   A(1,6,5)              124.0499         estimate D2E/DX2                !
 ! A15   A(1,6,12)             120.7628         estimate D2E/DX2                !
 ! A16   A(5,6,12)             115.1873         estimate D2E/DX2                !
 ! A17   L(3,7,8,10,-1)        179.9993         estimate D2E/DX2                !
 ! A18   L(3,7,8,10,-2)        180.0006         estimate D2E/DX2                !
 ! D1    D(6,1,2,3)             -0.0155         estimate D2E/DX2                !
 ! D2    D(6,1,2,10)          -179.9895         estimate D2E/DX2                !
 ! D3    D(9,1,2,3)            179.9682         estimate D2E/DX2                !
 ! D4    D(9,1,2,10)            -0.0058         estimate D2E/DX2                !
 ! D5    D(2,1,6,5)              0.0174         estimate D2E/DX2                !
 ! D6    D(2,1,6,12)          -179.9999         estimate D2E/DX2                !
 ! D7    D(9,1,6,5)           -179.9663         estimate D2E/DX2                !
 ! D8    D(9,1,6,12)             0.0164         estimate D2E/DX2                !
 ! D9    D(1,2,3,4)              0.0032         estimate D2E/DX2                !
 ! D10   D(1,2,3,7)            179.9787         estimate D2E/DX2                !
 ! D11   D(10,2,3,4)           179.9768         estimate D2E/DX2                !
 ! D12   D(10,2,3,7)            -0.0477         estimate D2E/DX2                !
 ! D13   D(2,3,4,5)              0.0091         estimate D2E/DX2                !
 ! D14   D(2,3,4,11)          -179.9678         estimate D2E/DX2                !
 ! D15   D(7,3,4,5)           -179.9663         estimate D2E/DX2                !
 ! D16   D(7,3,4,11)             0.0567         estimate D2E/DX2                !
 ! D17   D(3,4,5,6)             -0.008          estimate D2E/DX2                !
 ! D18   D(11,4,5,6)           179.9705         estimate D2E/DX2                !
 ! D19   D(4,5,6,1)             -0.0057         estimate D2E/DX2                !
 ! D20   D(4,5,6,12)          -179.9894         estimate D2E/DX2                !
 --------------------------------------------------------------------------------
 Trust Radius=3.00D-01 FncErr=1.00D-07 GrdErr=1.00D-06
 Number of steps in this run=     60 maximum allowed number of steps=    100.
 GradGradGradGradGradGradGradGradGradGradGradGradGradGradGradGradGradGrad

                          Input orientation:                          
 ---------------------------------------------------------------------
 Center     Atomic      Atomic             Coordinates (Angstroms)
 Number     Number       Type             X           Y           Z
 ---------------------------------------------------------------------
      1          6           0        1.652000   -0.622700    2.899700
      2          6           0        1.387900   -0.068400    1.652200
      3          6           0        0.226500   -0.419700    0.973300
      4          6           0       -0.631700   -1.322400    1.580300
      5          7           0       -0.409200   -1.881600    2.790800
      6          6           0        0.729900   -1.516100    3.420600
      7          6           0       -0.072100    0.132500   -0.307700
      8          7           0       -0.315800    0.583200   -1.353200
      9          1           0        2.551300   -0.363900    3.447000
     10          1           0        2.096400    0.635200    1.222000
     11          1           0       -1.555000   -1.638400    1.102700
     12          1           0        0.889500   -1.976200    4.390200
 ---------------------------------------------------------------------
                    Distance matrix (angstroms):
                    1          2          3          4          5
     1  C    0.000000
     2  C    1.390415   0.000000
     3  C    2.405052   1.390384   0.000000
     4  C    2.728678   2.378333   1.385577   0.000000
     5  N    2.417692   2.795295   2.417555   1.351858   0.000000
     6  C    1.385557   2.378243   2.728513   2.297429   1.351957
     7  C    3.718906   2.452176   1.426551   2.448353   3.710921
     8  N    4.838759   3.515623   2.590849   3.512339   4.822520
     9  H    1.084092   2.159196   3.395144   3.812451   3.390954
    10  H    2.143474   1.087243   2.161294   3.376849   3.882454
    11  H    3.813883   3.380460   2.162340   1.086481   2.054674
    12  H    2.152895   3.374129   3.812803   3.261448   2.062438
                    6          7          8          9         10
     6  C    0.000000
     7  C    4.154673   0.000000
     8  N    5.318808   1.164298   0.000000
     9  H    2.155402   4.607213   5.670907   0.000000
    10  H    3.365896   2.700941   3.528890   2.481080   0.000000
    11  H    3.257052   2.706346   3.535897   4.897121   4.303047
    12  H    1.085029   5.238469   6.402337   2.500143   4.279429
                   11         12
    11  H    0.000000
    12  H    4.110638   0.000000
 Stoichiometry    C6H4N2
 Framework group  C1[X(C6H4N2)]
 Deg. of freedom    30
 Full point group                 C1      NOp   1
 Largest Abelian subgroup         C1      NOp   1
 Largest concise Abelian subgroup C1      NOp   1
                         Standard orientation:                         
 ---------------------------------------------------------------------
 Center     Atomic      Atomic             Coordinates (Angstroms)
 Number     Number       Type             X           Y           Z
 ---------------------------------------------------------------------
      1          6           0       -1.513223    1.161613   -0.000023
      2          6           0       -0.123279    1.197805    0.000108
      3          6           0        0.597583    0.008888    0.000281
      4          6           0       -0.113166   -1.180506    0.000249
      5          7           0       -1.462939   -1.255556   -0.000121
      6          6           0       -2.129503   -0.079342   -0.000305
      7          6           0        2.024126    0.013820   -0.000036
      8          7           0        3.188417    0.017858   -0.000305
      9          1           0       -2.095905    2.075799    0.000356
     10          1           0        0.383760    2.159579    0.000502
     11          1           0        0.389979   -2.143463    0.000897
     12          1           0       -3.211402   -0.161696   -0.000418
 ---------------------------------------------------------------------
 Rotational constants (GHZ):      5.8840040      1.5646495      1.2359824
 Standard basis: 6-31+G(d) (6D, 7F)
 There are   160 symmetry adapted cartesian basis functions of A   symmetry.
 There are   160 symmetry adapted basis functions of A   symmetry.
   160 basis functions,   272 primitive gaussians,   160 cartesian basis functions
    27 alpha electrons       27 beta electrons
       nuclear repulsion energy       302.5888333733 Hartrees.
 NAtoms=   12 NActive=   12 NUniq=   12 SFac= 1.00D+00 NAtFMM=   60 NAOKFM=F Big=F
 Integral buffers will be    131072 words long.
 Raffenetti 2 integral format.
 Two-electron integral symmetry is turned on.
 One-electron integrals computed using PRISM.
 NBasis=   160 RedAO= T EigKep=  9.08D-06  NBF=   160
 NBsUse=   160 1.00D-06 EigRej= -1.00D+00 NBFU=   160
 ExpMin= 4.38D-02 ExpMax= 4.17D+03 ExpMxC= 6.27D+02 IAcc=2 IRadAn=         4 AccDes= 0.00D+00
 Harris functional with IExCor= 1009 and IRadAn=       4 diagonalized for initial guess.
 HarFok:  IExCor= 1009 AccDes= 0.00D+00 IRadAn=         4 IDoV= 1 UseB2=F ITyADJ=14
 ICtDFT=  3500011 ScaDFX=  1.000000  1.000000  1.000000  1.000000
 FoFCou: FMM=F IPFlag=           0 FMFlag=      100000 FMFlg1=           0
         NFxFlg=           0 DoJE=T BraDBF=F KetDBF=T FulRan=T
         wScrn=  0.000000 ICntrl=     500 IOpCl=  0 I1Cent=   200000004 NGrid=           0
         NMat0=    1 NMatS0=      1 NMatT0=    0 NMatD0=    1 NMtDS0=    0 NMtDT0=    0
 Petite list used in FoFCou.
 Requested convergence on RMS density matrix=1.00D-08 within 128 cycles.
 Requested convergence on MAX density matrix=1.00D-06.
 Requested convergence on             energy=1.00D-06.
 No special actions if energy rises.
 SCF Done:  E(RM062X) =  -340.393781875     A.U. after   14 cycles
            NFock= 14  Conv=0.63D-08     -V/T= 2.0087

 **********************************************************************

            Population analysis using the SCF density.

 **********************************************************************

 Orbital symmetries:
       Occupied  (A) (A) (A) (A) (A) (A) (A) (A) (A) (A) (A) (A)
                 (A) (A) (A) (A) (A) (A) (A) (A) (A) (A) (A) (A)
                 (A) (A) (A)
       Virtual   (A) (A) (A) (A) (A) (A) (A) (A) (A) (A) (A) (A)
                 (A) (A) (A) (A) (A) (A) (A) (A) (A) (A) (A) (A)
                 (A) (A) (A) (A) (A) (A) (A) (A) (A) (A) (A) (A)
                 (A) (A) (A) (A) (A) (A) (A) (A) (A) (A) (A) (A)
                 (A) (A) (A) (A) (A) (A) (A) (A) (A) (A) (A) (A)
                 (A) (A) (A) (A) (A) (A) (A) (A) (A) (A) (A) (A)
                 (A) (A) (A) (A) (A) (A) (A) (A) (A) (A) (A) (A)
                 (A) (A) (A) (A) (A) (A) (A) (A) (A) (A) (A) (A)
                 (A) (A) (A) (A) (A) (A) (A) (A) (A) (A) (A) (A)
                 (A) (A) (A) (A) (A) (A) (A) (A) (A) (A) (A) (A)
                 (A) (A) (A) (A) (A) (A) (A) (A) (A) (A) (A) (A)
                 (A)
 The electronic state is 1-A.
 Alpha  occ. eigenvalues --  -14.79823 -14.78937 -10.62585 -10.62217 -10.62049
 Alpha  occ. eigenvalues --  -10.61162 -10.61060 -10.59456  -1.08426  -1.03053
 Alpha  occ. eigenvalues --   -0.94999  -0.90603  -0.77302  -0.75410  -0.66551
 Alpha  occ. eigenvalues --   -0.61039  -0.59180  -0.54416  -0.51390  -0.50323
 Alpha  occ. eigenvalues --   -0.47303  -0.45329  -0.44398  -0.41990  -0.37204
 Alpha  occ. eigenvalues --   -0.35762  -0.34415
 Alpha virt. eigenvalues --   -0.04286  -0.02458   0.00308   0.02267   0.02645
 Alpha virt. eigenvalues --    0.03935   0.04550   0.04893   0.05636   0.06036
 Alpha virt. eigenvalues --    0.07484   0.08168   0.08184   0.08308   0.09844
 Alpha virt. eigenvalues --    0.11904   0.12779   0.12970   0.13872   0.14135
 Alpha virt. eigenvalues --    0.15206   0.15276   0.16830   0.18525   0.19199
 Alpha virt. eigenvalues --    0.20230   0.21166   0.21477   0.22511   0.24066
 Alpha virt. eigenvalues --    0.24115   0.24948   0.25377   0.26599   0.27243
 Alpha virt. eigenvalues --    0.27780   0.28718   0.28775   0.30057   0.31750
 Alpha virt. eigenvalues --    0.32557   0.35382   0.35639   0.36832   0.39618
 Alpha virt. eigenvalues --    0.42521   0.57135   0.58731   0.67807   0.69503
 Alpha virt. eigenvalues --    0.69720   0.70808   0.73298   0.74248   0.75327
 Alpha virt. eigenvalues --    0.75782   0.77844   0.79073   0.82786   0.83147
 Alpha virt. eigenvalues --    0.88571   0.91743   0.94153   0.95059   0.98617
 Alpha virt. eigenvalues --    0.99058   1.01228   1.04551   1.05000   1.06558
 Alpha virt. eigenvalues --    1.08039   1.08548   1.10929   1.12817   1.14707
 Alpha virt. eigenvalues --    1.18501   1.20167   1.23249   1.23935   1.25746
 Alpha virt. eigenvalues --    1.26469   1.34471   1.35372   1.43079   1.44784
 Alpha virt. eigenvalues --    1.48013   1.50554   1.52748   1.53589   1.56700
 Alpha virt. eigenvalues --    1.58489   1.68500   1.77429   1.80627   1.82817
 Alpha virt. eigenvalues --    1.88794   1.89310   1.96183   1.97819   1.99956
 Alpha virt. eigenvalues --    2.03550   2.11190   2.14496   2.14546   2.18231
 Alpha virt. eigenvalues --    2.21021   2.22885   2.25174   2.29591   2.32036
 Alpha virt. eigenvalues --    2.37872   2.49379   2.56801   2.63009   2.67473
 Alpha virt. eigenvalues --    2.67872   2.76108   2.79877   2.80282   2.82975
 Alpha virt. eigenvalues --    2.92484   3.07729   3.17210   3.23547   3.44691
 Alpha virt. eigenvalues --    4.16797   4.23201   4.26191   4.29745   4.35713
 Alpha virt. eigenvalues --    4.40450   4.55473   4.78693
          Condensed to atoms (all electrons):
               1          2          3          4          5          6
     1  C    5.358862   0.408846   0.217448  -0.334419   0.070438   0.129337
     2  C    0.408846   5.948699   0.273150  -0.516933  -0.052848  -0.141372
     3  C    0.217448   0.273150   6.347161  -0.373669   0.180119  -0.085755
     4  C   -0.334419  -0.516933  -0.373669   6.612647   0.098031   0.158485
     5  N    0.070438  -0.052848   0.180119   0.098031   6.757855   0.234406
     6  C    0.129337  -0.141372  -0.085755   0.158485   0.234406   5.597598
     7  C   -0.145185  -0.149511  -1.508881   0.365499  -0.005240  -0.070198
     8  N    0.003623  -0.003607   0.195335   0.008121  -0.001001   0.008338
     9  H    0.306692  -0.017783   0.002440  -0.009470   0.002058   0.033250
    10  H    0.039183   0.208949   0.059137   0.004740   0.001134  -0.013882
    11  H   -0.015442   0.020058  -0.097847   0.407156  -0.074285   0.025957
    12  H   -0.096270   0.022099  -0.006601   0.024632  -0.079182   0.414770
               7          8          9         10         11         12
     1  C   -0.145185   0.003623   0.306692   0.039183  -0.015442  -0.096270
     2  C   -0.149511  -0.003607  -0.017783   0.208949   0.020058   0.022099
     3  C   -1.508881   0.195335   0.002440   0.059137  -0.097847  -0.006601
     4  C    0.365499   0.008121  -0.009470   0.004740   0.407156   0.024632
     5  N   -0.005240  -0.001001   0.002058   0.001134  -0.074285  -0.079182
     6  C   -0.070198   0.008338   0.033250  -0.013882   0.025957   0.414770
     7  C    7.898317   0.069946  -0.003373   0.001131   0.015186   0.003213
     8  N    0.069946   7.166601   0.000023   0.000919   0.002334  -0.000004
     9  H   -0.003373   0.000023   0.457739  -0.003367   0.000018  -0.001533
    10  H    0.001131   0.000919  -0.003367   0.456319  -0.000111  -0.000115
    11  H    0.015186   0.002334   0.000018  -0.000111   0.481618   0.000007
    12  H    0.003213  -0.000004  -0.001533  -0.000115   0.000007   0.499936
 Mulliken charges:
               1
     1  C    0.056888
     2  C    0.000253
     3  C    0.797963
     4  C   -0.444819
     5  N   -0.131486
     6  C   -0.290936
     7  C   -0.470904
     8  N   -0.450628
     9  H    0.233307
    10  H    0.245963
    11  H    0.235351
    12  H    0.219048
 Sum of Mulliken charges =   0.00000
 Mulliken charges with hydrogens summed into heavy atoms:
               1
     1  C    0.290194
     2  C    0.246216
     3  C    0.797963
     4  C   -0.209468
     5  N   -0.131486
     6  C   -0.071888
     7  C   -0.470904
     8  N   -0.450628
 Electronic spatial extent (au):  <R**2>=            890.5488
 Charge=              0.0000 electrons
 Dipole moment (field-independent basis, Debye):
    X=             -3.3424    Y=              2.1050    Z=              0.0015  Tot=              3.9500
 Quadrupole moment (field-independent basis, Debye-Ang):
   XX=            -56.6447   YY=            -42.9054   ZZ=            -47.6852
   XY=             -4.9963   XZ=              0.0021   YZ=             -0.0001
 Traceless Quadrupole moment (field-independent basis, Debye-Ang):
   XX=             -7.5663   YY=              6.1730   ZZ=              1.3933
   XY=             -4.9963   XZ=              0.0021   YZ=             -0.0001
 Octapole moment (field-independent basis, Debye-Ang**2):
  XXX=            -71.5025  YYY=             10.3310  ZZZ=              0.0004  XYY=              5.4394
  XXY=              8.8559  XXZ=              0.0056  XZZ=              0.9660  YZZ=             -1.0750
  YYZ=              0.0085  XYZ=             -0.0018
 Hexadecapole moment (field-independent basis, Debye-Ang**3):
 XXXX=          -1042.0858 YYYY=           -267.5161 ZZZZ=            -52.4197 XXXY=            -17.6296
 XXXZ=              0.0264 YYYX=            -24.4514 YYYZ=             -0.0002 ZZZX=             -0.0007
 ZZZY=              0.0006 XXYY=           -203.5414 XXZZ=           -164.4529 YYZZ=            -60.7453
 XXYZ=              0.0042 YYXZ=             -0.0022 ZZXY=              0.9691
 N-N= 3.025888333733D+02 E-N=-1.394344034676D+03  KE= 3.374671694559D+02
 Calling FoFJK, ICntrl=      2127 FMM=F ISym2X=0 I1Cent= 0 IOpClX= 0 NMat=1 NMatS=1 NMatT=0.
 ***** Axes restored to original set *****
 -------------------------------------------------------------------
 Center     Atomic                   Forces (Hartrees/Bohr)
 Number     Number              X              Y              Z
 -------------------------------------------------------------------
      1        6          -0.000809519    0.003361142   -0.006716227
      2        6           0.013983446    0.006141444    0.004800574
      3        6           0.005687004    0.001604336    0.003616528
      4        6          -0.010555149   -0.020002682    0.022764132
      5        7           0.013131900    0.014873023   -0.011134268
      6        6          -0.017188418   -0.009585924   -0.002514919
      7        6          -0.006197950    0.009230004   -0.022803303
      8        7           0.003664575   -0.006543302    0.015324537
      9        1          -0.000003276   -0.000102870    0.000213295
     10        1          -0.002144681   -0.000114396   -0.002136689
     11        1           0.000242862    0.001793139   -0.002768739
     12        1           0.000189206   -0.000653913    0.001355080
 -------------------------------------------------------------------
 Cartesian Forces:  Max     0.022803303 RMS     0.009515366

 GradGradGradGradGradGradGradGradGradGradGradGradGradGradGradGradGradGrad
 Berny optimization.
 FormGI is forming the generalized inverse of G from B-inverse, IUseBI=4.
 Internal  Forces:  Max     0.018233405 RMS     0.005165645
 Search for a local minimum.
 Step number   1 out of a maximum of   60
 All quantities printed in internal units (Hartrees-Bohrs-Radians)
 Mixed Optimization -- RFO/linear search
 Second derivative matrix not updated -- first step.
 ITU=  0
     Eigenvalues ---    0.02216   0.02230   0.02245   0.02252   0.02273
     Eigenvalues ---    0.02292   0.02295   0.02315   0.04810   0.04810
     Eigenvalues ---    0.16000   0.16000   0.16000   0.16000   0.22000
     Eigenvalues ---    0.23178   0.23454   0.25000   0.35133   0.35223
     Eigenvalues ---    0.35393   0.35504   0.41489   0.43606   0.44782
     Eigenvalues ---    0.47444   0.48097   0.52843   0.53955   1.25022
 RFO step:  Lambda=-2.72066623D-03 EMin= 2.21575818D-02
 Linear search not attempted -- first point.
 Iteration  1 RMS(Cart)=  0.01178677 RMS(Int)=  0.00009402
 Iteration  2 RMS(Cart)=  0.00013427 RMS(Int)=  0.00001379
 Iteration  3 RMS(Cart)=  0.00000000 RMS(Int)=  0.00001379
 Variable       Old X    -DE/DX   Delta X   Delta X   Delta X     New X
                                 (Linear)    (Quad)   (Total)
    R1        2.62750  -0.00283   0.00000  -0.00452  -0.00451   2.62300
    R2        2.61832   0.00838   0.00000   0.01667   0.01669   2.63502
    R3        2.04864   0.00008   0.00000   0.00023   0.00023   2.04887
    R4        2.62744   0.00572   0.00000   0.01405   0.01404   2.64149
    R5        2.05459  -0.00062   0.00000  -0.00176  -0.00176   2.05283
    R6        2.61836   0.01259   0.00000   0.02653   0.02651   2.64487
    R7        2.69579   0.00828   0.00000   0.01984   0.01984   2.71563
    R8        2.55464  -0.01823   0.00000  -0.03442  -0.03443   2.52021
    R9        2.05315   0.00049   0.00000   0.00137   0.00137   2.05452
   R10        2.55483  -0.01344   0.00000  -0.02622  -0.02621   2.52862
   R11        2.05041   0.00152   0.00000   0.00425   0.00425   2.05466
   R12        2.20020  -0.01706   0.00000  -0.01362  -0.01362   2.18659
    A1        2.05777   0.00163   0.00000   0.01034   0.01038   2.06815
    A2        2.11221  -0.00060   0.00000  -0.00386  -0.00388   2.10834
    A3        2.11320  -0.00103   0.00000  -0.00648  -0.00650   2.10670
    A4        2.08982  -0.00773   0.00000  -0.02603  -0.02603   2.06379
    A5        2.08199   0.00692   0.00000   0.03180   0.03180   2.11379
    A6        2.11138   0.00081   0.00000  -0.00577  -0.00577   2.10561
    A7        2.05791   0.00208   0.00000   0.01423   0.01420   2.07211
    A8        2.11239   0.00018   0.00000  -0.00226  -0.00225   2.11014
    A9        2.11289  -0.00227   0.00000  -0.01197  -0.01195   2.10093
   A10        2.16497  -0.00254   0.00000  -0.01213  -0.01217   2.15280
   A11        2.12148  -0.00207   0.00000  -0.01449  -0.01447   2.10700
   A12        1.99674   0.00462   0.00000   0.02662   0.02664   2.02338
   A13        2.03083   0.00586   0.00000   0.01480   0.01480   2.04562
   A14        2.16508   0.00069   0.00000  -0.00121  -0.00118   2.16390
   A15        2.10771  -0.00033   0.00000   0.00073   0.00071   2.10842
   A16        2.01040  -0.00037   0.00000   0.00049   0.00047   2.01087
   A17        3.14158  -0.00020   0.00000  -0.00402  -0.00402   3.13756
   A18        3.14160   0.00000   0.00000   0.00009   0.00009   3.14170
    D1       -0.00027   0.00001   0.00000   0.00028   0.00028   0.00001
    D2       -3.14141   0.00000   0.00000  -0.00021  -0.00022   3.14156
    D3        3.14104   0.00001   0.00000   0.00058   0.00058  -3.14157
    D4       -0.00010   0.00000   0.00000   0.00008   0.00008  -0.00003
    D5        0.00030   0.00000   0.00000  -0.00021  -0.00021   0.00009
    D6       -3.14159   0.00001   0.00000   0.00024   0.00024  -3.14135
    D7       -3.14100  -0.00001   0.00000  -0.00050  -0.00050  -3.14151
    D8        0.00029   0.00000   0.00000  -0.00005  -0.00005   0.00023
    D9        0.00006   0.00000   0.00000  -0.00019  -0.00019  -0.00014
   D10        3.14122   0.00000   0.00000   0.00015   0.00015   3.14138
   D11        3.14119   0.00001   0.00000   0.00032   0.00032   3.14151
   D12       -0.00083   0.00002   0.00000   0.00067   0.00066  -0.00017
   D13        0.00016   0.00000   0.00000   0.00001   0.00001   0.00017
   D14       -3.14103  -0.00001   0.00000  -0.00043  -0.00043  -3.14146
   D15       -3.14101  -0.00001   0.00000  -0.00033  -0.00033  -3.14134
   D16        0.00099  -0.00002   0.00000  -0.00077  -0.00077   0.00022
   D17       -0.00014   0.00000   0.00000   0.00007   0.00007  -0.00007
   D18        3.14108   0.00001   0.00000   0.00047   0.00048   3.14156
   D19       -0.00010   0.00000   0.00000   0.00003   0.00003  -0.00007
   D20       -3.14141  -0.00001   0.00000  -0.00039  -0.00039   3.14139
         Item               Value     Threshold  Converged?
 Maximum Force            0.018233     0.000450     NO 
 RMS     Force            0.005166     0.000300     NO 
 Maximum Displacement     0.035279     0.001800     NO 
 RMS     Displacement     0.011787     0.001200     NO 
 Predicted change in Energy=-1.370197D-03
 GradGradGradGradGradGradGradGradGradGradGradGradGradGradGradGradGradGrad

                          Input orientation:                          
 ---------------------------------------------------------------------
 Center     Atomic      Atomic             Coordinates (Angstroms)
 Number     Number       Type             X           Y           Z
 ---------------------------------------------------------------------
      1          6           0        1.652710   -0.620730    2.896842
      2          6           0        1.406569   -0.056831    1.652632
      3          6           0        0.234877   -0.419366    0.982114
      4          6           0       -0.634506   -1.331003    1.592020
      5          7           0       -0.404329   -1.876545    2.787007
      6          6           0        0.721365   -1.519275    3.416014
      7          6           0       -0.076832    0.129886   -0.308727
      8          7           0       -0.323906    0.574682   -1.347945
      9          1           0        2.548597   -0.368786    3.453108
     10          1           0        2.103395    0.648056    1.208068
     11          1           0       -1.554663   -1.635684    1.099579
     12          1           0        0.876424   -1.982905    4.387189
 ---------------------------------------------------------------------
                    Distance matrix (angstroms):
                    1          2          3          4          5
     1  C    0.000000
     2  C    1.388030   0.000000
     3  C    2.391021   1.397815   0.000000
     4  C    2.727344   2.406901   1.399605   0.000000
     5  N    2.412580   2.806691   2.406157   1.333638   0.000000
     6  C    1.394391   2.391185   2.714837   2.280523   1.338087
     7  C    3.718926   2.466225   1.437049   2.461308   3.703591
     8  N    4.832622   3.520910   2.594136   3.517314   4.807578
     9  H    1.084214   2.154822   3.385509   3.810728   3.381833
    10  H    2.159836   1.086309   2.163747   3.400028   3.892985
    11  H    3.814122   3.401109   2.166952   1.087207   2.056380
    12  H    2.163163   3.386535   3.801417   3.243586   2.052370
                    6          7          8          9         10
     6  C    0.000000
     7  C    4.150969   0.000000
     8  N    5.307782   1.157092   0.000000
     9  H    2.159578   4.614428   5.673756   0.000000
    10  H    3.388562   2.706021   3.525673   2.504472   0.000000
    11  H    3.249574   2.698990   3.520064   4.897027   4.313771
    12  H    1.087279   5.236812   6.393262   2.504805   4.305139
                   11         12
    11  H    0.000000
    12  H    4.103551   0.000000
 Stoichiometry    C6H4N2
 Framework group  C1[X(C6H4N2)]
 Deg. of freedom    30
 Full point group                 C1      NOp   1
 Largest Abelian subgroup         C1      NOp   1
 Largest concise Abelian subgroup C1      NOp   1
                         Standard orientation:                         
 ---------------------------------------------------------------------
 Center     Atomic      Atomic             Coordinates (Angstroms)
 Number     Number       Type             X           Y           Z
 ---------------------------------------------------------------------
      1          6           0       -1.509707    1.161251   -0.000012
      2          6           0       -0.122889    1.219231    0.000132
      3          6           0        0.589507    0.016575    0.000128
      4          6           0       -0.123715   -1.187670    0.000146
      5          7           0       -1.455862   -1.250728   -0.000025
      6          6           0       -2.123201   -0.090928   -0.000138
      7          6           0        2.026541    0.010008    0.000004
      8          7           0        3.183633    0.009386   -0.000190
      9          1           0       -2.103268    2.068558   -0.000037
     10          1           0        0.399069    2.171926    0.000200
     11          1           0        0.397408   -2.141845    0.000269
     12          1           0       -3.206822   -0.180045   -0.000480
 ---------------------------------------------------------------------
 Rotational constants (GHZ):      5.8369249      1.5700696      1.2372601
 Standard basis: 6-31+G(d) (6D, 7F)
 There are   160 symmetry adapted cartesian basis functions of A   symmetry.
 There are   160 symmetry adapted basis functions of A   symmetry.
   160 basis functions,   272 primitive gaussians,   160 cartesian basis functions
    27 alpha electrons       27 beta electrons
       nuclear repulsion energy       302.6756821054 Hartrees.
 NAtoms=   12 NActive=   12 NUniq=   12 SFac= 1.00D+00 NAtFMM=   60 NAOKFM=F Big=F
 Integral buffers will be    131072 words long.
 Raffenetti 2 integral format.
 Two-electron integral symmetry is turned on.
 One-electron integrals computed using PRISM.
 NBasis=   160 RedAO= T EigKep=  9.31D-06  NBF=   160
 NBsUse=   160 1.00D-06 EigRej= -1.00D+00 NBFU=   160
 Initial guess from the checkpoint file:  "/srv/scratch/z5358697/gauss/Gau-4005044.chk"
 B after Tr=     0.000000    0.000000    0.000000
         Rot=    1.000000    0.000001    0.000000    0.000171 Ang=   0.02 deg.
 ExpMin= 4.38D-02 ExpMax= 4.17D+03 ExpMxC= 6.27D+02 IAcc=2 IRadAn=         4 AccDes= 0.00D+00
 Harris functional with IExCor= 1009 and IRadAn=       4 diagonalized for initial guess.
 HarFok:  IExCor= 1009 AccDes= 0.00D+00 IRadAn=         4 IDoV= 1 UseB2=F ITyADJ=14
 ICtDFT=  3500011 ScaDFX=  1.000000  1.000000  1.000000  1.000000
 FoFCou: FMM=F IPFlag=           0 FMFlag=      100000 FMFlg1=           0
         NFxFlg=           0 DoJE=T BraDBF=F KetDBF=T FulRan=T
         wScrn=  0.000000 ICntrl=     500 IOpCl=  0 I1Cent=   200000004 NGrid=           0
         NMat0=    1 NMatS0=      1 NMatT0=    0 NMatD0=    1 NMtDS0=    0 NMtDT0=    0
 Petite list used in FoFCou.
 Requested convergence on RMS density matrix=1.00D-08 within 128 cycles.
 Requested convergence on MAX density matrix=1.00D-06.
 Requested convergence on             energy=1.00D-06.
 No special actions if energy rises.
 SCF Done:  E(RM062X) =  -340.395328291     A.U. after   13 cycles
            NFock= 13  Conv=0.24D-08     -V/T= 2.0086
 Calling FoFJK, ICntrl=      2127 FMM=F ISym2X=0 I1Cent= 0 IOpClX= 0 NMat=1 NMatS=1 NMatT=0.
 ***** Axes restored to original set *****
 -------------------------------------------------------------------
 Center     Atomic                   Forces (Hartrees/Bohr)
 Number     Number              X              Y              Z
 -------------------------------------------------------------------
      1        6          -0.000575602    0.000079982   -0.000784634
      2        6           0.001109050    0.000445661    0.000464565
      3        6           0.001161373    0.000233943    0.000875939
      4        6          -0.002141875   -0.003465975    0.003612028
      5        7           0.003304966    0.003703680   -0.002736657
      6        6          -0.002826756   -0.002136629    0.000583354
      7        6          -0.000318508   -0.000095150   -0.000192454
      8        7          -0.000183043    0.000144337   -0.000455649
      9        1           0.000027638   -0.000321884    0.000588601
     10        1          -0.000867534   -0.000213242   -0.000588513
     11        1           0.000338226    0.001076093   -0.001475503
     12        1           0.000972064    0.000549183    0.000108923
 -------------------------------------------------------------------
 Cartesian Forces:  Max     0.003703680 RMS     0.001546986

 GradGradGradGradGradGradGradGradGradGradGradGradGradGradGradGradGradGrad
 Berny optimization.
 Using GEDIIS/GDIIS optimizer.
 FormGI is forming the generalized inverse of G from B-inverse, IUseBI=4.
 Internal  Forces:  Max     0.002722034 RMS     0.000810961
 Search for a local minimum.
 Step number   2 out of a maximum of   60
 All quantities printed in internal units (Hartrees-Bohrs-Radians)
 Mixed Optimization -- En-DIIS/RFO-DIIS
 Update second derivatives using D2CorX and points    1    2
 DE= -1.55D-03 DEPred=-1.37D-03 R= 1.13D+00
 TightC=F SS=  1.41D+00  RLast= 8.50D-02 DXNew= 5.0454D-01 2.5486D-01
 Trust test= 1.13D+00 RLast= 8.50D-02 DXMaxT set to 3.00D-01
 ITU=  1  0
 Use linear search instead of GDIIS.
     Eigenvalues ---    0.02216   0.02231   0.02245   0.02251   0.02273
     Eigenvalues ---    0.02292   0.02296   0.02315   0.04810   0.04813
     Eigenvalues ---    0.14257   0.16000   0.16000   0.16155   0.21803
     Eigenvalues ---    0.22582   0.23701   0.24942   0.35105   0.35222
     Eigenvalues ---    0.35407   0.35502   0.41425   0.43683   0.44595
     Eigenvalues ---    0.47479   0.49340   0.50519   0.53938   1.27485
 RFO step:  Lambda=-1.14641458D-04 EMin= 2.21575391D-02
 Quartic linear search produced a step of  0.15195.
 Iteration  1 RMS(Cart)=  0.00602811 RMS(Int)=  0.00003178
 Iteration  2 RMS(Cart)=  0.00003589 RMS(Int)=  0.00000289
 Iteration  3 RMS(Cart)=  0.00000000 RMS(Int)=  0.00000289
 Variable       Old X    -DE/DX   Delta X   Delta X   Delta X     New X
                                 (Linear)    (Quad)   (Total)
    R1        2.62300   0.00010  -0.00068   0.00097   0.00028   2.62328
    R2        2.63502   0.00008   0.00254  -0.00169   0.00085   2.63587
    R3        2.04887   0.00025   0.00004   0.00079   0.00082   2.04969
    R4        2.64149  -0.00023   0.00213  -0.00192   0.00021   2.64170
    R5        2.05283  -0.00045  -0.00027  -0.00129  -0.00155   2.05127
    R6        2.64487   0.00034   0.00403  -0.00220   0.00183   2.64670
    R7        2.71563   0.00071   0.00301  -0.00027   0.00275   2.71837
    R8        2.52021  -0.00272  -0.00523  -0.00207  -0.00730   2.51291
    R9        2.05452   0.00008   0.00021   0.00010   0.00031   2.05483
   R10        2.52862  -0.00183  -0.00398  -0.00111  -0.00509   2.52353
   R11        2.05466   0.00000   0.00065  -0.00047   0.00017   2.05483
   R12        2.18659   0.00050  -0.00207   0.00198  -0.00009   2.18649
    A1        2.06815   0.00005   0.00158  -0.00010   0.00148   2.06963
    A2        2.10834   0.00060  -0.00059   0.00443   0.00384   2.11218
    A3        2.10670  -0.00066  -0.00099  -0.00433  -0.00532   2.10138
    A4        2.06379  -0.00063  -0.00395   0.00096  -0.00300   2.06079
    A5        2.11379   0.00132   0.00483   0.00453   0.00936   2.12315
    A6        2.10561  -0.00069  -0.00088  -0.00549  -0.00636   2.09924
    A7        2.07211   0.00044   0.00216   0.00105   0.00320   2.07531
    A8        2.11014   0.00048  -0.00034   0.00212   0.00178   2.11193
    A9        2.10093  -0.00092  -0.00182  -0.00317  -0.00499   2.09595
   A10        2.15280  -0.00103  -0.00185  -0.00417  -0.00603   2.14678
   A11        2.10700  -0.00139  -0.00220  -0.00917  -0.01137   2.09564
   A12        2.02338   0.00241   0.00405   0.01334   0.01739   2.04077
   A13        2.04562   0.00195   0.00225   0.00639   0.00864   2.05427
   A14        2.16390  -0.00079  -0.00018  -0.00413  -0.00430   2.15960
   A15        2.10842  -0.00077   0.00011  -0.00631  -0.00620   2.10222
   A16        2.01087   0.00155   0.00007   0.01044   0.01050   2.02137
   A17        3.13756   0.00022  -0.00061   0.00581   0.00520   3.14276
   A18        3.14170   0.00000   0.00001  -0.00010  -0.00009   3.14161
    D1        0.00001   0.00000   0.00004  -0.00010  -0.00006  -0.00005
    D2        3.14156   0.00000  -0.00003   0.00007   0.00004  -3.14159
    D3       -3.14157   0.00000   0.00009  -0.00019  -0.00010   3.14152
    D4       -0.00003   0.00000   0.00001  -0.00001   0.00000  -0.00003
    D5        0.00009   0.00000  -0.00003   0.00002  -0.00001   0.00008
    D6       -3.14135  -0.00001   0.00004  -0.00031  -0.00027   3.14156
    D7       -3.14151   0.00000  -0.00008   0.00010   0.00002  -3.14149
    D8        0.00023   0.00000  -0.00001  -0.00023  -0.00024   0.00000
    D9       -0.00014   0.00000  -0.00003   0.00017   0.00014   0.00001
   D10        3.14138   0.00000   0.00002   0.00018   0.00021   3.14158
   D11        3.14151   0.00000   0.00005   0.00000   0.00005   3.14155
   D12       -0.00017   0.00000   0.00010   0.00001   0.00011  -0.00006
   D13        0.00017   0.00000   0.00000  -0.00016  -0.00016   0.00001
   D14       -3.14146   0.00000  -0.00006  -0.00001  -0.00007  -3.14153
   D15       -3.14134   0.00000  -0.00005  -0.00018  -0.00023  -3.14156
   D16        0.00022   0.00000  -0.00012  -0.00002  -0.00013   0.00008
   D17       -0.00007   0.00000   0.00001   0.00008   0.00009   0.00002
   D18        3.14156   0.00000   0.00007  -0.00007   0.00000   3.14156
   D19       -0.00007   0.00000   0.00001   0.00000   0.00000  -0.00006
   D20        3.14139   0.00000  -0.00006   0.00031   0.00025  -3.14155
         Item               Value     Threshold  Converged?
 Maximum Force            0.002722     0.000450     NO 
 RMS     Force            0.000811     0.000300     NO 
 Maximum Displacement     0.021517     0.001800     NO 
 RMS     Displacement     0.006029     0.001200     NO 
 Predicted change in Energy=-8.581722D-05
 GradGradGradGradGradGradGradGradGradGradGradGradGradGradGradGradGradGrad

                          Input orientation:                          
 ---------------------------------------------------------------------
 Center     Atomic      Atomic             Coordinates (Angstroms)
 Number     Number       Type             X           Y           Z
 ---------------------------------------------------------------------
      1          6           0        1.652682   -0.621734    2.898645
      2          6           0        1.409178   -0.056090    1.654540
      3          6           0        0.237164   -0.419294    0.984717
      4          6           0       -0.634976   -1.331311    1.592332
      5          7           0       -0.401377   -1.872934    2.784128
      6          6           0        0.720436   -1.520484    3.417055
      7          6           0       -0.077830    0.128467   -0.307577
      8          7           0       -0.332346    0.568344   -1.347038
      9          1           0        2.547044   -0.373795    3.459992
     10          1           0        2.100885    0.648890    1.204177
     11          1           0       -1.551894   -1.627084    1.088192
     12          1           0        0.880735   -1.981474    4.388737
 ---------------------------------------------------------------------
                    Distance matrix (angstroms):
                    1          2          3          4          5
     1  C    0.000000
     2  C    1.388180   0.000000
     3  C    2.389100   1.397927   0.000000
     4  C    2.728247   2.410109   1.400571   0.000000
     5  N    2.407857   2.802678   2.399726   1.329775   0.000000
     6  C    1.394841   2.392754   2.713382   2.280908   1.335396
     7  C    3.719857   2.468838   1.438501   2.459882   3.697151
     8  N    4.835540   3.525946   2.595544   3.512858   4.799076
     9  H    1.084651   2.157622   3.385942   3.811855   3.376003
    10  H    2.164855   1.085488   2.159314   3.399529   3.888080
    11  H    3.815466   3.399518   2.161063   1.087372   2.064056
    12  H    2.159900   3.385585   3.800256   3.246532   2.056785
                    6          7          8          9         10
     6  C    0.000000
     7  C    4.150801   0.000000
     8  N    5.307365   1.157043   0.000000
     9  H    2.157136   4.619178   5.682081   0.000000
    10  H    3.392441   2.702413   3.526442   2.516674   0.000000
    11  H    3.255526   2.683840   3.498220   4.898720   4.305381
    12  H    1.087370   5.236990   6.393140   2.494751   4.306856
                   11         12
    11  H    0.000000
    12  H    4.115443   0.000000
 Stoichiometry    C6H4N2
 Framework group  C1[X(C6H4N2)]
 Deg. of freedom    30
 Full point group                 C1      NOp   1
 Largest Abelian subgroup         C1      NOp   1
 Largest concise Abelian subgroup C1      NOp   1
                         Standard orientation:                         
 ---------------------------------------------------------------------
 Center     Atomic      Atomic             Coordinates (Angstroms)
 Number     Number       Type             X           Y           Z
 ---------------------------------------------------------------------
      1          6           0       -1.514573    1.156731    0.000004
      2          6           0       -0.127934    1.222120    0.000004
      3          6           0        0.587331    0.021040    0.000015
      4          6           0       -0.119693   -1.187975    0.000018
      5          7           0       -1.448011   -1.250207   -0.000001
      6          6           0       -2.123429   -0.098211   -0.000043
      7          6           0        2.025821    0.015265    0.000002
      8          7           0        3.182848    0.009266   -0.000024
      9          1           0       -2.116679    2.058914    0.000064
     10          1           0        0.397454    2.171989    0.000040
     11          1           0        0.417571   -2.133345    0.000087
     12          1           0       -3.207346   -0.184794   -0.000017
 ---------------------------------------------------------------------
 Rotational constants (GHZ):      5.8440950      1.5709776      1.2381460
 Standard basis: 6-31+G(d) (6D, 7F)
 There are   160 symmetry adapted cartesian basis functions of A   symmetry.
 There are   160 symmetry adapted basis functions of A   symmetry.
   160 basis functions,   272 primitive gaussians,   160 cartesian basis functions
    27 alpha electrons       27 beta electrons
       nuclear repulsion energy       302.7882222935 Hartrees.
 NAtoms=   12 NActive=   12 NUniq=   12 SFac= 1.00D+00 NAtFMM=   60 NAOKFM=F Big=F
 Integral buffers will be    131072 words long.
 Raffenetti 2 integral format.
 Two-electron integral symmetry is turned on.
 One-electron integrals computed using PRISM.
 NBasis=   160 RedAO= T EigKep=  9.26D-06  NBF=   160
 NBsUse=   160 1.00D-06 EigRej= -1.00D+00 NBFU=   160
 Initial guess from the checkpoint file:  "/srv/scratch/z5358697/gauss/Gau-4005044.chk"
 B after Tr=     0.000000    0.000000    0.000000
         Rot=    0.999999    0.000000    0.000000   -0.001110 Ang=   0.13 deg.
 ExpMin= 4.38D-02 ExpMax= 4.17D+03 ExpMxC= 6.27D+02 IAcc=2 IRadAn=         4 AccDes= 0.00D+00
 Harris functional with IExCor= 1009 and IRadAn=       4 diagonalized for initial guess.
 HarFok:  IExCor= 1009 AccDes= 0.00D+00 IRadAn=         4 IDoV= 1 UseB2=F ITyADJ=14
 ICtDFT=  3500011 ScaDFX=  1.000000  1.000000  1.000000  1.000000
 FoFCou: FMM=F IPFlag=           0 FMFlag=      100000 FMFlg1=           0
         NFxFlg=           0 DoJE=T BraDBF=F KetDBF=T FulRan=T
         wScrn=  0.000000 ICntrl=     500 IOpCl=  0 I1Cent=   200000004 NGrid=           0
         NMat0=    1 NMatS0=      1 NMatT0=    0 NMatD0=    1 NMtDS0=    0 NMtDT0=    0
 Petite list used in FoFCou.
 Requested convergence on RMS density matrix=1.00D-08 within 128 cycles.
 Requested convergence on MAX density matrix=1.00D-06.
 Requested convergence on             energy=1.00D-06.
 No special actions if energy rises.
 SCF Done:  E(RM062X) =  -340.395414181     A.U. after   11 cycles
            NFock= 11  Conv=0.92D-08     -V/T= 2.0086
 Calling FoFJK, ICntrl=      2127 FMM=F ISym2X=0 I1Cent= 0 IOpClX= 0 NMat=1 NMatS=1 NMatT=0.
 ***** Axes restored to original set *****
 -------------------------------------------------------------------
 Center     Atomic                   Forces (Hartrees/Bohr)
 Number     Number              X              Y              Z
 -------------------------------------------------------------------
      1        6           0.000239011    0.000203559   -0.000082932
      2        6          -0.000327998   -0.000236052    0.000036445
      3        6           0.000645280    0.000540924   -0.000211102
      4        6          -0.000038257   -0.000217040    0.000323392
      5        7          -0.000352152   -0.000231504    0.000019142
      6        6          -0.000185090   -0.000024685   -0.000184464
      7        6           0.000052048   -0.000413601    0.000769721
      8        7          -0.000127779    0.000258386   -0.000587499
      9        1          -0.000014704   -0.000044079    0.000065714
     10        1           0.000030820    0.000055212   -0.000059153
     11        1           0.000032942    0.000027318   -0.000005806
     12        1           0.000045878    0.000081561   -0.000083457
 -------------------------------------------------------------------
 Cartesian Forces:  Max     0.000769721 RMS     0.000271298

 GradGradGradGradGradGradGradGradGradGradGradGradGradGradGradGradGradGrad
 Berny optimization.
 Using GEDIIS/GDIIS optimizer.
 FormGI is forming the generalized inverse of G from B-inverse, IUseBI=4.
 Internal  Forces:  Max     0.000653729 RMS     0.000159373
 Search for a local minimum.
 Step number   3 out of a maximum of   60
 All quantities printed in internal units (Hartrees-Bohrs-Radians)
 Mixed Optimization -- En-DIIS/RFO-DIIS
 Swapping is turned off.
 Update second derivatives using D2CorX and points    1    2    3
 DE= -8.59D-05 DEPred=-8.58D-05 R= 1.00D+00
 TightC=F SS=  1.41D+00  RLast= 3.24D-02 DXNew= 5.0454D-01 9.7317D-02
 Trust test= 1.00D+00 RLast= 3.24D-02 DXMaxT set to 3.00D-01
 ITU=  1  1  0
     Eigenvalues ---    0.02216   0.02231   0.02244   0.02251   0.02273
     Eigenvalues ---    0.02293   0.02296   0.02316   0.04810   0.04816
     Eigenvalues ---    0.13676   0.16000   0.16018   0.16108   0.22047
     Eigenvalues ---    0.22976   0.24248   0.24934   0.35154   0.35225
     Eigenvalues ---    0.35417   0.35495   0.41663   0.43680   0.45132
     Eigenvalues ---    0.47200   0.48799   0.50357   0.53947   1.28100
 En-DIIS/RFO-DIIS IScMMF=        0 using points:     3    2
 RFO step:  Lambda=-1.86397788D-06.
 DidBck=F Rises=F RFO-DIIS coefs:    0.99665    0.00335
 Iteration  1 RMS(Cart)=  0.00068499 RMS(Int)=  0.00000028
 Iteration  2 RMS(Cart)=  0.00000039 RMS(Int)=  0.00000003
 Variable       Old X    -DE/DX   Delta X   Delta X   Delta X     New X
                                 (Linear)    (Quad)   (Total)
    R1        2.62328  -0.00012   0.00000  -0.00025  -0.00025   2.62303
    R2        2.63587   0.00020   0.00000   0.00044   0.00044   2.63631
    R3        2.04969   0.00001   0.00000   0.00005   0.00005   2.04974
    R4        2.64170  -0.00035   0.00000  -0.00073  -0.00073   2.64097
    R5        2.05127   0.00008   0.00001   0.00020   0.00021   2.05148
    R6        2.64670   0.00039  -0.00001   0.00086   0.00086   2.64755
    R7        2.71837  -0.00021  -0.00001  -0.00043  -0.00044   2.71794
    R8        2.51291  -0.00017   0.00002  -0.00047  -0.00044   2.51247
    R9        2.05483  -0.00003   0.00000  -0.00009  -0.00009   2.05474
   R10        2.52353   0.00005   0.00002  -0.00002  -0.00001   2.52353
   R11        2.05483  -0.00010   0.00000  -0.00028  -0.00028   2.05455
   R12        2.18649   0.00065   0.00000   0.00051   0.00051   2.18700
    A1        2.06963  -0.00005   0.00000  -0.00025  -0.00025   2.06938
    A2        2.11218   0.00010  -0.00001   0.00066   0.00065   2.11282
    A3        2.10138  -0.00005   0.00002  -0.00042  -0.00040   2.10098
    A4        2.06079  -0.00004   0.00001  -0.00032  -0.00031   2.06048
    A5        2.12315   0.00006  -0.00003   0.00058   0.00055   2.12370
    A6        2.09924  -0.00002   0.00002  -0.00026  -0.00024   2.09901
    A7        2.07531   0.00005  -0.00001   0.00023   0.00022   2.07553
    A8        2.11193   0.00019  -0.00001   0.00080   0.00080   2.11272
    A9        2.09595  -0.00024   0.00002  -0.00103  -0.00101   2.09493
   A10        2.14678   0.00017   0.00002   0.00062   0.00064   2.14741
   A11        2.09564  -0.00011   0.00004  -0.00072  -0.00068   2.09495
   A12        2.04077  -0.00006  -0.00006   0.00011   0.00005   2.04082
   A13        2.05427  -0.00038  -0.00003  -0.00137  -0.00140   2.05287
   A14        2.15960   0.00026   0.00001   0.00109   0.00110   2.16070
   A15        2.10222  -0.00021   0.00002  -0.00122  -0.00120   2.10102
   A16        2.02137  -0.00005  -0.00004   0.00013   0.00010   2.02147
   A17        3.14276  -0.00002  -0.00002  -0.00023  -0.00025   3.14251
   A18        3.14161   0.00000   0.00000  -0.00002  -0.00002   3.14159
    D1       -0.00005   0.00000   0.00000   0.00007   0.00007   0.00002
    D2        3.14159   0.00000   0.00000   0.00000   0.00000  -3.14159
    D3        3.14152   0.00000   0.00000   0.00009   0.00009  -3.14157
    D4       -0.00003   0.00000   0.00000   0.00003   0.00003   0.00000
    D5        0.00008   0.00000   0.00000  -0.00011  -0.00011  -0.00003
    D6        3.14156   0.00000   0.00000   0.00008   0.00008  -3.14155
    D7       -3.14149   0.00000   0.00000  -0.00013  -0.00013   3.14156
    D8        0.00000   0.00000   0.00000   0.00005   0.00005   0.00004
    D9        0.00001   0.00000   0.00000  -0.00002  -0.00002  -0.00001
   D10        3.14158   0.00000   0.00000  -0.00001  -0.00001   3.14157
   D11        3.14155   0.00000   0.00000   0.00005   0.00005  -3.14159
   D12       -0.00006   0.00000   0.00000   0.00005   0.00005  -0.00001
   D13        0.00001   0.00000   0.00000   0.00000   0.00001   0.00002
   D14       -3.14153   0.00000   0.00000  -0.00007  -0.00007   3.14159
   D15       -3.14156   0.00000   0.00000   0.00000   0.00000  -3.14157
   D16        0.00008   0.00000   0.00000  -0.00007  -0.00007   0.00001
   D17        0.00002   0.00000   0.00000  -0.00004  -0.00004  -0.00002
   D18        3.14156   0.00000   0.00000   0.00003   0.00003   3.14159
   D19       -0.00006   0.00000   0.00000   0.00009   0.00009   0.00003
   D20       -3.14155   0.00000   0.00000  -0.00008  -0.00008   3.14155
         Item               Value     Threshold  Converged?
 Maximum Force            0.000654     0.000450     NO 
 RMS     Force            0.000159     0.000300     YES
 Maximum Displacement     0.001631     0.001800     YES
 RMS     Displacement     0.000685     0.001200     YES
 Predicted change in Energy=-1.530352D-06
 GradGradGradGradGradGradGradGradGradGradGradGradGradGradGradGradGradGrad

                          Input orientation:                          
 ---------------------------------------------------------------------
 Center     Atomic      Atomic             Coordinates (Angstroms)
 Number     Number       Type             X           Y           Z
 ---------------------------------------------------------------------
      1          6           0        1.652760   -0.621649    2.898553
      2          6           0        1.409605   -0.055877    1.654587
      3          6           0        0.237895   -0.419000    0.984998
      4          6           0       -0.634682   -1.331295    1.592613
      5          7           0       -0.402049   -1.873383    2.784126
      6          6           0        0.719976   -1.520508    3.416433
      7          6           0       -0.078067    0.128038   -0.307108
      8          7           0       -0.333209    0.567648   -1.346827
      9          1           0        2.546816   -0.374256    3.460677
     10          1           0        2.101182    0.649229    1.203957
     11          1           0       -1.551379   -1.626439    1.087806
     12          1           0        0.880852   -1.981008    4.388086
 ---------------------------------------------------------------------
                    Distance matrix (angstroms):
                    1          2          3          4          5
     1  C    0.000000
     2  C    1.388047   0.000000
     3  C    2.388432   1.397538   0.000000
     4  C    2.727906   2.410320   1.401024   0.000000
     5  N    2.408770   2.803797   2.400337   1.329541   0.000000
     6  C    1.395075   2.392663   2.712490   2.279741   1.335392
     7  C    3.719417   2.468855   1.438270   2.459352   3.696806
     8  N    4.835468   3.526283   2.595581   3.512431   4.798764
     9  H    1.084677   2.157911   3.385574   3.811498   3.376523
    10  H    2.165148   1.085596   2.158911   3.399776   3.889301
    11  H    3.815091   3.399314   2.161013   1.087324   2.063841
    12  H    2.159261   3.384926   3.799246   3.245557   2.056723
                    6          7          8          9         10
     6  C    0.000000
     7  C    4.149619   0.000000
     8  N    5.306434   1.157311   0.000000
     9  H    2.157127   4.619364   5.682766   0.000000
    10  H    3.392718   2.702607   3.526956   2.517717   0.000000
    11  H    3.254655   2.682279   3.496483   4.898335   4.305038
    12  H    1.087222   5.235690   6.392090   2.493426   4.306509
                   11         12
    11  H    0.000000
    12  H    4.115011   0.000000
 Stoichiometry    C6H4N2
 Framework group  C1[X(C6H4N2)]
 Deg. of freedom    30
 Full point group                 C1      NOp   1
 Largest Abelian subgroup         C1      NOp   1
 Largest concise Abelian subgroup C1      NOp   1
                         Standard orientation:                         
 ---------------------------------------------------------------------
 Center     Atomic      Atomic             Coordinates (Angstroms)
 Number     Number       Type             X           Y           Z
 ---------------------------------------------------------------------
      1          6           0       -1.514541    1.156794   -0.000004
      2          6           0       -0.128061    1.222718    0.000012
      3          6           0        0.587105    0.022030    0.000011
      4          6           0       -0.119784   -1.187587    0.000011
      5          7           0       -1.447810   -1.251052   -0.000005
      6          6           0       -2.122694   -0.098748    0.000003
      7          6           0        2.025359    0.015231   -0.000002
      8          7           0        3.182652    0.008694   -0.000013
      9          1           0       -2.117598    2.058374   -0.000023
     10          1           0        0.397526    2.172601    0.000009
     11          1           0        0.418386   -2.132387    0.000008
     12          1           0       -3.206512   -0.184714   -0.000053
 ---------------------------------------------------------------------
 Rotational constants (GHZ):      5.8416888      1.5714162      1.2383103
 Standard basis: 6-31+G(d) (6D, 7F)
 There are   160 symmetry adapted cartesian basis functions of A   symmetry.
 There are   160 symmetry adapted basis functions of A   symmetry.
   160 basis functions,   272 primitive gaussians,   160 cartesian basis functions
    27 alpha electrons       27 beta electrons
       nuclear repulsion energy       302.7954813021 Hartrees.
 NAtoms=   12 NActive=   12 NUniq=   12 SFac= 1.00D+00 NAtFMM=   60 NAOKFM=F Big=F
 Integral buffers will be    131072 words long.
 Raffenetti 2 integral format.
 Two-electron integral symmetry is turned on.
 One-electron integrals computed using PRISM.
 NBasis=   160 RedAO= T EigKep=  9.25D-06  NBF=   160
 NBsUse=   160 1.00D-06 EigRej= -1.00D+00 NBFU=   160
 Initial guess from the checkpoint file:  "/srv/scratch/z5358697/gauss/Gau-4005044.chk"
 B after Tr=     0.000000    0.000000    0.000000
         Rot=    1.000000    0.000000    0.000000   -0.000027 Ang=   0.00 deg.
 Requested convergence on RMS density matrix=1.00D-08 within 128 cycles.
 Requested convergence on MAX density matrix=1.00D-06.
 Requested convergence on             energy=1.00D-06.
 No special actions if energy rises.
 SCF Done:  E(RM062X) =  -340.395415937     A.U. after   10 cycles
            NFock= 10  Conv=0.37D-08     -V/T= 2.0086
 Calling FoFJK, ICntrl=      2127 FMM=F ISym2X=0 I1Cent= 0 IOpClX= 0 NMat=1 NMatS=1 NMatT=0.
 ***** Axes restored to original set *****
 -------------------------------------------------------------------
 Center     Atomic                   Forces (Hartrees/Bohr)
 Number     Number              X              Y              Z
 -------------------------------------------------------------------
      1        6           0.000032653   -0.000019885    0.000065518
      2        6          -0.000093561   -0.000038954   -0.000033335
      3        6           0.000144259    0.000147792   -0.000096700
      4        6          -0.000044464    0.000004291   -0.000054152
      5        7          -0.000119919   -0.000090300    0.000016871
      6        6           0.000117527    0.000068887    0.000026531
      7        6          -0.000031244   -0.000051446    0.000052353
      8        7          -0.000001202    0.000000772   -0.000002363
      9        1          -0.000032371   -0.000037084    0.000026968
     10        1           0.000014926    0.000006986    0.000004477
     11        1          -0.000005043    0.000010128   -0.000022995
     12        1           0.000018439   -0.000001187    0.000016829
 -------------------------------------------------------------------
 Cartesian Forces:  Max     0.000147792 RMS     0.000059452

 GradGradGradGradGradGradGradGradGradGradGradGradGradGradGradGradGradGrad
 Berny optimization.
 Using GEDIIS/GDIIS optimizer.
 FormGI is forming the generalized inverse of G from B-inverse, IUseBI=4.
 Internal  Forces:  Max     0.000134574 RMS     0.000039825
 Search for a local minimum.
 Step number   4 out of a maximum of   60
 All quantities printed in internal units (Hartrees-Bohrs-Radians)
 Mixed Optimization -- En-DIIS/RFO-DIIS
 Swapping is turned off.
 Update second derivatives using D2CorX and points    1    2    3    4
 DE= -1.76D-06 DEPred=-1.53D-06 R= 1.15D+00
 TightC=F SS=  1.41D+00  RLast= 3.28D-03 DXNew= 5.0454D-01 9.8310D-03
 Trust test= 1.15D+00 RLast= 3.28D-03 DXMaxT set to 3.00D-01
 ITU=  1  1  1  0
     Eigenvalues ---    0.02216   0.02231   0.02244   0.02251   0.02273
     Eigenvalues ---    0.02294   0.02296   0.02316   0.04810   0.04824
     Eigenvalues ---    0.12706   0.15713   0.16049   0.16051   0.21244
     Eigenvalues ---    0.22176   0.22965   0.25338   0.35095   0.35234
     Eigenvalues ---    0.35460   0.35665   0.41034   0.43656   0.44741
     Eigenvalues ---    0.46128   0.49507   0.53585   0.55563   1.29927
 En-DIIS/RFO-DIIS IScMMF=        0 using points:     4    3    2
 RFO step:  Lambda=-1.49485080D-07.
 DidBck=F Rises=F RFO-DIIS coefs:    1.13589   -0.13479   -0.00110
 Iteration  1 RMS(Cart)=  0.00049460 RMS(Int)=  0.00000017
 Iteration  2 RMS(Cart)=  0.00000021 RMS(Int)=  0.00000001
 Variable       Old X    -DE/DX   Delta X   Delta X   Delta X     New X
                                 (Linear)    (Quad)   (Total)
    R1        2.62303   0.00008  -0.00003   0.00019   0.00015   2.62318
    R2        2.63631  -0.00005   0.00006  -0.00012  -0.00006   2.63625
    R3        2.04974  -0.00002   0.00001  -0.00007  -0.00006   2.04968
    R4        2.64097  -0.00003  -0.00010  -0.00003  -0.00013   2.64083
    R5        2.05148   0.00001   0.00003   0.00003   0.00006   2.05154
    R6        2.64755   0.00006   0.00012   0.00012   0.00024   2.64779
    R7        2.71794  -0.00006  -0.00006  -0.00012  -0.00018   2.71776
    R8        2.51247   0.00009  -0.00007   0.00020   0.00013   2.51260
    R9        2.05474   0.00001  -0.00001   0.00004   0.00003   2.05477
   R10        2.52353   0.00013  -0.00001   0.00027   0.00026   2.52379
   R11        2.05455   0.00002  -0.00004   0.00008   0.00004   2.05459
   R12        2.18700   0.00000   0.00007  -0.00004   0.00003   2.18703
    A1        2.06938   0.00001  -0.00003   0.00002  -0.00001   2.06936
    A2        2.11282   0.00004   0.00009   0.00027   0.00037   2.11319
    A3        2.10098  -0.00005  -0.00006  -0.00029  -0.00035   2.10063
    A4        2.06048   0.00003  -0.00005   0.00009   0.00005   2.06053
    A5        2.12370  -0.00002   0.00008  -0.00010  -0.00001   2.12368
    A6        2.09901  -0.00001  -0.00004   0.00000  -0.00003   2.09897
    A7        2.07553  -0.00001   0.00003  -0.00009  -0.00006   2.07547
    A8        2.11272   0.00012   0.00011   0.00050   0.00061   2.11334
    A9        2.09493  -0.00011  -0.00014  -0.00041  -0.00056   2.09437
   A10        2.14741   0.00002   0.00008   0.00006   0.00014   2.14755
   A11        2.09495  -0.00002  -0.00011  -0.00012  -0.00023   2.09473
   A12        2.04082   0.00001   0.00003   0.00006   0.00009   2.04091
   A13        2.05287  -0.00004  -0.00018  -0.00007  -0.00025   2.05262
   A14        2.16070   0.00001   0.00015  -0.00001   0.00013   2.16083
   A15        2.10102  -0.00003  -0.00017  -0.00014  -0.00031   2.10071
   A16        2.02147   0.00002   0.00002   0.00015   0.00018   2.02165
   A17        3.14251   0.00003  -0.00003   0.00063   0.00060   3.14311
   A18        3.14159   0.00000   0.00000   0.00001   0.00000   3.14160
    D1        0.00002   0.00000   0.00001  -0.00004  -0.00003  -0.00001
    D2       -3.14159   0.00000   0.00000  -0.00001  -0.00001   3.14159
    D3       -3.14157   0.00000   0.00001  -0.00005  -0.00003   3.14158
    D4        0.00000   0.00000   0.00000  -0.00001  -0.00001  -0.00001
    D5       -0.00003   0.00000  -0.00001   0.00007   0.00005   0.00003
    D6       -3.14155   0.00000   0.00001  -0.00008  -0.00007   3.14157
    D7        3.14156   0.00000  -0.00002   0.00007   0.00005  -3.14157
    D8        0.00004   0.00000   0.00001  -0.00007  -0.00007  -0.00002
    D9       -0.00001   0.00000   0.00000   0.00002   0.00002   0.00000
   D10        3.14157   0.00000   0.00000   0.00003   0.00003  -3.14159
   D11       -3.14159   0.00000   0.00001  -0.00002  -0.00001   3.14159
   D12       -0.00001   0.00000   0.00001   0.00000   0.00000   0.00000
   D13        0.00002   0.00000   0.00000  -0.00002  -0.00001   0.00000
   D14        3.14159   0.00000  -0.00001   0.00001   0.00000  -3.14159
   D15       -3.14157   0.00000   0.00000  -0.00003  -0.00003   3.14159
   D16        0.00001   0.00000  -0.00001   0.00000  -0.00001   0.00000
   D17       -0.00002   0.00000  -0.00001   0.00004   0.00003   0.00001
   D18        3.14159   0.00000   0.00000   0.00001   0.00001  -3.14159
   D19        0.00003   0.00000   0.00001  -0.00006  -0.00005  -0.00002
   D20        3.14155   0.00000  -0.00001   0.00008   0.00007  -3.14157
         Item               Value     Threshold  Converged?
 Maximum Force            0.000135     0.000450     YES
 RMS     Force            0.000040     0.000300     YES
 Maximum Displacement     0.002116     0.001800     NO 
 RMS     Displacement     0.000495     0.001200     YES
 Predicted change in Energy=-1.553348D-07
 GradGradGradGradGradGradGradGradGradGradGradGradGradGradGradGradGradGrad

                          Input orientation:                          
 ---------------------------------------------------------------------
 Center     Atomic      Atomic             Coordinates (Angstroms)
 Number     Number       Type             X           Y           Z
 ---------------------------------------------------------------------
      1          6           0        1.652830   -0.621682    2.898707
      2          6           0        1.409831   -0.055762    1.654687
      3          6           0        0.238249   -0.418711    0.984922
      4          6           0       -0.634525   -1.331076    1.592441
      5          7           0       -0.402190   -1.873388    2.783986
      6          6           0        0.719932   -1.520479    3.416399
      7          6           0       -0.078192    0.127950   -0.307122
      8          7           0       -0.334329    0.566925   -1.346883
      9          1           0        2.546711   -0.374659    3.461213
     10          1           0        2.101535    0.649342    1.204177
     11          1           0       -1.551138   -1.625998    1.087320
     12          1           0        0.880987   -1.980962    4.388054
 ---------------------------------------------------------------------
                    Distance matrix (angstroms):
                    1          2          3          4          5
     1  C    0.000000
     2  C    1.388128   0.000000
     3  C    2.388474   1.397469   0.000000
     4  C    2.727923   2.410329   1.401151   0.000000
     5  N    2.408949   2.804014   2.400600   1.329609   0.000000
     6  C    1.395041   2.392694   2.712562   2.279747   1.335532
     7  C    3.719640   2.469140   1.438176   2.458984   3.696657
     8  N    4.835972   3.526933   2.595504   3.511716   4.798313
     9  H    1.084646   2.158177   3.385698   3.811470   3.376513
    10  H    2.165241   1.085627   2.158852   3.399828   3.889550
    11  H    3.815125   3.399246   2.161003   1.087339   2.063967
    12  H    2.159059   3.384873   3.799348   3.245701   2.056975
                    6          7          8          9         10
     6  C    0.000000
     7  C    4.149569   0.000000
     8  N    5.306371   1.157328   0.000000
     9  H    2.156857   4.619857   5.683728   0.000000
    10  H    3.392768   2.703162   3.528192   2.518129   0.000000
    11  H    3.254765   2.681486   3.494979   4.898324   4.304979
    12  H    1.087243   5.235667   6.392044   2.492765   4.306426
                   11         12
    11  H    0.000000
    12  H    4.115346   0.000000
 Stoichiometry    C6H4N2
 Framework group  C1[X(C6H4N2)]
 Deg. of freedom    30
 Full point group                 C1      NOp   1
 Largest Abelian subgroup         C1      NOp   1
 Largest concise Abelian subgroup C1      NOp   1
                         Standard orientation:                         
 ---------------------------------------------------------------------
 Center     Atomic      Atomic             Coordinates (Angstroms)
 Number     Number       Type             X           Y           Z
 ---------------------------------------------------------------------
      1          6           0       -1.515090    1.156460    0.000003
      2          6           0       -0.128559    1.223019   -0.000002
      3          6           0        0.587172    0.022749   -0.000002
      4          6           0       -0.119244   -1.187293    0.000000
      5          7           0       -1.447301   -1.251535    0.000003
      6          6           0       -2.122641   -0.099336   -0.000009
      7          6           0        2.025332    0.015786    0.000001
      8          7           0        3.182636    0.008423    0.000000
      9          1           0       -2.118870    2.057518    0.000015
     10          1           0        0.396601    2.173173    0.000001
     11          1           0        0.419566   -2.131744    0.000004
     12          1           0       -3.206466   -0.185474    0.000015
 ---------------------------------------------------------------------
 Rotational constants (GHZ):      5.8412542      1.5714154      1.2382903
 Standard basis: 6-31+G(d) (6D, 7F)
 There are   160 symmetry adapted cartesian basis functions of A   symmetry.
 There are   160 symmetry adapted basis functions of A   symmetry.
   160 basis functions,   272 primitive gaussians,   160 cartesian basis functions
    27 alpha electrons       27 beta electrons
       nuclear repulsion energy       302.7898525347 Hartrees.
 NAtoms=   12 NActive=   12 NUniq=   12 SFac= 1.00D+00 NAtFMM=   60 NAOKFM=F Big=F
 Integral buffers will be    131072 words long.
 Raffenetti 2 integral format.
 Two-electron integral symmetry is turned on.
 One-electron integrals computed using PRISM.
 NBasis=   160 RedAO= T EigKep=  9.24D-06  NBF=   160
 NBsUse=   160 1.00D-06 EigRej= -1.00D+00 NBFU=   160
 Initial guess from the checkpoint file:  "/srv/scratch/z5358697/gauss/Gau-4005044.chk"
 B after Tr=     0.000000    0.000000    0.000000
         Rot=    1.000000    0.000000    0.000000   -0.000105 Ang=  -0.01 deg.
 Requested convergence on RMS density matrix=1.00D-08 within 128 cycles.
 Requested convergence on MAX density matrix=1.00D-06.
 Requested convergence on             energy=1.00D-06.
 No special actions if energy rises.
 SCF Done:  E(RM062X) =  -340.395416221     A.U. after    9 cycles
            NFock=  9  Conv=0.35D-08     -V/T= 2.0086
 Calling FoFJK, ICntrl=      2127 FMM=F ISym2X=0 I1Cent= 0 IOpClX= 0 NMat=1 NMatS=1 NMatT=0.
 ***** Axes restored to original set *****
 -------------------------------------------------------------------
 Center     Atomic                   Forces (Hartrees/Bohr)
 Number     Number              X              Y              Z
 -------------------------------------------------------------------
      1        6          -0.000033556   -0.000027458    0.000013432
      2        6          -0.000016931   -0.000005951   -0.000009703
      3        6           0.000046591    0.000025447    0.000007813
      4        6          -0.000001864    0.000002765   -0.000006934
      5        7          -0.000024008    0.000002039   -0.000025944
      6        6           0.000053707    0.000026655    0.000002949
      7        6          -0.000026485    0.000003145   -0.000033617
      8        7           0.000017933   -0.000007827    0.000032937
      9        1          -0.000004660   -0.000005293    0.000004942
     10        1           0.000006835   -0.000005209    0.000016350
     11        1           0.000000197    0.000002184   -0.000003927
     12        1          -0.000017758   -0.000010498    0.000001702
 -------------------------------------------------------------------
 Cartesian Forces:  Max     0.000053707 RMS     0.000020032

 GradGradGradGradGradGradGradGradGradGradGradGradGradGradGradGradGradGrad
 Berny optimization.
 Using GEDIIS/GDIIS optimizer.
 FormGI is forming the generalized inverse of G from B-inverse, IUseBI=4.
 Internal  Forces:  Max     0.000041948 RMS     0.000012209
 Search for a local minimum.
 Step number   5 out of a maximum of   60
 All quantities printed in internal units (Hartrees-Bohrs-Radians)
 Mixed Optimization -- En-DIIS/RFO-DIIS
 Swapping is turned off.
 Update second derivatives using D2CorX and points    1    2    3    4    5
 DE= -2.84D-07 DEPred=-1.55D-07 R= 1.83D+00
 Trust test= 1.83D+00 RLast= 1.36D-03 DXMaxT set to 3.00D-01
 ITU=  0  1  1  1  0
     Eigenvalues ---    0.02216   0.02231   0.02244   0.02251   0.02273
     Eigenvalues ---    0.02294   0.02299   0.02316   0.04809   0.04846
     Eigenvalues ---    0.12673   0.15055   0.16047   0.16200   0.18369
     Eigenvalues ---    0.22242   0.23172   0.25480   0.35187   0.35240
     Eigenvalues ---    0.35476   0.35663   0.41369   0.43512   0.44955
     Eigenvalues ---    0.45999   0.50915   0.53344   0.54816   1.32821
 En-DIIS/RFO-DIIS IScMMF=        0 using points:     5    4    3    2
 RFO step:  Lambda=-1.37039307D-08.
 DidBck=F Rises=F RFO-DIIS coefs:    1.18067   -0.19248    0.01086    0.00095
 Iteration  1 RMS(Cart)=  0.00015328 RMS(Int)=  0.00000001
 Iteration  2 RMS(Cart)=  0.00000002 RMS(Int)=  0.00000000
 Variable       Old X    -DE/DX   Delta X   Delta X   Delta X     New X
                                 (Linear)    (Quad)   (Total)
    R1        2.62318   0.00001   0.00003  -0.00001   0.00002   2.62320
    R2        2.63625  -0.00004  -0.00002  -0.00007  -0.00008   2.63616
    R3        2.04968   0.00000  -0.00001   0.00001  -0.00001   2.04968
    R4        2.64083  -0.00001  -0.00002  -0.00004  -0.00006   2.64078
    R5        2.05154   0.00000   0.00001  -0.00002  -0.00001   2.05153
    R6        2.64779   0.00000   0.00003  -0.00001   0.00002   2.64781
    R7        2.71776   0.00000  -0.00003   0.00001  -0.00002   2.71774
    R8        2.51260  -0.00001   0.00004  -0.00006  -0.00003   2.51257
    R9        2.05477   0.00000   0.00001  -0.00001   0.00000   2.05477
   R10        2.52379   0.00002   0.00005   0.00001   0.00006   2.52385
   R11        2.05459   0.00000   0.00001   0.00000   0.00001   2.05460
   R12        2.18703  -0.00004   0.00000  -0.00002  -0.00002   2.18701
    A1        2.06936   0.00001   0.00000   0.00003   0.00003   2.06940
    A2        2.11319   0.00000   0.00006  -0.00004   0.00001   2.11321
    A3        2.10063   0.00000  -0.00005   0.00001  -0.00005   2.10058
    A4        2.06053   0.00000   0.00001  -0.00002   0.00000   2.06053
    A5        2.12368  -0.00001  -0.00002  -0.00005  -0.00007   2.12362
    A6        2.09897   0.00001   0.00000   0.00007   0.00007   2.09904
    A7        2.07547   0.00000  -0.00002   0.00000  -0.00002   2.07545
    A8        2.11334   0.00004   0.00010   0.00015   0.00025   2.11359
    A9        2.09437  -0.00004  -0.00008  -0.00015  -0.00023   2.09414
   A10        2.14755   0.00000   0.00002   0.00001   0.00003   2.14758
   A11        2.09473   0.00000  -0.00002   0.00001  -0.00001   2.09472
   A12        2.04091   0.00000   0.00000  -0.00002  -0.00002   2.04088
   A13        2.05262   0.00000  -0.00004   0.00001  -0.00003   2.05259
   A14        2.16083  -0.00001   0.00002  -0.00003  -0.00001   2.16082
   A15        2.10071   0.00002  -0.00004   0.00010   0.00006   2.10077
   A16        2.02165  -0.00001   0.00002  -0.00007  -0.00004   2.02160
   A17        3.14311   0.00000   0.00011  -0.00007   0.00004   3.14315
   A18        3.14160   0.00000   0.00000  -0.00001  -0.00001   3.14159
    D1       -0.00001   0.00000  -0.00001   0.00003   0.00003   0.00001
    D2        3.14159   0.00000   0.00000   0.00001   0.00001  -3.14159
    D3        3.14158   0.00000  -0.00001   0.00003   0.00002  -3.14158
    D4       -0.00001   0.00000   0.00000   0.00001   0.00001   0.00001
    D5        0.00003   0.00000   0.00001  -0.00006  -0.00005  -0.00002
    D6        3.14157   0.00000  -0.00001   0.00005   0.00004  -3.14157
    D7       -3.14157   0.00000   0.00001  -0.00006  -0.00005   3.14157
[...]
     Eigenvalues ---    0.19294   0.21130   0.22222   0.27741   0.36044
     Eigenvalues ---    0.36388   0.36691   0.37183   0.37394   0.44181
     Eigenvalues ---    0.46520   0.48792   0.53438   0.58321   1.30541
 Angle between quadratic step and forces=  33.00 degrees.
 Linear search not attempted -- first point.
 Iteration  1 RMS(Cart)=  0.00019916 RMS(Int)=  0.00000002
 Iteration  2 RMS(Cart)=  0.00000003 RMS(Int)=  0.00000000
 Variable       Old X    -DE/DX   Delta X   Delta X   Delta X     New X
                                 (Linear)    (Quad)   (Total)
    R1        2.62318   0.00001   0.00000   0.00005   0.00005   2.62323
    R2        2.63625  -0.00004   0.00000  -0.00012  -0.00012   2.63613
    R3        2.04968   0.00000   0.00000   0.00000   0.00000   2.04968
    R4        2.64083  -0.00001   0.00000  -0.00008  -0.00008   2.64075
    R5        2.05154   0.00000   0.00000  -0.00001  -0.00001   2.05153
    R6        2.64779   0.00000   0.00000   0.00004   0.00004   2.64784
    R7        2.71776   0.00000   0.00000   0.00000   0.00000   2.71776
    R8        2.51260  -0.00001   0.00000  -0.00006  -0.00006   2.51254
    R9        2.05477   0.00000   0.00000   0.00000   0.00000   2.05477
   R10        2.52379   0.00002   0.00000   0.00008   0.00008   2.52387
   R11        2.05459   0.00000   0.00000   0.00001   0.00001   2.05460
   R12        2.18703  -0.00004   0.00000  -0.00003  -0.00003   2.18700
    A1        2.06936   0.00001   0.00000   0.00006   0.00006   2.06942
    A2        2.11319   0.00000   0.00000  -0.00006  -0.00006   2.11313
    A3        2.10063   0.00000   0.00000   0.00000   0.00000   2.10063
    A4        2.06053   0.00000   0.00000  -0.00001  -0.00001   2.06052
    A5        2.12368  -0.00001   0.00000  -0.00011  -0.00011   2.12357
    A6        2.09897   0.00001   0.00000   0.00012   0.00012   2.09909
    A7        2.07547   0.00000   0.00000  -0.00003  -0.00003   2.07545
    A8        2.11334   0.00004   0.00000   0.00030   0.00030   2.11364
    A9        2.09437  -0.00004   0.00000  -0.00027  -0.00027   2.09410
   A10        2.14755   0.00000   0.00000   0.00003   0.00003   2.14758
   A11        2.09473   0.00000   0.00000  -0.00001  -0.00001   2.09472
   A12        2.04091   0.00000   0.00000  -0.00002  -0.00002   2.04089
   A13        2.05262   0.00000   0.00000   0.00000   0.00000   2.05262
   A14        2.16083  -0.00001   0.00000  -0.00005  -0.00005   2.16078
   A15        2.10071   0.00002   0.00000   0.00013   0.00013   2.10084
   A16        2.02165  -0.00001   0.00000  -0.00008  -0.00008   2.02157
   A17        3.14311   0.00000   0.00000   0.00013   0.00013   3.14324
   A18        3.14160   0.00000   0.00000   0.00000   0.00000   3.14159
    D1       -0.00001   0.00000   0.00000   0.00001   0.00001   0.00000
    D2        3.14159   0.00000   0.00000   0.00001   0.00001  -3.14159
    D3        3.14158   0.00000   0.00000   0.00001   0.00001  -3.14159
    D4       -0.00001   0.00000   0.00000   0.00001   0.00001   0.00000
    D5        0.00003   0.00000   0.00000  -0.00003  -0.00003   0.00000
    D6        3.14157   0.00000   0.00000   0.00002   0.00002   3.14159
    D7       -3.14157   0.00000   0.00000  -0.00002  -0.00002   3.14159
    D8       -0.00002   0.00000   0.00000   0.00002   0.00002   0.00000
    D9        0.00000   0.00000   0.00000   0.00000   0.00000   0.00000
   D10       -3.14159   0.00000   0.00000  -0.00001  -0.00001  -3.14159
   D11        3.14159   0.00000   0.00000   0.00001   0.00001  -3.14159
   D12        0.00000   0.00000   0.00000   0.00000   0.00000   0.00000
   D13        0.00000   0.00000   0.00000   0.00000   0.00000   0.00000
   D14       -3.14159   0.00000   0.00000   0.00000   0.00000   3.14159
   D15        3.14159   0.00000   0.00000   0.00000   0.00000   3.14159
   D16        0.00000   0.00000   0.00000   0.00000   0.00000   0.00000
   D17        0.00001   0.00000   0.00000  -0.00001  -0.00001   0.00000
   D18       -3.14159   0.00000   0.00000  -0.00001  -0.00001  -3.14159
   D19       -0.00002   0.00000   0.00000   0.00002   0.00002   0.00000
   D20       -3.14157   0.00000   0.00000  -0.00002  -0.00002  -3.14159
         Item               Value     Threshold  Converged?
 Maximum Force            0.000042     0.000450     YES
 RMS     Force            0.000012     0.000300     YES
 Maximum Displacement     0.000859     0.001800     YES
 RMS     Displacement     0.000199     0.001200     YES
 Predicted change in Energy=-1.914889D-08
 Optimization completed.
    -- Stationary point found.
                           ----------------------------
                           !   Optimized Parameters   !
                           ! (Angstroms and Degrees)  !
 --------------------------                            --------------------------
 ! Name  Definition              Value          Derivative Info.                !
 --------------------------------------------------------------------------------
 ! R1    R(1,2)                  1.3881         -DE/DX =    0.0                 !
 ! R2    R(1,6)                  1.395          -DE/DX =    0.0                 !
 ! R3    R(1,9)                  1.0846         -DE/DX =    0.0                 !
 ! R4    R(2,3)                  1.3975         -DE/DX =    0.0                 !
 ! R5    R(2,10)                 1.0856         -DE/DX =    0.0                 !
 ! R6    R(3,4)                  1.4012         -DE/DX =    0.0                 !
 ! R7    R(3,7)                  1.4382         -DE/DX =    0.0                 !
 ! R8    R(4,5)                  1.3296         -DE/DX =    0.0                 !
 ! R9    R(4,11)                 1.0873         -DE/DX =    0.0                 !
 ! R10   R(5,6)                  1.3355         -DE/DX =    0.0                 !
 ! R11   R(6,12)                 1.0872         -DE/DX =    0.0                 !
 ! R12   R(7,8)                  1.1573         -DE/DX =    0.0                 !
 ! A1    A(2,1,6)              118.5659         -DE/DX =    0.0                 !
 ! A2    A(2,1,9)              121.0769         -DE/DX =    0.0                 !
 ! A3    A(6,1,9)              120.3572         -DE/DX =    0.0                 !
 ! A4    A(1,2,3)              118.0597         -DE/DX =    0.0                 !
 ! A5    A(1,2,10)             121.6782         -DE/DX =    0.0                 !
 ! A6    A(3,2,10)             120.2622         -DE/DX =    0.0                 !
 ! A7    A(2,3,4)              118.9158         -DE/DX =    0.0                 !
 ! A8    A(2,3,7)              121.0854         -DE/DX =    0.0                 !
 ! A9    A(4,3,7)              119.9988         -DE/DX =    0.0                 !
 ! A10   A(3,4,5)              123.0456         -DE/DX =    0.0                 !
 ! A11   A(3,4,11)             120.019          -DE/DX =    0.0                 !
 ! A12   A(5,4,11)             116.9354         -DE/DX =    0.0                 !
 ! A13   A(4,5,6)              117.6065         -DE/DX =    0.0                 !
 ! A14   A(1,6,5)              123.8065         -DE/DX =    0.0                 !
 ! A15   A(1,6,12)             120.3617         -DE/DX =    0.0                 !
 ! A16   A(5,6,12)             115.8318         -DE/DX =    0.0                 !
 ! A17   L(3,7,8,10,-1)        180.0871         -DE/DX =    0.0                 !
 ! A18   L(3,7,8,10,-2)        180.0002         -DE/DX =    0.0                 !
 ! D1    D(6,1,2,3)             -0.0008         -DE/DX =    0.0                 !
 ! D2    D(6,1,2,10)          -180.0003         -DE/DX =    0.0                 !
 ! D3    D(9,1,2,3)           -180.0007         -DE/DX =    0.0                 !
 ! D4    D(9,1,2,10)            -0.0003         -DE/DX =    0.0                 !
 ! D5    D(2,1,6,5)              0.0014         -DE/DX =    0.0                 !
 ! D6    D(2,1,6,12)           179.9988         -DE/DX =    0.0                 !
 ! D7    D(9,1,6,5)            180.0014         -DE/DX =    0.0                 !
 ! D8    D(9,1,6,12)            -0.0013         -DE/DX =    0.0                 !
 ! D9    D(1,2,3,4)              0.0001         -DE/DX =    0.0                 !
 ! D10   D(1,2,3,7)           -179.9996         -DE/DX =    0.0                 !
 ! D11   D(10,2,3,4)          -180.0003         -DE/DX =    0.0                 !
 ! D12   D(10,2,3,7)             0.0            -DE/DX =    0.0                 !
 ! D13   D(2,3,4,5)              0.0            -DE/DX =    0.0                 !
 ! D14   D(2,3,4,11)           180.0002         -DE/DX =    0.0                 !
 ! D15   D(7,3,4,5)            179.9997         -DE/DX =    0.0                 !
 ! D16   D(7,3,4,11)            -0.0001         -DE/DX =    0.0                 !
 ! D17   D(3,4,5,6)              0.0006         -DE/DX =    0.0                 !
 ! D18   D(11,4,5,6)          -179.9996         -DE/DX =    0.0                 !
 ! D19   D(4,5,6,1)             -0.0013         -DE/DX =    0.0                 !
 ! D20   D(4,5,6,12)          -179.9987         -DE/DX =    0.0                 !
 --------------------------------------------------------------------------------
 GradGradGradGradGradGradGradGradGradGradGradGradGradGradGradGradGradGrad

 1\1\GINC-KATANA2\Freq\RM062X\6-31+G(d)\C6H4N2\Z5358697\17-Mar-2025\0\\
 #N Geom=AllCheck Guess=TCheck SCRF=Check GenChk RM062X/6-31+G(d) Freq\
 \pyridine-3-carbonitrile\\0,1\C,1.6528303061,-0.6216824828,2.898706684
 1\C,1.4098305149,-0.0557624674,1.654686648\C,0.2382492031,-0.418710501
 2,0.9849220962\C,-0.6345247337,-1.3310761229,1.5924411357\N,-0.4021899
 199,-1.8733876812,2.7839859087\C,0.7199316648,-1.5204793156,3.41639856
 25\C,-0.0781922543,0.1279503788,-0.3071218052\N,-0.3343291958,0.566924
 5932,-1.3468833729\H,2.5467106292,-0.374659348,3.4612131907\H,2.101534
 753,0.6493423958,1.2041774712\H,-1.5511375213,-1.6259976859,1.08731971
 35\H,0.880986554,-1.9809617627,4.3880537674\\Version=ES64L-G09RevD.01\
 State=1-A\HF=-340.3954162\RMSD=3.261e-09\RMSF=2.004e-05\ZeroPoint=0.08
 84088\Thermal=0.0944021\Dipole=0.9807089,-0.0738961,1.2116273\DipoleDe
 riv=0.0041853,-0.0314798,0.1814667,0.0304815,-0.21111,0.2064478,0.0746
 767,0.1379391,-0.2660616,0.1107,0.0275869,0.145133,0.0962323,0.0242574
 ,-0.0449849,0.026822,-0.120877,0.174419,-0.0907596,-0.0344247,-0.12883
 3,-0.1181633,0.0227649,-0.0329836,0.0154953,0.0595987,-0.0061597,0.273
 1774,0.1071724,0.073728,0.1373726,0.1501412,-0.0389343,0.0216735,-0.07
 2327,0.1880454,-0.4411505,-0.0581857,-0.0693874,-0.0352078,-0.3475016,
 0.0641802,-0.1090002,0.0387704,-0.4750097,0.2024788,0.1538135,-0.07059
 91,0.0505774,0.1824576,-0.2127855,0.1073311,-0.0986296,0.315206,0.0585
 153,-0.0684803,0.0548292,-0.0572066,0.1380119,-0.1017453,0.0353981,-0.
 1142102,0.351659,-0.2890714,0.0234844,-0.028149,0.019844,-0.3166943,0.
 0503326,-0.0218745,0.0543574,-0.4180941,0.015594,-0.0402455,-0.0718449
 ,-0.0443945,0.1103109,0.0078023,-0.0646928,0.0123905,0.050437,0.068265
 6,-0.0512409,0.0145464,-0.0540546,0.0761727,0.0416049,0.0193969,0.0447
 182,0.079361,0.0190043,-0.0208432,-0.0660657,-0.0276212,0.095745,-0.00
 38146,-0.0543835,0.0036795,0.0447821,0.069061,-0.007157,-0.0348242,0.0
 021403,0.0754445,0.0648804,-0.0508425,0.0545901,-0.0385845\Polar=68.42
 44367,8.9666855,59.6197059,15.5156649,-23.1896358,97.5346589\PG=C01 [X
 (C6H4N2)]\NImag=0\\0.61811698,0.21576333,0.37453700,0.16429781,-0.1774
 8068,0.62068716,-0.12688881,-0.02687217,-0.02394991,0.58737114,0.00582
 330,-0.13478828,0.12958951,0.23301672,0.41602192,-0.08030167,0.0934409
 7,-0.31316033,0.09030975,-0.21389714,0.61093973,0.01416477,0.04479533,
 -0.06715743,-0.26950429,-0.09304780,-0.06989722,0.55530411,0.02176313,
 0.03384242,-0.02551715,-0.06369593,-0.10737214,0.00909883,0.19652520,0
 .36502385,-0.02746073,-0.00005226,-0.02519384,-0.12048579,-0.02335279,
 -0.15419417,0.12979441,-0.18511497,0.59409945,-0.00930332,-0.00792857,
 0.01360702,-0.03601499,-0.02229646,-0.01000897,-0.20363697,-0.12206397
 ,0.06014389,0.62961483,-0.01517222,-0.03861337,0.03383195,-0.04822324,
 0.00127626,-0.04208002,-0.08882094,-0.17097280,0.07969717,0.20451068,0
 .38318836,0.02609137,0.04184003,-0.05251624,0.03467579,-0.01341526,0.0
 6925447,0.00284943,0.04294333,-0.13861681,0.16755446,-0.15983067,0.619
 98048,-0.04915862,-0.06259543,0.02817430,-0.03440103,0.00954667,-0.044
 13958,0.06065233,0.02013771,0.00788816,-0.12372722,-0.01560245,-0.0353
 7207,0.43999071,-0.02900023,0.01067013,-0.01092219,0.01022092,-0.00466
 613,0.00321151,-0.01481551,-0.00741912,0.03453975,0.00533818,-0.134771
 58,0.12199531,0.10679433,0.23904757,-0.02972625,-0.04806477,0.07291059
 ,-0.04530230,0.00246622,-0.06369615,0.06813093,0.07318475,-0.02868270,
 -0.07146351,0.09884307,-0.31677911,0.19803838,-0.13123581,0.53953426,-
 0.20683759,-0.08937093,0.00378782,0.05641125,-0.00851145,0.06951643,-0
 .06715324,-0.04014440,0.00532751,-0.00248961,0.05050857,-0.09209534,-0
 .28119203,-0.08658846,-0.08663757,0.56512258,-0.12650905,-0.18429774,0
 .05550648,0.01735048,-0.01297857,0.05327654,-0.03222048,-0.02962760,-0
 .00074647,0.02035813,0.03182687,-0.02877313,-0.06547419,-0.11184134,0.
 00341974,0.18451912,0.40381794,0.06779429,0.09656562,-0.16241940,0.024
 94306,0.02468232,-0.00816106,-0.00832969,-0.00950735,-0.00221524,-0.04
 013025,0.00456100,-0.05015802,-0.12302599,-0.01992310,-0.16953675,0.12
 687047,-0.21151293,0.66752911,-0.00277184,-0.00536382,-0.00401867,-0.0
 0409675,0.01477919,-0.03048273,-0.08937143,0.00682390,-0.04716925,0.01
 359371,0.00031938,0.01636781,0.00079761,-0.00776302,0.00363104,-0.0032
 2588,-0.00092043,-0.00090048,0.18351040,-0.00454954,0.00675062,-0.0007
 6616,0.00698867,0.00601965,-0.00189808,0.00730087,-0.10021051,0.081949
 96,0.00783435,-0.01190152,0.02622982,-0.00735299,0.00246307,0.00419670
 ,-0.00155490,-0.00169991,-0.00047243,-0.11742786,0.31958745,-0.0054220
 3,-0.00166646,0.00610207,-0.01705566,0.00671523,-0.02999545,-0.0479912
 3,0.08142254,-0.25073933,0.00341559,0.01792115,-0.02881930,0.00292450,
 0.00374338,0.00639652,0.00019290,0.00022891,-0.00115782,0.30971490,-0.
 53166872,1.34519474,0.00032811,0.00092361,0.00050394,0.00089233,-0.001
 76773,0.00245841,0.01813159,0.00512914,-0.00764737,-0.00377395,-0.0027
 9053,-0.00128735,0.00006907,0.00174995,-0.00113749,0.00084289,0.000221
 95,0.00038368,-0.09692494,0.10582219,-0.24845808,0.08002415,0.00112754
 ,-0.00119751,0.00060894,-0.00406389,-0.00121900,0.00006288,0.00467683,
 0.01281189,0.01248000,0.00023138,0.00298847,-0.00189507,0.00115930,-0.
 00080416,-0.00014169,0.00026469,0.00042397,-0.00017978,0.10582675,-0.2
 1689830,0.42677719,-0.10914544,0.20356244,0.00015245,0.00038347,-0.002
 05989,0.00641588,0.00260155,0.00403408,-0.00686793,0.01298025,-0.01291
 175,-0.00649564,-0.00523614,0.00358335,-0.00011952,0.00051133,-0.00264
 349,0.00031006,-0.00022701,0.00088390,-0.24846582,0.42677194,-1.047413
 64,0.25531990,-0.43835859,1.05703441,-0.25600838,-0.06379228,-0.130284
 01,0.00073137,-0.00127838,-0.00057944,0.00354126,-0.00203190,-0.001635
 02,0.00050897,-0.00030471,0.00144575,-0.00063014,-0.00560354,0.0003508
 0,-0.01140971,-0.00083797,-0.01288409,0.00018259,-0.00031252,0.0000351
 3,-0.00008459,0.00007058,0.00001302,0.26463636,-0.06377857,-0.06360166
 ,-0.02762701,0.01211819,0.00701477,0.00690616,-0.00210398,0.00390905,0
 .00504844,0.00021593,-0.00100266,0.00140902,-0.00618140,0.00160962,0.0
 0381431,-0.01485876,-0.00006540,-0.01364325,0.00050111,0.00064382,0.00
 054410,-0.00002723,-0.00025578,0.00005498,0.07025939,0.05644393,-0.130
 30776,-0.02764248,-0.13514270,-0.02366846,-0.00790482,-0.00929523,-0.0
 0151109,0.00512798,-0.00232086,0.00054830,0.00083338,-0.00115381,0.001
 34645,0.00445312,0.00160178,0.01128138,0.00185820,0.01082008,-0.001367
 20,-0.00035548,-0.00026090,0.00018161,0.00016313,-0.00028677,0.1414451
 3,0.02722418,0.13662804,0.00973197,0.00441178,-0.00374386,-0.17370166,
 -0.12610245,0.07201568,-0.01117224,-0.01725546,0.01162737,-0.00159569,
 -0.00296196,-0.00558751,-0.00081844,0.00174427,0.00055126,0.00261561,-
 0.00201806,-0.00370281,-0.00050338,0.00108441,0.00214326,0.00015642,0.
 00011205,-0.00051038,-0.00062519,0.00160928,0.00133976,0.17638158,-0.0
 0873410,-0.00156040,0.00378880,-0.12692338,-0.17235743,0.08390073,-0.0
 0377625,0.00019334,0.00447196,-0.00338615,0.00527190,0.00108831,0.0018
 1281,-0.00208348,-0.00136128,-0.00182081,0.00511939,0.00486599,0.00183
 738,-0.00214481,-0.00139424,-0.00026098,0.00027526,0.00000123,0.001891
 61,-0.00215913,-0.00167719,0.13951634,0.17038873,0.01891336,0.01832309
 ,-0.00442906,0.07343093,0.08480844,-0.10724163,-0.01160460,-0.01043083
 ,0.01035806,-0.00485639,0.00155739,0.00002202,0.00043349,-0.00143697,-
 0.00108025,-0.00404324,0.00464768,-0.00336960,0.00084551,-0.00222673,0
 .00064021,0.00013254,0.00041365,-0.00012302,0.00085306,-0.00198941,0.0
 0002619,-0.07483233,-0.09361505,0.10518749,0.00019074,0.00017605,0.000
 66536,0.00050678,-0.00453551,0.00105598,-0.01007343,-0.00514852,-0.010
 02349,-0.26222413,-0.07710164,-0.10916565,-0.00086898,0.00499385,-0.00
 578613,0.00468285,-0.00319298,-0.00158454,-0.00091359,0.00126653,0.000
 02972,0.00028493,-0.00013926,0.00038261,-0.00046873,0.00061672,0.00036
 597,-0.00061552,-0.00000271,-0.00047840,0.26951364,0.00057969,-0.00051
 594,0.00034864,-0.00419732,0.00124139,0.00463284,-0.01804694,0.0002086
 7,-0.00821649,-0.07745911,-0.07403465,-0.03266088,0.01712770,0.0032374
 2,0.00746207,-0.00234448,0.00596439,0.00624791,0.00053766,-0.00143673,
 -0.00195303,0.00028107,0.00010556,0.00039759,0.00068276,-0.00093320,-0
 .00067205,-0.00074273,-0.00025378,-0.00069151,0.08321313,0.06612300,-0
 .00003047,-0.00009784,-0.00055057,0.00047300,0.00425888,-0.00019533,0.
 01220718,0.00604433,0.01009735,-0.10854968,-0.03226583,-0.10769924,-0.
 02669893,-0.00595321,-0.02267892,-0.00304654,0.00531008,-0.00142660,0.
 00128593,-0.00114718,0.00048411,-0.00034183,-0.00006714,-0.00010627,0.
 00025207,-0.00074511,-0.00019821,0.00079696,0.00012663,0.00048431,0.12
 458326,0.02476800,0.12216655,0.00843600,-0.01014690,0.01811762,-0.0013
 0535,-0.00562611,0.00005339,-0.00088247,-0.00003889,-0.00035969,-0.000
 95162,-0.00436095,-0.00547669,-0.01071326,0.01292926,-0.03064917,-0.05
 736714,0.00872346,-0.02943365,-0.00027650,0.00090080,0.00047099,0.0000
 5399,-0.00012054,-0.00013463,-0.00037381,0.00162933,0.00034591,0.00014
 654,-0.00015375,0.00120606,-0.00001456,0.00036855,-0.00093096,0.063248
 18,0.00268671,-0.00122527,0.01863886,-0.00571904,0.00180756,0.00334479
 ,-0.00046634,-0.00038704,-0.00070431,-0.00535440,0.00674472,0.00106921
 ,0.00062795,0.00455799,-0.01258330,0.00990181,-0.10664201,0.11831601,0
 .00084975,-0.00117284,-0.00067004,-0.00013601,0.00020715,0.00011938,0.
 00125696,-0.00160337,-0.00140797,0.00060252,-0.00068958,0.00064024,-0.
 00014566,0.00029387,-0.00023163,-0.00410426,0.09810882,-0.00400036,0.0
 0445131,-0.00422779,0.00021370,0.00344787,0.00171107,0.00037723,-0.000
 23170,0.00031985,-0.00376482,0.00216755,0.00290220,-0.00944918,0.00101
 689,-0.01534577,-0.03146389,0.11701189,-0.28078860,0.00055897,-0.00061
 364,-0.00043120,-0.00010797,0.00013648,0.00000910,0.00098762,-0.000996
 42,-0.00041760,-0.00009741,-0.00019590,-0.00047473,-0.00004470,0.00033
 691,-0.00037717,0.04679082,-0.12653124,0.29712065\\0.00003360,0.000027
 49,-0.00001344,0.00001693,0.00000595,0.00000970,-0.00004662,-0.0000254
 6,-0.00000782,0.00000188,-0.00000273,0.00000689,0.00002400,-0.00000205
 ,0.00002595,-0.00005373,-0.00002668,-0.00000293,0.00002648,-0.00000314
 ,0.00003360,-0.00001793,0.00000781,-0.00003291,0.00000466,0.00000529,-
 0.00000494,-0.00000683,0.00000521,-0.00001634,-0.00000019,-0.00000219,
 0.00000394,0.00001776,0.00001049,-0.00000169\\\@


 NATURE REVEALS EVERY SECRET ONCE.
                    - RALPH WALDO EMERSON
 Job cpu time:       0 days  0 hours  3 minutes 40.9 seconds.
 File lengths (MBytes):  RWF=    133 Int=      0 D2E=      0 Chk=      4 Scr=      2
 Normal termination of Gaussian 09 at Mon Mar 17 14:57:47 2025.
