 Entering Gaussian System, Link 0=g09
 Initial command:
 /apps/z_install_tree/linux-rocky8-ivybridge/gcc-12.2.0/gaussian-09-D.01-wczn3gur5lpur3omlkzwa2l5ecyxp5ef/g09/l1.exe "/srv/scratch/z5358697/gauss/Gau-2760063.inp" -scrdir="/srv/scratch/z5358697/gauss/"
 Entering Link 1 = /apps/z_install_tree/linux-rocky8-ivybridge/gcc-12.2.0/gaussian-09-D.01-wczn3gur5lpur3omlkzwa2l5ecyxp5ef/g09/l1.exe PID=   2760065.
  
 Copyright (c) 1988,1990,1992,1993,1995,1998,2003,2009,2013,
            Gaussian, Inc.  All Rights Reserved.
  
 This is part of the Gaussian(R) 09 program.  It is based on
 the Gaussian(R) 03 system (copyright 2003, Gaussian, Inc.),
 the Gaussian(R) 98 system (copyright 1998, Gaussian, Inc.),
 the Gaussian(R) 94 system (copyright 1995, Gaussian, Inc.),
 the Gaussian 92(TM) system (copyright 1992, Gaussian, Inc.),
 the Gaussian 90(TM) system (copyright 1990, Gaussian, Inc.),
 the Gaussian 88(TM) system (copyright 1988, Gaussian, Inc.),
 the Gaussian 86(TM) system (copyright 1986, Carnegie Mellon
 University), and the Gaussian 82(TM) system (copyright 1983,
 Carnegie Mellon University). Gaussian is a federally registered
 trademark of Gaussian, Inc.
  
 This software contains proprietary and confidential information,
 including trade secrets, belonging to Gaussian, Inc.
  
 This software is provided under written license and may be
 used, copied, transmitted, or stored only in accord with that
 written license.
  
 The following legend is applicable only to US Government
 contracts under FAR:
  
                    RESTRICTED RIGHTS LEGEND
  
 Use, reproduction and disclosure by the US Government is
 subject to restrictions as set forth in subparagraphs (a)
 and (c) of the Commercial Computer Software - Restricted
 Rights clause in FAR 52.227-19.
  
 Gaussian, Inc.
 340 Quinnipiac St., Bldg. 40, Wallingford CT 06492
  
  
 ---------------------------------------------------------------
 Warning -- This program may not be used in any manner that
 competes with the business of Gaussian, Inc. or will provide
 assistance to any competitor of Gaussian, Inc.  The licensee
 of this program is prohibited from giving any competitor of
 Gaussian, Inc. access to this program.  By using this program,
 the user acknowledges that Gaussian, Inc. is engaged in the
 business of creating and licensing software in the field of
 computational chemistry and represents and warrants to the
 licensee that it is not a competitor of Gaussian, Inc. and that
 it will not use this program in any manner prohibited above.
 ---------------------------------------------------------------
  

 Cite this work as:
 Gaussian 09, Revision D.01,
 M. J. Frisch, G. W. Trucks, H. B. Schlegel, G. E. Scuseria, 
 M. A. Robb, J. R. Cheeseman, G. Scalmani, V. Barone, B. Mennucci, 
 G. A. Petersson, H. Nakatsuji, M. Caricato, X. Li, H. P. Hratchian, 
 A. F. Izmaylov, J. Bloino, G. Zheng, J. L. Sonnenberg, M. Hada, 
 M. Ehara, K. Toyota, R. Fukuda, J. Hasegawa, M. Ishida, T. Nakajima, 
 Y. Honda, O. Kitao, H. Nakai, T. Vreven, J. A. Montgomery, Jr., 
 J. E. Peralta, F. Ogliaro, M. Bearpark, J. J. Heyd, E. Brothers, 
 K. N. Kudin, V. N. Staroverov, T. Keith, R. Kobayashi, J. Normand, 
 K. Raghavachari, A. Rendell, J. C. Burant, S. S. Iyengar, J. Tomasi, 
 M. Cossi, N. Rega, J. M. Millam, M. Klene, J. E. Knox, J. B. Cross, 
 V. Bakken, C. Adamo, J. Jaramillo, R. Gomperts, R. E. Stratmann, 
 O. Yazyev, A. J. Austin, R. Cammi, C. Pomelli, J. W. Ochterski, 
 R. L. Martin, K. Morokuma, V. G. Zakrzewski, G. A. Voth, 
 P. Salvador, J. J. Dannenberg, S. Dapprich, A. D. Daniels, 
 O. Farkas, J. B. Foresman, J. V. Ortiz, J. Cioslowski, 
 and D. J. Fox, Gaussian, Inc., Wallingford CT, 2013.
 
 ******************************************
 Gaussian 09:  ES64L-G09RevD.01 24-Apr-2013
                17-Mar-2025 
 ******************************************
 ---------------------------------
 #m062X/6-31+G(d) OPT Freq=noraman
 ---------------------------------
 1/14=-1,18=20,19=15,26=3,38=1/1,3;
 2/9=110,12=2,17=6,18=5,40=1/2;
 3/5=1,6=6,7=11,11=2,16=1,25=1,30=1,71=1,74=-55/1,2,3;
 4//1;
 5/5=2,38=5/2;
 6/7=2,8=2,9=2,10=2,28=1/1;
 7//1,2,3,16;
 1/14=-1,18=20,19=15,26=3/3(2);
 2/9=110/2;
 99//99;
 2/9=110/2;
 3/5=1,6=6,7=11,11=2,16=1,25=1,30=1,71=1,74=-55/1,2,3;
 4/5=5,16=3,69=1/1;
 5/5=2,38=5/2;
 7//1,2,3,16;
 1/14=-1,18=20,19=15,26=3/3(-5);
 2/9=110/2;
 6/7=2,8=2,9=2,10=2,19=2,28=1/1;
 99/9=1/99;
 ----------------------
 trifluoromethylbenzene
 ----------------------
 Symbolic Z-matrix:
 Charge =  0 Multiplicity = 1
 C                     1.8851   -1.0363   -0.1124 
 C                     2.921    -1.6309    0.6081 
 C                     2.8783   -1.652     2.0022 
 C                     1.7997   -1.0786    2.6757 
 C                     0.7638   -0.4841    1.9551 
 C                     0.8066   -0.463     0.561 
 C                     1.7548   -1.1014    4.1663 
 F                     2.8336   -1.7145    4.7372 
 F                     1.7117    0.1416    4.731 
 F                     0.6614   -1.7607    4.6486 
 H                     1.9176   -1.021    -1.198 
 H                     3.7604   -2.0783    0.0841 
 H                     3.6899   -2.1173    2.5553 
 H                    -0.0804   -0.0348    2.4713 
 H                    -0.0006   -0.001     0.0001 
 

 GradGradGradGradGradGradGradGradGradGradGradGradGradGradGradGradGradGrad
 Berny optimization.
 Initialization pass.
                           ----------------------------
                           !    Initial Parameters    !
                           ! (Angstroms and Degrees)  !
 --------------------------                            --------------------------
 ! Name  Definition              Value          Derivative Info.                !
 --------------------------------------------------------------------------------
 ! R1    R(1,2)                  1.3949         estimate D2E/DX2                !
 ! R2    R(1,6)                  1.3947         estimate D2E/DX2                !
 ! R3    R(1,11)                 1.0862         estimate D2E/DX2                !
 ! R4    R(2,3)                  1.3949         estimate D2E/DX2                !
 ! R5    R(2,12)                 1.086          estimate D2E/DX2                !
 ! R6    R(3,4)                  1.3949         estimate D2E/DX2                !
 ! R7    R(3,13)                 1.0868         estimate D2E/DX2                !
 ! R8    R(4,5)                  1.3949         estimate D2E/DX2                !
 ! R9    R(4,7)                  1.4915         estimate D2E/DX2                !
 ! R10   R(5,6)                  1.3949         estimate D2E/DX2                !
 ! R11   R(5,14)                 1.0867         estimate D2E/DX2                !
 ! R12   R(6,15)                 1.0861         estimate D2E/DX2                !
 ! R13   R(7,8)                  1.3659         estimate D2E/DX2                !
 ! R14   R(7,9)                  1.3659         estimate D2E/DX2                !
 ! R15   R(7,10)                 1.3648         estimate D2E/DX2                !
 ! A1    A(2,1,6)              120.0052         estimate D2E/DX2                !
 ! A2    A(2,1,11)             120.0016         estimate D2E/DX2                !
 ! A3    A(6,1,11)             119.9931         estimate D2E/DX2                !
 ! A4    A(1,2,3)              119.9958         estimate D2E/DX2                !
 ! A5    A(1,2,12)             120.0263         estimate D2E/DX2                !
 ! A6    A(3,2,12)             119.9778         estimate D2E/DX2                !
 ! A7    A(2,3,4)              119.9999         estimate D2E/DX2                !
 ! A8    A(2,3,13)             119.4885         estimate D2E/DX2                !
 ! A9    A(4,3,13)             120.5117         estimate D2E/DX2                !
 ! A10   A(3,4,5)              119.9999         estimate D2E/DX2                !
 ! A11   A(3,4,7)              119.97           estimate D2E/DX2                !
 ! A12   A(5,4,7)              120.0301         estimate D2E/DX2                !
 ! A13   A(4,5,6)              119.9967         estimate D2E/DX2                !
 ! A14   A(4,5,14)             120.5114         estimate D2E/DX2                !
 ! A15   A(6,5,14)             119.4919         estimate D2E/DX2                !
 ! A16   A(1,6,5)              120.0026         estimate D2E/DX2                !
 ! A17   A(1,6,15)             120.0132         estimate D2E/DX2                !
 ! A18   A(5,6,15)             119.9842         estimate D2E/DX2                !
 ! A19   A(4,7,8)              113.6294         estimate D2E/DX2                !
 ! A20   A(4,7,9)              113.5918         estimate D2E/DX2                !
 ! A21   A(4,7,10)             112.6234         estimate D2E/DX2                !
 ! A22   A(8,7,9)              105.1053         estimate D2E/DX2                !
 ! A23   A(8,7,10)             105.5576         estimate D2E/DX2                !
 ! A24   A(9,7,10)             105.5579         estimate D2E/DX2                !
 ! D1    D(6,1,2,3)             -0.0063         estimate D2E/DX2                !
 ! D2    D(6,1,2,12)           179.9362         estimate D2E/DX2                !
 ! D3    D(11,1,2,3)          -179.9176         estimate D2E/DX2                !
 ! D4    D(11,1,2,12)            0.0249         estimate D2E/DX2                !
 ! D5    D(2,1,6,5)              0.004          estimate D2E/DX2                !
 ! D6    D(2,1,6,15)          -179.9301         estimate D2E/DX2                !
 ! D7    D(11,1,6,5)           179.9153         estimate D2E/DX2                !
 ! D8    D(11,1,6,15)           -0.0188         estimate D2E/DX2                !
 ! D9    D(1,2,3,4)              0.0043         estimate D2E/DX2                !
 ! D10   D(1,2,3,13)          -179.99           estimate D2E/DX2                !
 ! D11   D(12,2,3,4)          -179.9383         estimate D2E/DX2                !
 ! D12   D(12,2,3,13)            0.0674         estimate D2E/DX2                !
 ! D13   D(2,3,4,5)              0.0            estimate D2E/DX2                !
 ! D14   D(2,3,4,7)           -179.9931         estimate D2E/DX2                !
 ! D15   D(13,3,4,5)           179.9942         estimate D2E/DX2                !
 ! D16   D(13,3,4,7)             0.0011         estimate D2E/DX2                !
 ! D17   D(3,4,5,6)             -0.0023         estimate D2E/DX2                !
 ! D18   D(3,4,5,14)          -179.9914         estimate D2E/DX2                !
 ! D19   D(7,4,5,6)            179.9908         estimate D2E/DX2                !
 ! D20   D(7,4,5,14)             0.0017         estimate D2E/DX2                !
 ! D21   D(3,4,7,8)              0.0047         estimate D2E/DX2                !
 ! D22   D(3,4,7,9)            120.1006         estimate D2E/DX2                !
 ! D23   D(3,4,7,10)          -119.9609         estimate D2E/DX2                !
 ! D24   D(5,4,7,8)           -179.9884         estimate D2E/DX2                !
 ! D25   D(5,4,7,9)            -59.8925         estimate D2E/DX2                !
 ! D26   D(5,4,7,10)            60.046          estimate D2E/DX2                !
 ! D27   D(4,5,6,1)              0.0003         estimate D2E/DX2                !
 ! D28   D(4,5,6,15)           179.9344         estimate D2E/DX2                !
 ! D29   D(14,5,6,1)           179.9895         estimate D2E/DX2                !
 ! D30   D(14,5,6,15)           -0.0763         estimate D2E/DX2                !
 --------------------------------------------------------------------------------
 Trust Radius=3.00D-01 FncErr=1.00D-07 GrdErr=1.00D-06
 Number of steps in this run=     79 maximum allowed number of steps=    100.
 GradGradGradGradGradGradGradGradGradGradGradGradGradGradGradGradGradGrad

                          Input orientation:                          
 ---------------------------------------------------------------------
 Center     Atomic      Atomic             Coordinates (Angstroms)
 Number     Number       Type             X           Y           Z
 ---------------------------------------------------------------------
      1          6           0        1.885100   -1.036300   -0.112400
      2          6           0        2.921000   -1.630900    0.608100
      3          6           0        2.878300   -1.652000    2.002200
      4          6           0        1.799700   -1.078600    2.675700
      5          6           0        0.763800   -0.484100    1.955100
      6          6           0        0.806600   -0.463000    0.561000
      7          6           0        1.754800   -1.101400    4.166300
      8          9           0        2.833600   -1.714500    4.737200
      9          9           0        1.711700    0.141600    4.731000
     10          9           0        0.661400   -1.760700    4.648600
     11          1           0        1.917600   -1.021000   -1.198000
     12          1           0        3.760400   -2.078300    0.084100
     13          1           0        3.689900   -2.117300    2.555300
     14          1           0       -0.080400   -0.034800    2.471300
     15          1           0       -0.000600   -0.001000    0.000100
 ---------------------------------------------------------------------
                    Distance matrix (angstroms):
                    1          2          3          4          5
     1  C    0.000000
     2  C    1.394904   0.000000
     3  C    2.416002   1.394913   0.000000
     4  C    2.789728   2.416054   1.394908   0.000000
     5  C    2.415946   2.789816   2.416054   1.394913   0.000000
     6  C    1.394741   2.415967   2.789753   2.416023   1.394916
     7  C    4.281179   3.781690   2.499748   1.491450   2.500509
     8  F    4.987808   4.130871   2.736079   2.392300   3.679407
     9  F    4.987589   4.647845   3.467608   2.391838   2.999273
    10  F    4.968835   4.631229   3.453968   2.377671   2.982471
    11  H    1.086194   2.154249   3.400351   3.875922   3.400229
    12  H    2.154327   1.085972   2.153820   3.400020   3.875787
    13  H    3.397424   2.149274   1.086793   2.160150   3.404357
    14  H    3.397307   3.876526   3.404306   2.160110   1.086741
    15  H    2.154151   3.400292   3.875857   3.400167   2.154000
                    6          7          8          9         10
     6  C    0.000000
     7  C    3.782172   0.000000
     8  F    4.807871   1.365880   0.000000
     9  F    4.309715   1.365940   2.168826   0.000000
    10  F    4.291105   1.364849   2.174497   2.174549   0.000000
    11  H    2.154012   5.367372   6.045378   6.045418   6.025606
    12  H    3.400230   4.652002   4.758429   5.542455   5.526240
    13  H    3.876514   2.715140   2.378274   3.708042   3.698767
    14  H    2.149272   2.716361   4.055501   2.889461   2.875697
    15  H    1.086105   4.652906   5.780042   5.033261   5.014314
                   11         12         13         14         15
    11  H    0.000000
    12  H    2.481446   0.000000
    13  H    4.293039   2.472513   0.000000
    14  H    4.292826   4.962495   4.308019   0.000000
    15  H    2.480995   4.297366   4.962617   2.472719   0.000000
 Stoichiometry    C7H5F3
 Framework group  C1[X(C7H5F3)]
 Deg. of freedom    39
 Full point group                 C1      NOp   1
 Largest Abelian subgroup         C1      NOp   1
 Largest concise Abelian subgroup C1      NOp   1
                         Standard orientation:                         
 ---------------------------------------------------------------------
 Center     Atomic      Atomic             Coordinates (Angstroms)
 Number     Number       Type             X           Y           Z
 ---------------------------------------------------------------------
      1          6           0        2.845172    0.001496   -0.002027
      2          6           0        2.147252    1.209247   -0.000289
      3          6           0        0.752339    1.208603    0.000189
      4          6           0        0.055444    0.000256   -0.000981
      5          6           0        0.753463   -1.207449   -0.002629
      6          6           0        2.148379   -1.206718   -0.003155
      7          6           0       -1.436006    0.000345   -0.000624
      8          9           0       -1.983400    1.251738    0.000787
      9          9           0       -1.982976   -0.626214   -1.084155
     10          9           0       -1.960803   -0.629999    1.090278
     11          1           0        3.931366    0.001885   -0.001047
     12          1           0        2.689441    2.150184    0.001635
     13          1           0        0.216931    2.154360    0.001381
     14          1           0        0.218954   -2.153655   -0.003689
     15          1           0        2.691665   -2.147178   -0.003361
 ---------------------------------------------------------------------
 Rotational constants (GHZ):      2.8332251      0.9320167      0.8011848
 Standard basis: 6-31+G(d) (6D, 7F)
 There are   200 symmetry adapted cartesian basis functions of A   symmetry.
 There are   200 symmetry adapted basis functions of A   symmetry.
   200 basis functions,   340 primitive gaussians,   200 cartesian basis functions
    37 alpha electrons       37 beta electrons
       nuclear repulsion energy       525.1639234210 Hartrees.
 NAtoms=   15 NActive=   15 NUniq=   15 SFac= 1.00D+00 NAtFMM=   60 NAOKFM=F Big=F
 Integral buffers will be    131072 words long.
 Raffenetti 2 integral format.
 Two-electron integral symmetry is turned on.
 One-electron integrals computed using PRISM.
 NBasis=   200 RedAO= T EigKep=  3.81D-06  NBF=   200
 NBsUse=   200 1.00D-06 EigRej= -1.00D+00 NBFU=   200
 ExpMin= 4.38D-02 ExpMax= 7.00D+03 ExpMxC= 1.05D+03 IAcc=2 IRadAn=         4 AccDes= 0.00D+00
 Harris functional with IExCor= 1009 and IRadAn=       4 diagonalized for initial guess.
 HarFok:  IExCor= 1009 AccDes= 0.00D+00 IRadAn=         4 IDoV= 1 UseB2=F ITyADJ=14
 ICtDFT=  3500011 ScaDFX=  1.000000  1.000000  1.000000  1.000000
 FoFCou: FMM=F IPFlag=           0 FMFlag=      100000 FMFlg1=           0
         NFxFlg=           0 DoJE=T BraDBF=F KetDBF=T FulRan=T
         wScrn=  0.000000 ICntrl=     500 IOpCl=  0 I1Cent=   200000004 NGrid=           0
         NMat0=    1 NMatS0=      1 NMatT0=    0 NMatD0=    1 NMtDS0=    0 NMtDT0=    0
 Petite list used in FoFCou.
 Requested convergence on RMS density matrix=1.00D-08 within 128 cycles.
 Requested convergence on MAX density matrix=1.00D-06.
 Requested convergence on             energy=1.00D-06.
 No special actions if energy rises.
 SCF Done:  E(RM062X) =  -569.099713848     A.U. after   14 cycles
            NFock= 14  Conv=0.29D-08     -V/T= 2.0082

 **********************************************************************

            Population analysis using the SCF density.

 **********************************************************************

 Orbital symmetries:
       Occupied  (A) (A) (A) (A) (A) (A) (A) (A) (A) (A) (A) (A)
                 (A) (A) (A) (A) (A) (A) (A) (A) (A) (A) (A) (A)
                 (A) (A) (A) (A) (A) (A) (A) (A) (A) (A) (A) (A)
                 (A)
       Virtual   (A) (A) (A) (A) (A) (A) (A) (A) (A) (A) (A) (A)
                 (A) (A) (A) (A) (A) (A) (A) (A) (A) (A) (A) (A)
                 (A) (A) (A) (A) (A) (A) (A) (A) (A) (A) (A) (A)
                 (A) (A) (A) (A) (A) (A) (A) (A) (A) (A) (A) (A)
                 (A) (A) (A) (A) (A) (A) (A) (A) (A) (A) (A) (A)
                 (A) (A) (A) (A) (A) (A) (A) (A) (A) (A) (A) (A)
                 (A) (A) (A) (A) (A) (A) (A) (A) (A) (A) (A) (A)
                 (A) (A) (A) (A) (A) (A) (A) (A) (A) (A) (A) (A)
                 (A) (A) (A) (A) (A) (A) (A) (A) (A) (A) (A) (A)
                 (A) (A) (A) (A) (A) (A) (A) (A) (A) (A) (A) (A)
                 (A) (A) (A) (A) (A) (A) (A) (A) (A) (A) (A) (A)
                 (A) (A) (A) (A) (A) (A) (A) (A) (A) (A) (A) (A)
                 (A) (A) (A) (A) (A) (A) (A) (A) (A) (A) (A) (A)
                 (A) (A) (A) (A) (A) (A) (A)
 The electronic state is 1-A.
 Alpha  occ. eigenvalues --  -25.29949 -25.29651 -25.29640 -10.81587 -10.59578
 Alpha  occ. eigenvalues --  -10.58585 -10.58453 -10.58107 -10.57970 -10.57893
 Alpha  occ. eigenvalues --   -1.45440  -1.36481  -1.36261  -0.99442  -0.90234
 Alpha  occ. eigenvalues --   -0.87040  -0.80915  -0.72667  -0.72227  -0.68061
 Alpha  occ. eigenvalues --   -0.67437  -0.66126  -0.59662  -0.56798  -0.56599
 Alpha  occ. eigenvalues --   -0.54611  -0.54144  -0.52421  -0.52332  -0.50687
 Alpha  occ. eigenvalues --   -0.50572  -0.49218  -0.46226  -0.43313  -0.42998
 Alpha  occ. eigenvalues --   -0.33644  -0.33118
 Alpha virt. eigenvalues --   -0.01391  -0.00142   0.01108   0.02825   0.03132
 Alpha virt. eigenvalues --    0.04847   0.04901   0.05242   0.07361   0.07695
 Alpha virt. eigenvalues --    0.08099   0.08455   0.09270   0.11524   0.12645
 Alpha virt. eigenvalues --    0.12908   0.13417   0.13928   0.14385   0.15533
 Alpha virt. eigenvalues --    0.15597   0.16487   0.17703   0.18168   0.18850
 Alpha virt. eigenvalues --    0.19232   0.20036   0.21883   0.22366   0.24027
 Alpha virt. eigenvalues --    0.24243   0.24574   0.25547   0.25713   0.26040
 Alpha virt. eigenvalues --    0.28367   0.29422   0.30440   0.30814   0.31124
 Alpha virt. eigenvalues --    0.31505   0.33680   0.35627   0.35855   0.36615
 Alpha virt. eigenvalues --    0.37648   0.38814   0.40238   0.40928   0.41774
 Alpha virt. eigenvalues --    0.43056   0.45598   0.46413   0.47771   0.48747
 Alpha virt. eigenvalues --    0.54429   0.61979   0.64300   0.68432   0.69582
 Alpha virt. eigenvalues --    0.71163   0.72484   0.74518   0.75553   0.77093
 Alpha virt. eigenvalues --    0.77409   0.80024   0.81811   0.82570   0.84333
 Alpha virt. eigenvalues --    0.84489   0.85657   0.90016   0.93002   0.96657
 Alpha virt. eigenvalues --    0.98337   0.99708   1.01372   1.04620   1.06669
 Alpha virt. eigenvalues --    1.11003   1.12299   1.17538   1.18535   1.21257
 Alpha virt. eigenvalues --    1.21449   1.24314   1.28891   1.32377   1.42734
 Alpha virt. eigenvalues --    1.44336   1.45259   1.50012   1.50273   1.51707
 Alpha virt. eigenvalues --    1.53405   1.58673   1.63270   1.66411   1.68204
 Alpha virt. eigenvalues --    1.69389   1.73155   1.74144   1.75055   1.75155
 Alpha virt. eigenvalues --    1.77257   1.78013   1.82654   1.85286   1.87043
 Alpha virt. eigenvalues --    1.88858   1.89733   1.91649   1.92119   1.92248
 Alpha virt. eigenvalues --    1.96355   1.99985   2.03413   2.05804   2.06971
 Alpha virt. eigenvalues --    2.07114   2.11349   2.12700   2.13002   2.13940
 Alpha virt. eigenvalues --    2.14436   2.17298   2.17731   2.20444   2.26052
 Alpha virt. eigenvalues --    2.27558   2.30527   2.30903   2.32064   2.36487
 Alpha virt. eigenvalues --    2.48310   2.49242   2.59615   2.63141   2.65088
 Alpha virt. eigenvalues --    2.68154   2.72878   2.75604   2.76973   2.77188
 Alpha virt. eigenvalues --    2.81601   2.89456   2.97406   3.10948   3.17914
 Alpha virt. eigenvalues --    3.25792   3.29333   3.40485   4.24545   4.25139
 Alpha virt. eigenvalues --    4.27213   4.39039   4.39380   4.58114   4.75827
 Alpha virt. eigenvalues --    5.48883   5.98929   6.82567
          Condensed to atoms (all electrons):
               1          2          3          4          5          6
     1  C    5.185787   0.387476   0.310618  -0.576751   0.008581   0.464675
     2  C    0.387476   6.125965  -0.437882  -0.100875  -0.049947   0.140387
     3  C    0.310618  -0.437882  11.795688  -1.857986  -3.961068  -0.641477
     4  C   -0.576751  -0.100875  -1.857986   9.389457  -0.314276   0.029421
     5  C    0.008581  -0.049947  -3.961068  -0.314276  10.380608   0.051874
     6  C    0.464675   0.140387  -0.641477   0.029421   0.051874   6.247710
     7  C    0.033887  -0.155455   0.789607  -0.356013  -0.181339  -0.373036
     8  F    0.000787   0.063964   0.016524  -0.078584  -0.041832   0.003648
     9  F   -0.009376   0.018853  -0.035504   0.134972  -0.161068   0.026398
    10  F   -0.009295   0.018864  -0.036479   0.125431  -0.157574   0.027003
    11  H    0.286741   0.012335  -0.001594   0.004147   0.006903  -0.002882
    12  H    0.003760   0.271646   0.028484   0.014328  -0.014837   0.003594
    13  H   -0.007223   0.000041   0.250014   0.061971  -0.005523   0.000698
    14  H   -0.011475  -0.011204   0.062220   0.132412   0.141294  -0.031075
    15  H    0.006790   0.001085  -0.001900   0.022751  -0.004347   0.282693
               7          8          9         10         11         12
     1  C    0.033887   0.000787  -0.009376  -0.009295   0.286741   0.003760
     2  C   -0.155455   0.063964   0.018853   0.018864   0.012335   0.271646
     3  C    0.789607   0.016524  -0.035504  -0.036479  -0.001594   0.028484
     4  C   -0.356013  -0.078584   0.134972   0.125431   0.004147   0.014328
     5  C   -0.181339  -0.041832  -0.161068  -0.157574   0.006903  -0.014837
     6  C   -0.373036   0.003648   0.026398   0.027003  -0.002882   0.003594
     7  C    4.770716   0.154344   0.161814   0.164334   0.002024   0.001556
     8  F    0.154344   9.309430  -0.045954  -0.043640  -0.000002   0.000076
     9  F    0.161814  -0.045954   9.249232  -0.059389   0.000001   0.000006
    10  F    0.164334  -0.043640  -0.059389   9.250330   0.000001   0.000006
    11  H    0.002024  -0.000002   0.000001   0.000001   0.483864  -0.003679
    12  H    0.001556   0.000076   0.000006   0.000006  -0.003679   0.480333
    13  H   -0.004445   0.006154  -0.000066  -0.000061  -0.000118  -0.003686
    14  H    0.016553   0.000312   0.000634   0.000664  -0.000120   0.000014
    15  H    0.002278   0.000014   0.000000   0.000001  -0.003666  -0.000129
              13         14         15
     1  C   -0.007223  -0.011475   0.006790
     2  C    0.000041  -0.011204   0.001085
     3  C    0.250014   0.062220  -0.001900
     4  C    0.061971   0.132412   0.022751
     5  C   -0.005523   0.141294  -0.004347
     6  C    0.000698  -0.031075   0.282693
     7  C   -0.004445   0.016553   0.002278
     8  F    0.006154   0.000312   0.000014
     9  F   -0.000066   0.000634   0.000000
    10  F   -0.000061   0.000664   0.000001
    11  H   -0.000118  -0.000120  -0.003666
    12  H   -0.003686   0.000014  -0.000129
    13  H    0.461434  -0.000113   0.000012
    14  H   -0.000113   0.468500  -0.003675
    15  H    0.000012  -0.003675   0.478846
 Mulliken charges:
               1
     1  C   -0.074983
     2  C   -0.285253
     3  C   -0.279263
     4  C   -0.630403
     5  C    0.302552
     6  C   -0.229631
     7  C    0.973178
     8  F   -0.345240
     9  F   -0.280552
    10  F   -0.280196
    11  H    0.216047
    12  H    0.218528
    13  H    0.240911
    14  H    0.235059
    15  H    0.219247
 Sum of Mulliken charges =   0.00000
 Mulliken charges with hydrogens summed into heavy atoms:
               1
     1  C    0.141065
     2  C   -0.066725
     3  C   -0.038352
     4  C   -0.630403
     5  C    0.537610
     6  C   -0.010384
     7  C    0.973178
     8  F   -0.345240
     9  F   -0.280552
    10  F   -0.280196
 Electronic spatial extent (au):  <R**2>=           1389.2856
 Charge=              0.0000 electrons
 Dipole moment (field-independent basis, Debye):
    X=              3.4425    Y=              0.0220    Z=             -0.0021  Tot=              3.4425
 Quadrupole moment (field-independent basis, Debye-Ang):
   XX=            -54.2720   YY=            -50.6409   ZZ=            -60.6858
   XY=             -0.0628   XZ=             -0.0050   YZ=              0.0151
 Traceless Quadrupole moment (field-independent basis, Debye-Ang):
   XX=              0.9276   YY=              4.5586   ZZ=             -5.4862
   XY=             -0.0628   XZ=             -0.0050   YZ=              0.0151
 Octapole moment (field-independent basis, Debye-Ang**2):
  XXX=             -7.9591  YYY=             -1.1186  ZZZ=              0.0717  XYY=             -3.6406
  XXY=             -0.0693  XXZ=              0.0911  XZZ=            -18.0687  YZZ=              1.3444
  YYZ=              0.0174  XYZ=              0.0190
 Hexadecapole moment (field-independent basis, Debye-Ang**3):
 XXXX=          -1090.3944 YYYY=           -344.4876 ZZZZ=           -132.6747 XXXY=             -0.4141
 XXXZ=             -0.0470 YYYX=              1.8169 YYYZ=              0.0107 ZZZX=              0.1341
 ZZZY=             -0.0745 XXYY=           -243.3635 XXZZ=           -239.0136 YYZZ=            -91.9674
 XXYZ=              0.0075 YYXZ=              0.0453 ZZXY=             -2.1451
 N-N= 5.251639234210D+02 E-N=-2.387186612128D+03  KE= 5.644930441535D+02
 Calling FoFJK, ICntrl=      2127 FMM=F ISym2X=0 I1Cent= 0 IOpClX= 0 NMat=1 NMatS=1 NMatT=0.
 ***** Axes restored to original set *****
 -------------------------------------------------------------------
 Center     Atomic                   Forces (Hartrees/Bohr)
 Number     Number              X              Y              Z
 -------------------------------------------------------------------
      1        6           0.001197795   -0.000806280    0.001085203
      2        6          -0.002827616    0.001434342    0.000002337
      3        6           0.003132453   -0.001594664   -0.000684016
      4        6           0.004709550   -0.000930994   -0.006751567
      5        6          -0.003401506    0.001967231   -0.001322277
      6        6           0.001065302   -0.000774153    0.002686126
      7        6           0.000877605   -0.001996918    0.034738637
      8        9          -0.011934046    0.006342265   -0.012905178
      9        9          -0.001460932   -0.011894308   -0.012068558
     10        9           0.009710274    0.007632161   -0.008983082
     11        1          -0.000006645    0.000070213    0.000126592
     12        1          -0.000040027    0.000036235    0.000735862
     13        1          -0.001786024    0.000967851    0.000917455
     14        1           0.000699010   -0.000442324    0.001541813
     15        1           0.000064807   -0.000010657    0.000880652
 -------------------------------------------------------------------
 Cartesian Forces:  Max     0.034738637 RMS     0.007013473

 GradGradGradGradGradGradGradGradGradGradGradGradGradGradGradGradGradGrad
 Berny optimization.
 FormGI is forming the generalized inverse of G from B-inverse, IUseBI=4.
 Internal  Forces:  Max     0.017674681 RMS     0.004093247
 Search for a local minimum.
 Step number   1 out of a maximum of   79
 All quantities printed in internal units (Hartrees-Bohrs-Radians)
 Mixed Optimization -- RFO/linear search
 Second derivative matrix not updated -- first step.
 ITU=  0
     Eigenvalues ---    0.00879   0.01645   0.02156   0.02156   0.02156
     Eigenvalues ---    0.02156   0.02156   0.02157   0.02157   0.02158
     Eigenvalues ---    0.10331   0.10488   0.16000   0.16000   0.16000
     Eigenvalues ---    0.16000   0.16000   0.22000   0.22000   0.23486
     Eigenvalues ---    0.25000   0.25000   0.25000   0.25000   0.33291
     Eigenvalues ---    0.35186   0.35192   0.35256   0.35267   0.35282
     Eigenvalues ---    0.42131   0.42327   0.46474   0.46474   0.46475
     Eigenvalues ---    0.46494   0.51765   0.51777   0.51979
 RFO step:  Lambda=-3.02749741D-03 EMin= 8.79042636D-03
 Linear search not attempted -- first point.
 Iteration  1 RMS(Cart)=  0.02137272 RMS(Int)=  0.00031899
 Iteration  2 RMS(Cart)=  0.00029515 RMS(Int)=  0.00009228
 Iteration  3 RMS(Cart)=  0.00000011 RMS(Int)=  0.00009228
 Variable       Old X    -DE/DX   Delta X   Delta X   Delta X     New X
                                 (Linear)    (Quad)   (Total)
    R1        2.63599  -0.00114   0.00000  -0.00242  -0.00243   2.63356
    R2        2.63568   0.00047   0.00000   0.00097   0.00096   2.63664
    R3        2.05261  -0.00013   0.00000  -0.00035  -0.00035   2.05226
    R4        2.63600  -0.00177   0.00000  -0.00373  -0.00373   2.63227
    R5        2.05219  -0.00040   0.00000  -0.00112  -0.00112   2.05107
    R6        2.63599  -0.00181   0.00000  -0.00383  -0.00382   2.63217
    R7        2.05374  -0.00128   0.00000  -0.00360  -0.00360   2.05014
    R8        2.63600  -0.00117   0.00000  -0.00252  -0.00251   2.63349
    R9        2.81843   0.00086   0.00000   0.00257   0.00257   2.82101
   R10        2.63601  -0.00376   0.00000  -0.00809  -0.00809   2.62792
   R11        2.05364   0.00000   0.00000   0.00001   0.00001   2.05365
   R12        2.05244  -0.00051   0.00000  -0.00143  -0.00143   2.05101
   R13        2.58114  -0.01767   0.00000  -0.03394  -0.03394   2.54720
   R14        2.58125  -0.01577   0.00000  -0.03028  -0.03028   2.55097
   R15        2.57919  -0.01463   0.00000  -0.02799  -0.02799   2.55120
    A1        2.09449   0.00053   0.00000   0.00265   0.00264   2.09713
    A2        2.09442  -0.00024   0.00000  -0.00117  -0.00117   2.09326
    A3        2.09428  -0.00029   0.00000  -0.00148  -0.00147   2.09280
    A4        2.09432   0.00016   0.00000   0.00122   0.00121   2.09553
    A5        2.09485   0.00057   0.00000   0.00336   0.00336   2.09821
    A6        2.09401  -0.00073   0.00000  -0.00457  -0.00457   2.08944
    A7        2.09439  -0.00242   0.00000  -0.01029  -0.01029   2.08411
    A8        2.08547   0.00309   0.00000   0.01669   0.01669   2.10215
    A9        2.10333  -0.00067   0.00000  -0.00640  -0.00640   2.09693
   A10        2.09439   0.00361   0.00000   0.01462   0.01463   2.10902
   A11        2.09387   0.00206   0.00000   0.00798   0.00797   2.10184
   A12        2.09492  -0.00567   0.00000  -0.02259  -0.02260   2.07232
   A13        2.09434  -0.00197   0.00000  -0.00870  -0.00869   2.08564
   A14        2.10332  -0.00080   0.00000  -0.00662  -0.00662   2.09670
   A15        2.08553   0.00278   0.00000   0.01532   0.01531   2.10084
   A16        2.09444   0.00009   0.00000   0.00051   0.00050   2.09494
   A17        2.09463   0.00068   0.00000   0.00422   0.00422   2.09884
   A18        2.09412  -0.00077   0.00000  -0.00472  -0.00472   2.08940
   A19        1.98321  -0.00672   0.00000  -0.02296  -0.02313   1.96008
   A20        1.98255  -0.00773   0.00000  -0.03258  -0.03294   1.94961
   A21        1.96565  -0.00386   0.00000  -0.01684  -0.01713   1.94852
   A22        1.83443   0.00893   0.00000   0.03805   0.03782   1.87226
   A23        1.84233   0.00683   0.00000   0.03064   0.03055   1.87288
   A24        1.84233   0.00491   0.00000   0.01297   0.01251   1.85484
    D1       -0.00011  -0.00001   0.00000  -0.00025  -0.00026  -0.00037
    D2        3.14048   0.00003   0.00000   0.00128   0.00128  -3.14143
    D3       -3.14016  -0.00005   0.00000  -0.00211  -0.00211   3.14092
    D4        0.00043  -0.00001   0.00000  -0.00057  -0.00057  -0.00014
    D5        0.00007   0.00000   0.00000  -0.00015  -0.00015  -0.00008
    D6       -3.14037  -0.00003   0.00000  -0.00138  -0.00138   3.14143
    D7        3.14012   0.00004   0.00000   0.00170   0.00170  -3.14137
    D8       -0.00033   0.00001   0.00000   0.00047   0.00047   0.00014
    D9        0.00007   0.00002   0.00000   0.00089   0.00088   0.00096
   D10       -3.14142   0.00001   0.00000   0.00031   0.00030  -3.14112
   D11       -3.14052  -0.00002   0.00000  -0.00065  -0.00065  -3.14117
   D12        0.00118  -0.00003   0.00000  -0.00123  -0.00124  -0.00006
   D13        0.00000  -0.00003   0.00000  -0.00112  -0.00112  -0.00112
   D14       -3.14147  -0.00004   0.00000  -0.00168  -0.00168   3.14003
   D15        3.14149  -0.00001   0.00000  -0.00053  -0.00053   3.14096
   D16        0.00002  -0.00002   0.00000  -0.00109  -0.00110  -0.00108
   D17       -0.00004   0.00002   0.00000   0.00071   0.00071   0.00067
   D18       -3.14144   0.00001   0.00000   0.00035   0.00035  -3.14109
   D19        3.14143   0.00003   0.00000   0.00127   0.00127  -3.14048
   D20        0.00003   0.00002   0.00000   0.00091   0.00091   0.00094
   D21        0.00008   0.00009   0.00000  -0.00013  -0.00018  -0.00010
   D22        2.09615   0.00098   0.00000   0.00831   0.00821   2.10436
   D23       -2.09371  -0.00110   0.00000  -0.01103  -0.01089  -2.10460
   D24       -3.14139   0.00007   0.00000  -0.00069  -0.00074   3.14105
   D25       -1.04532   0.00097   0.00000   0.00775   0.00766  -1.03767
   D26        1.04800  -0.00111   0.00000  -0.01160  -0.01144   1.03656
   D27        0.00001   0.00000   0.00000  -0.00008  -0.00007  -0.00007
   D28        3.14045   0.00003   0.00000   0.00116   0.00116  -3.14158
   D29        3.14141   0.00001   0.00000   0.00028   0.00028  -3.14149
   D30       -0.00133   0.00004   0.00000   0.00151   0.00151   0.00018
         Item               Value     Threshold  Converged?
 Maximum Force            0.017675     0.000450     NO 
 RMS     Force            0.004093     0.000300     NO 
 Maximum Displacement     0.104091     0.001800     NO 
 RMS     Displacement     0.021440     0.001200     NO 
 Predicted change in Energy=-1.526884D-03
 GradGradGradGradGradGradGradGradGradGradGradGradGradGradGradGradGradGrad

                          Input orientation:                          
 ---------------------------------------------------------------------
 Center     Atomic      Atomic             Coordinates (Angstroms)
 Number     Number       Type             X           Y           Z
 ---------------------------------------------------------------------
      1          6           0        1.884154   -1.036195   -0.100738
      2          6           0        2.923258   -1.632187    0.611464
      3          6           0        2.890032   -1.658112    2.003766
      4          6           0        1.811043   -1.085353    2.672989
      5          6           0        0.768564   -0.487507    1.967376
      6          6           0        0.807368   -0.464118    0.577480
      7          6           0        1.751284   -1.102118    4.164510
      8          9           0        2.821753   -1.710903    4.712569
      9          9           0        1.694510    0.145887    4.675917
     10          9           0        0.651281   -1.744577    4.611547
     11          1           0        1.912528   -1.016624   -1.186198
     12          1           0        3.761465   -2.077380    0.084909
     13          1           0        3.695836   -2.120052    2.564361
     14          1           0       -0.067512   -0.043654    2.501222
     15          1           0       -0.002665    0.000592    0.024426
 ---------------------------------------------------------------------
                    Distance matrix (angstroms):
                    1          2          3          4          5
     1  C    0.000000
     2  C    1.393619   0.000000
     3  C    2.414023   1.392939   0.000000
     4  C    2.775126   2.405396   1.392885   0.000000
     5  C    2.413026   2.791325   2.423276   1.393583   0.000000
     6  C    1.395249   2.417132   2.792383   2.405089   1.390634
     7  C    4.267827   3.778707   2.504934   1.492812   2.484127
     8  F    4.949974   4.103115   2.710178   2.360663   3.639831
     9  F    4.924400   4.603384   3.438616   2.353987   2.931682
    10  F    4.922135   4.601648   3.438023   2.353217   2.930123
    11  H    1.086007   2.152227   3.397483   3.861133   3.396122
    12  H    2.154721   1.085379   2.148765   3.389162   3.876704
    13  H    3.399955   2.156084   1.084886   2.152869   3.404485
    14  H    3.400637   3.878056   3.406024   2.154904   1.086747
    15  H    2.156543   3.401706   3.877728   3.388761   2.146646
                    6          7          8          9         10
     6  C    0.000000
     7  C    3.763616   0.000000
     8  F    4.765624   1.347921   0.000000
     9  F    4.237489   1.349917   2.172484   0.000000
    10  F    4.235284   1.350038   2.173082   2.160168   0.000000
    11  H    2.153416   5.353820   6.008674   5.980247   5.977834
    12  H    3.401753   4.651356   4.736307   5.503869   5.502223
    13  H    3.877250   2.716238   2.355042   3.687608   3.687990
    14  H    2.154759   2.682329   4.002202   2.805342   2.804152
    15  H    1.085347   4.629536   5.734564   4.953573   4.951256
                   11         12         13         14         15
    11  H    0.000000
    12  H    2.481830   0.000000
    13  H    4.297027   2.480688   0.000000
    14  H    4.297010   4.963433   4.298628   0.000000
    15  H    2.483606   4.300034   4.962591   2.478040   0.000000
 Stoichiometry    C7H5F3
 Framework group  C1[X(C7H5F3)]
 Deg. of freedom    39
 Full point group                 C1      NOp   1
 Largest Abelian subgroup         C1      NOp   1
 Largest concise Abelian subgroup C1      NOp   1
                         Standard orientation:                         
 ---------------------------------------------------------------------
 Center     Atomic      Atomic             Coordinates (Angstroms)
 Number     Number       Type             X           Y           Z
 ---------------------------------------------------------------------
      1          6           0        2.823664   -0.012022    0.000381
      2          6           0        2.140905    1.202892    0.000321
      3          6           0        0.748080    1.220640   -0.000827
      4          6           0        0.048681    0.016079   -0.000746
      5          6           0        0.724760   -1.202523   -0.000868
      6          6           0        2.115345   -1.214105   -0.000261
      7          6           0       -1.444113    0.008624    0.000049
      8          9           0       -1.961902    1.253125    0.000754
      9          9           0       -1.940719   -0.631502   -1.079718
     10          9           0       -1.938241   -0.632608    1.080448
     11          1           0        3.909612   -0.023388    0.000644
     12          1           0        2.690895    2.138605    0.000666
     13          1           0        0.210327    2.162871   -0.001322
     14          1           0        0.167542   -2.135544   -0.001277
     15          1           0        2.645449   -2.161189   -0.000367
 ---------------------------------------------------------------------
 Rotational constants (GHZ):      2.8351053      0.9516838      0.8142848
 Standard basis: 6-31+G(d) (6D, 7F)
 There are   200 symmetry adapted cartesian basis functions of A   symmetry.
 There are   200 symmetry adapted basis functions of A   symmetry.
   200 basis functions,   340 primitive gaussians,   200 cartesian basis functions
    37 alpha electrons       37 beta electrons
       nuclear repulsion energy       528.2642675636 Hartrees.
 NAtoms=   15 NActive=   15 NUniq=   15 SFac= 1.00D+00 NAtFMM=   60 NAOKFM=F Big=F
 Integral buffers will be    131072 words long.
 Raffenetti 2 integral format.
 Two-electron integral symmetry is turned on.
 One-electron integrals computed using PRISM.
 NBasis=   200 RedAO= T EigKep=  3.77D-06  NBF=   200
 NBsUse=   200 1.00D-06 EigRej= -1.00D+00 NBFU=   200
 Initial guess from the checkpoint file:  "/srv/scratch/z5358697/gauss/Gau-2760065.chk"
 B after Tr=     0.000000    0.000000    0.000000
         Rot=    0.999999    0.000271    0.000686    0.001344 Ang=   0.18 deg.
 ExpMin= 4.38D-02 ExpMax= 7.00D+03 ExpMxC= 1.05D+03 IAcc=2 IRadAn=         4 AccDes= 0.00D+00
 Harris functional with IExCor= 1009 and IRadAn=       4 diagonalized for initial guess.
 HarFok:  IExCor= 1009 AccDes= 0.00D+00 IRadAn=         4 IDoV= 1 UseB2=F ITyADJ=14
 ICtDFT=  3500011 ScaDFX=  1.000000  1.000000  1.000000  1.000000
 FoFCou: FMM=F IPFlag=           0 FMFlag=      100000 FMFlg1=           0
         NFxFlg=           0 DoJE=T BraDBF=F KetDBF=T FulRan=T
         wScrn=  0.000000 ICntrl=     500 IOpCl=  0 I1Cent=   200000004 NGrid=           0
         NMat0=    1 NMatS0=      1 NMatT0=    0 NMatD0=    1 NMtDS0=    0 NMtDT0=    0
 Petite list used in FoFCou.
 Requested convergence on RMS density matrix=1.00D-08 within 128 cycles.
 Requested convergence on MAX density matrix=1.00D-06.
 Requested convergence on             energy=1.00D-06.
 No special actions if energy rises.
 SCF Done:  E(RM062X) =  -569.101311994     A.U. after   12 cycles
            NFock= 12  Conv=0.99D-08     -V/T= 2.0079
 Calling FoFJK, ICntrl=      2127 FMM=F ISym2X=0 I1Cent= 0 IOpClX= 0 NMat=1 NMatS=1 NMatT=0.
 ***** Axes restored to original set *****
 -------------------------------------------------------------------
 Center     Atomic                   Forces (Hartrees/Bohr)
 Number     Number              X              Y              Z
 -------------------------------------------------------------------
      1        6           0.000604807   -0.000336434    0.000060718
      2        6          -0.000828989    0.000577859   -0.001088623
      3        6          -0.000229160    0.000041522    0.000056873
      4        6           0.002664240   -0.001224601   -0.004865513
      5        6          -0.001177707    0.000630458   -0.000501503
      6        6          -0.000045383    0.000056298   -0.000011790
      7        6           0.000048273   -0.000263018    0.006207745
      8        9          -0.004442349    0.002388307   -0.000149521
      9        9           0.000588071   -0.002767502   -0.000027118
     10        9           0.002777942    0.000979206    0.000192236
     11        1          -0.000039284   -0.000001859   -0.000008137
     12        1           0.000064474   -0.000026774   -0.000202971
     13        1          -0.000291350    0.000132604    0.000220861
     14        1           0.000352013   -0.000221920    0.000428879
     15        1          -0.000045598    0.000035853   -0.000312137
 -------------------------------------------------------------------
 Cartesian Forces:  Max     0.006207745 RMS     0.001622771

 GradGradGradGradGradGradGradGradGradGradGradGradGradGradGradGradGradGrad
 Berny optimization.
 Using GEDIIS/GDIIS optimizer.
 FormGI is forming the generalized inverse of G from B-inverse, IUseBI=4.
 Internal  Forces:  Max     0.006255575 RMS     0.001242109
 Search for a local minimum.
 Step number   2 out of a maximum of   79
 All quantities printed in internal units (Hartrees-Bohrs-Radians)
 Mixed Optimization -- RFO/linear search
 Update second derivatives using D2CorX and points    1    2
 DE= -1.60D-03 DEPred=-1.53D-03 R= 1.05D+00
 TightC=F SS=  1.41D+00  RLast= 9.73D-02 DXNew= 5.0454D-01 2.9196D-01
 Trust test= 1.05D+00 RLast= 9.73D-02 DXMaxT set to 3.00D-01
 ITU=  1  0
 Use linear search instead of GDIIS.
     Eigenvalues ---    0.00879   0.01652   0.02156   0.02156   0.02156
     Eigenvalues ---    0.02156   0.02156   0.02157   0.02157   0.02158
     Eigenvalues ---    0.10738   0.10989   0.15653   0.16000   0.16000
     Eigenvalues ---    0.16000   0.16028   0.21928   0.22001   0.22826
     Eigenvalues ---    0.23790   0.25000   0.25000   0.28224   0.34747
     Eigenvalues ---    0.35190   0.35235   0.35256   0.35277   0.35605
     Eigenvalues ---    0.42167   0.42318   0.44829   0.46475   0.46492
     Eigenvalues ---    0.46644   0.47800   0.51881   0.52151
 RFO step:  Lambda=-3.29383795D-04 EMin= 8.79063972D-03
 Quartic linear search produced a step of  0.03552.
 Iteration  1 RMS(Cart)=  0.00892227 RMS(Int)=  0.00004181
 Iteration  2 RMS(Cart)=  0.00006023 RMS(Int)=  0.00000477
 Iteration  3 RMS(Cart)=  0.00000000 RMS(Int)=  0.00000477
 Variable       Old X    -DE/DX   Delta X   Delta X   Delta X     New X
                                 (Linear)    (Quad)   (Total)
    R1        2.63356  -0.00062  -0.00009  -0.00163  -0.00172   2.63184
    R2        2.63664   0.00005   0.00003   0.00014   0.00017   2.63681
    R3        2.05226   0.00001  -0.00001   0.00000  -0.00002   2.05224
    R4        2.63227   0.00116  -0.00013   0.00230   0.00216   2.63444
    R5        2.05107   0.00016  -0.00004   0.00040   0.00036   2.05143
    R6        2.63217  -0.00029  -0.00014  -0.00087  -0.00100   2.63117
    R7        2.05014  -0.00016  -0.00013  -0.00072  -0.00084   2.04929
    R8        2.63349   0.00111  -0.00009   0.00237   0.00228   2.63577
    R9        2.82101   0.00626   0.00009   0.01962   0.01971   2.84072
   R10        2.62792   0.00040  -0.00029   0.00033   0.00004   2.62796
   R11        2.05365  -0.00015   0.00000  -0.00045  -0.00045   2.05320
   R12        2.05101   0.00021  -0.00005   0.00050   0.00045   2.05146
   R13        2.54720  -0.00468  -0.00121  -0.01180  -0.01301   2.53420
   R14        2.55097  -0.00259  -0.00108  -0.00736  -0.00844   2.54253
   R15        2.55120  -0.00266  -0.00099  -0.00732  -0.00831   2.54289
    A1        2.09713   0.00000   0.00009  -0.00013  -0.00004   2.09709
    A2        2.09326   0.00002  -0.00004   0.00020   0.00016   2.09342
    A3        2.09280  -0.00002  -0.00005  -0.00007  -0.00012   2.09268
    A4        2.09553   0.00031   0.00004   0.00132   0.00136   2.09690
    A5        2.09821  -0.00029   0.00012  -0.00125  -0.00113   2.09708
    A6        2.08944  -0.00002  -0.00016  -0.00007  -0.00023   2.08921
    A7        2.08411  -0.00001  -0.00037  -0.00076  -0.00112   2.08298
    A8        2.10215   0.00038   0.00059   0.00359   0.00418   2.10633
    A9        2.09693  -0.00037  -0.00023  -0.00283  -0.00306   2.09387
   A10        2.10902  -0.00048   0.00052  -0.00076  -0.00024   2.10878
   A11        2.10184   0.00219   0.00028   0.00952   0.00980   2.11165
   A12        2.07232  -0.00171  -0.00080  -0.00876  -0.00956   2.06276
   A13        2.08564   0.00028  -0.00031   0.00084   0.00054   2.08618
   A14        2.09670  -0.00072  -0.00024  -0.00494  -0.00518   2.09152
   A15        2.10084   0.00045   0.00054   0.00410   0.00464   2.10548
   A16        2.09494  -0.00009   0.00002  -0.00051  -0.00049   2.09445
   A17        2.09884  -0.00021   0.00015  -0.00111  -0.00096   2.09788
   A18        2.08940   0.00031  -0.00017   0.00162   0.00146   2.09086
   A19        1.96008   0.00259  -0.00082   0.00851   0.00768   1.96776
   A20        1.94961   0.00096  -0.00117   0.00194   0.00075   1.95036
   A21        1.94852   0.00119  -0.00061   0.00392   0.00329   1.95181
   A22        1.87226  -0.00205   0.00134  -0.00627  -0.00494   1.86732
   A23        1.87288  -0.00220   0.00109  -0.00753  -0.00646   1.86643
   A24        1.85484  -0.00090   0.00044  -0.00181  -0.00138   1.85346
    D1       -0.00037   0.00001  -0.00001   0.00059   0.00058   0.00021
    D2       -3.14143   0.00000   0.00005  -0.00011  -0.00007  -3.14150
    D3        3.14092   0.00002  -0.00007   0.00085   0.00077  -3.14149
    D4       -0.00014   0.00000  -0.00002   0.00015   0.00013  -0.00001
    D5       -0.00008   0.00000  -0.00001  -0.00003  -0.00004  -0.00012
    D6        3.14143   0.00000  -0.00005   0.00000  -0.00005   3.14138
    D7       -3.14137  -0.00001   0.00006  -0.00029  -0.00023   3.14158
    D8        0.00014  -0.00001   0.00002  -0.00026  -0.00024  -0.00010
    D9        0.00096  -0.00003   0.00003  -0.00124  -0.00121  -0.00025
   D10       -3.14112  -0.00001   0.00001  -0.00040  -0.00039  -3.14151
   D11       -3.14117  -0.00001  -0.00002  -0.00055  -0.00057   3.14145
   D12       -0.00006   0.00001  -0.00004   0.00030   0.00025   0.00019
   D13       -0.00112   0.00003  -0.00004   0.00137   0.00133   0.00021
   D14        3.14003   0.00004  -0.00006   0.00172   0.00166  -3.14149
   D15        3.14096   0.00001  -0.00002   0.00053   0.00051   3.14147
   D16       -0.00108   0.00002  -0.00004   0.00088   0.00084  -0.00024
   D17        0.00067  -0.00002   0.00003  -0.00082  -0.00080  -0.00012
   D18       -3.14109  -0.00001   0.00001  -0.00052  -0.00051   3.14159
   D19       -3.14048  -0.00003   0.00005  -0.00117  -0.00112   3.14158
   D20        0.00094  -0.00002   0.00003  -0.00087  -0.00084   0.00011
   D21       -0.00010  -0.00001  -0.00001  -0.00005  -0.00006  -0.00016
   D22        2.10436  -0.00015   0.00029  -0.00076  -0.00047   2.10389
   D23       -2.10460   0.00016  -0.00039   0.00088   0.00050  -2.10410
   D24        3.14105  -0.00001  -0.00003   0.00029   0.00027   3.14132
   D25       -1.03767  -0.00014   0.00027  -0.00042  -0.00015  -1.03782
   D26        1.03656   0.00016  -0.00041   0.00123   0.00082   1.03738
   D27       -0.00007   0.00000   0.00000   0.00015   0.00015   0.00008
   D28       -3.14158   0.00000   0.00004   0.00011   0.00016  -3.14142
   D29       -3.14149   0.00000   0.00001  -0.00015  -0.00014   3.14155
   D30        0.00018   0.00000   0.00005  -0.00019  -0.00013   0.00005
         Item               Value     Threshold  Converged?
 Maximum Force            0.006256     0.000450     NO 
 RMS     Force            0.001242     0.000300     NO 
 Maximum Displacement     0.041993     0.001800     NO 
 RMS     Displacement     0.008911     0.001200     NO 
 Predicted change in Energy=-1.672459D-04
 GradGradGradGradGradGradGradGradGradGradGradGradGradGradGradGradGradGrad

                          Input orientation:                          
 ---------------------------------------------------------------------
 Center     Atomic      Atomic             Coordinates (Angstroms)
 Number     Number       Type             X           Y           Z
 ---------------------------------------------------------------------
      1          6           0        1.883826   -1.035199   -0.104627
      2          6           0        2.923747   -1.631725    0.604146
      3          6           0        2.894505   -1.661465    1.997605
      4          6           0        1.817601   -1.089655    2.669885
      5          6           0        0.772671   -0.490493    1.966633
      6          6           0        0.808173   -0.464441    0.576677
      7          6           0        1.748423   -1.100786    4.171496
      8          9           0        2.806108   -1.702771    4.734791
      9          9           0        1.689573    0.144675    4.677066
     10          9           0        0.650775   -1.738999    4.617136
     11          1           0        1.909870   -1.013939   -1.190105
     12          1           0        3.760643   -2.075693    0.074093
     13          1           0        3.699560   -2.123570    2.558278
     14          1           0       -0.059853   -0.049143    2.507573
     15          1           0       -0.002721    0.000903    0.024953
 ---------------------------------------------------------------------
                    Distance matrix (angstroms):
                    1          2          3          4          5
     1  C    0.000000
     2  C    1.392709   0.000000
     3  C    2.415173   1.394084   0.000000
     4  C    2.775837   2.405136   1.392354   0.000000
     5  C    2.412776   2.790325   2.423698   1.394789   0.000000
     6  C    1.395339   2.416395   2.793687   2.406524   1.390654
     7  C    4.278769   3.793319   2.520647   1.503245   2.487161
     8  F    4.971541   4.132930   2.738924   2.369998   3.642414
     9  F    4.928938   4.611666   3.448697   2.359817   2.930972
    10  F    4.930598   4.613242   3.449967   2.361126   2.932369
    11  H    1.085998   2.151498   3.398572   3.861835   3.395911
    12  H    2.153372   1.085568   2.149809   3.389073   3.875892
    13  H    3.401838   2.159265   1.084439   2.150165   3.403478
    14  H    3.402026   3.876786   3.404097   2.152636   1.086509
    15  H    2.156237   3.400759   3.879271   3.390952   2.147749
                    6          7          8          9         10
     6  C    0.000000
     7  C    3.769845   0.000000
     8  F    4.776518   1.341038   0.000000
     9  F    4.238052   1.345451   2.159407   0.000000
    10  F    4.239644   1.345638   2.158846   2.151958   0.000000
    11  H    2.153416   5.364734   6.031759   5.984531   5.986241
    12  H    3.400853   4.667781   4.772034   5.514229   5.515784
    13  H    3.878089   2.730475   2.390091   3.697871   3.698903
    14  H    2.157383   2.672912   3.988573   2.793700   2.794792
    15  H    1.085584   4.634010   5.742352   4.952443   4.954035
                   11         12         13         14         15
    11  H    0.000000
    12  H    2.480097   0.000000
    13  H    4.299377   2.485396   0.000000
    14  H    4.299239   4.962350   4.294066   0.000000
    15  H    2.482795   4.298555   4.963669   2.483782   0.000000
 Stoichiometry    C7H5F3
 Framework group  C1[X(C7H5F3)]
 Deg. of freedom    39
 Full point group                 C1      NOp   1
 Largest Abelian subgroup         C1      NOp   1
 Largest concise Abelian subgroup C1      NOp   1
                         Standard orientation:                         
 ---------------------------------------------------------------------
 Center     Atomic      Atomic             Coordinates (Angstroms)
 Number     Number       Type             X           Y           Z
 ---------------------------------------------------------------------
      1          6           0        2.829672   -0.017560    0.000220
      2          6           0        2.153037    1.199734   -0.000034
      3          6           0        0.759199    1.225903    0.000027
      4          6           0        0.054166    0.025246    0.000037
      5          6           0        0.725129   -1.197555    0.000241
      6          6           0        2.115656   -1.216372    0.000286
      7          6           0       -1.449006    0.010380   -0.000023
      8          9           0       -1.979678    1.241952    0.000112
      9          9           0       -1.941163   -0.629646   -1.076307
     10          9           0       -1.943138   -0.629545    1.075649
     11          1           0        3.915543   -0.034168    0.000265
     12          1           0        2.708542    2.132402   -0.000175
     13          1           0        0.223411    2.168740   -0.000246
     14          1           0        0.158877   -2.124841    0.000251
     15          1           0        2.642324   -2.165643    0.000286
 ---------------------------------------------------------------------
 Rotational constants (GHZ):      2.8513806      0.9464434      0.8108937
 Standard basis: 6-31+G(d) (6D, 7F)
 There are   200 symmetry adapted cartesian basis functions of A   symmetry.
 There are   200 symmetry adapted basis functions of A   symmetry.
   200 basis functions,   340 primitive gaussians,   200 cartesian basis functions
    37 alpha electrons       37 beta electrons
       nuclear repulsion energy       528.1586104593 Hartrees.
 NAtoms=   15 NActive=   15 NUniq=   15 SFac= 1.00D+00 NAtFMM=   60 NAOKFM=F Big=F
 Integral buffers will be    131072 words long.
 Raffenetti 2 integral format.
 Two-electron integral symmetry is turned on.
 One-electron integrals computed using PRISM.
 NBasis=   200 RedAO= T EigKep=  3.80D-06  NBF=   200
 NBsUse=   200 1.00D-06 EigRej= -1.00D+00 NBFU=   200
 Initial guess from the checkpoint file:  "/srv/scratch/z5358697/gauss/Gau-2760065.chk"
 B after Tr=     0.000000    0.000000    0.000000
         Rot=    1.000000    0.000121    0.000157    0.000261 Ang=   0.04 deg.
 ExpMin= 4.38D-02 ExpMax= 7.00D+03 ExpMxC= 1.05D+03 IAcc=2 IRadAn=         4 AccDes= 0.00D+00
 Harris functional with IExCor= 1009 and IRadAn=       4 diagonalized for initial guess.
 HarFok:  IExCor= 1009 AccDes= 0.00D+00 IRadAn=         4 IDoV= 1 UseB2=F ITyADJ=14
 ICtDFT=  3500011 ScaDFX=  1.000000  1.000000  1.000000  1.000000
 FoFCou: FMM=F IPFlag=           0 FMFlag=      100000 FMFlg1=           0
         NFxFlg=           0 DoJE=T BraDBF=F KetDBF=T FulRan=T
         wScrn=  0.000000 ICntrl=     500 IOpCl=  0 I1Cent=   200000004 NGrid=           0
         NMat0=    1 NMatS0=      1 NMatT0=    0 NMatD0=    1 NMtDS0=    0 NMtDT0=    0
 Petite list used in FoFCou.
 Requested convergence on RMS density matrix=1.00D-08 within 128 cycles.
 Requested convergence on MAX density matrix=1.00D-06.
 Requested convergence on             energy=1.00D-06.
 No special actions if energy rises.
 SCF Done:  E(RM062X) =  -569.101429332     A.U. after   11 cycles
            NFock= 11  Conv=0.89D-08     -V/T= 2.0079
 Calling FoFJK, ICntrl=      2127 FMM=F ISym2X=0 I1Cent= 0 IOpClX= 0 NMat=1 NMatS=1 NMatT=0.
 ***** Axes restored to original set *****
 -------------------------------------------------------------------
 Center     Atomic                   Forces (Hartrees/Bohr)
 Number     Number              X              Y              Z
 -------------------------------------------------------------------
      1        6           0.000216639   -0.000106715    0.000001314
      2        6           0.000035980   -0.000030139   -0.000205491
      3        6          -0.000688089    0.000389619    0.000641060
      4        6           0.000510503   -0.000434221   -0.000038359
      5        6          -0.000197908    0.000123094   -0.000010926
      6        6          -0.000375446    0.000203600    0.000172851
      7        6           0.000144897   -0.000142241   -0.000244051
      8        9           0.001739552   -0.000866532   -0.000256950
      9        9          -0.000013284    0.002011564    0.000112558
     10        9          -0.001664637   -0.000963225   -0.000222959
     11        1          -0.000004714    0.000003809    0.000001531
     12        1           0.000023101   -0.000011689   -0.000045839
     13        1           0.000295733   -0.000182036    0.000216176
     14        1          -0.000019409    0.000007799   -0.000005032
     15        1          -0.000002919   -0.000002686   -0.000115882
 -------------------------------------------------------------------
 Cartesian Forces:  Max     0.002011564 RMS     0.000553612

 GradGradGradGradGradGradGradGradGradGradGradGradGradGradGradGradGradGrad
 Berny optimization.
 Using GEDIIS/GDIIS optimizer.
 FormGI is forming the generalized inverse of G from B-inverse, IUseBI=4.
 Internal  Forces:  Max     0.001910275 RMS     0.000514064
 Search for a local minimum.
 Step number   3 out of a maximum of   79
 All quantities printed in internal units (Hartrees-Bohrs-Radians)
 Mixed Optimization -- En-DIIS/RFO-DIIS
 Update second derivatives using D2CorX and points    1    2    3
 DE= -1.17D-04 DEPred=-1.67D-04 R= 7.02D-01
 TightC=F SS=  1.41D+00  RLast= 3.37D-02 DXNew= 5.0454D-01 1.0108D-01
 Trust test= 7.02D-01 RLast= 3.37D-02 DXMaxT set to 3.00D-01
 ITU=  1  1  0
 Use linear search instead of GDIIS.
     Eigenvalues ---    0.00879   0.01652   0.02156   0.02156   0.02156
     Eigenvalues ---    0.02156   0.02156   0.02157   0.02157   0.02158
     Eigenvalues ---    0.10646   0.10971   0.15370   0.16000   0.16000
     Eigenvalues ---    0.16003   0.16040   0.21485   0.22011   0.22255
     Eigenvalues ---    0.23694   0.25000   0.25063   0.27559   0.35190
     Eigenvalues ---    0.35202   0.35256   0.35270   0.35285   0.39930
     Eigenvalues ---    0.42132   0.43079   0.45495   0.46478   0.46495
     Eigenvalues ---    0.47388   0.51410   0.51890   0.55510
 RFO step:  Lambda=-1.35273409D-05 EMin= 8.79063836D-03
 Quartic linear search produced a step of -0.22956.
 Iteration  1 RMS(Cart)=  0.00210858 RMS(Int)=  0.00000398
 Iteration  2 RMS(Cart)=  0.00000465 RMS(Int)=  0.00000056
 Iteration  3 RMS(Cart)=  0.00000000 RMS(Int)=  0.00000056
 Variable       Old X    -DE/DX   Delta X   Delta X   Delta X     New X
                                 (Linear)    (Quad)   (Total)
    R1        2.63184   0.00004   0.00039  -0.00034   0.00006   2.63190
    R2        2.63681   0.00033  -0.00004   0.00061   0.00057   2.63738
    R3        2.05224   0.00000   0.00000   0.00000   0.00000   2.05224
    R4        2.63444   0.00017  -0.00050   0.00091   0.00041   2.63485
    R5        2.05143   0.00005  -0.00008   0.00022   0.00014   2.05157
    R6        2.63117  -0.00072   0.00023  -0.00144  -0.00121   2.62996
    R7        2.04929   0.00041   0.00019   0.00075   0.00095   2.05024
    R8        2.63577   0.00031  -0.00052   0.00116   0.00064   2.63641
    R9        2.84072  -0.00062  -0.00453   0.00380  -0.00073   2.84000
   R10        2.62796   0.00002  -0.00001   0.00023   0.00022   2.62818
   R11        2.05320   0.00001   0.00010  -0.00009   0.00001   2.05321
   R12        2.05146   0.00006  -0.00010   0.00027   0.00017   2.05163
   R13        2.53420   0.00164   0.00299  -0.00035   0.00264   2.53683
   R14        2.54253   0.00191   0.00194   0.00120   0.00314   2.54567
   R15        2.54289   0.00175   0.00191   0.00093   0.00284   2.54573
    A1        2.09709   0.00011   0.00001   0.00044   0.00045   2.09753
    A2        2.09342  -0.00006  -0.00004  -0.00023  -0.00027   2.09315
    A3        2.09268  -0.00004   0.00003  -0.00021  -0.00018   2.09251
    A4        2.09690  -0.00006  -0.00031   0.00010  -0.00021   2.09668
    A5        2.09708   0.00002   0.00026  -0.00031  -0.00005   2.09703
    A6        2.08921   0.00005   0.00005   0.00021   0.00027   2.08947
    A7        2.08298  -0.00005   0.00026  -0.00041  -0.00016   2.08283
    A8        2.10633   0.00004  -0.00096   0.00105   0.00009   2.10642
    A9        2.09387   0.00001   0.00070  -0.00063   0.00007   2.09394
   A10        2.10878   0.00035   0.00006   0.00066   0.00072   2.10950
   A11        2.11165  -0.00064  -0.00225   0.00052  -0.00173   2.10992
   A12        2.06276   0.00029   0.00220  -0.00118   0.00101   2.06377
   A13        2.08618  -0.00016  -0.00012  -0.00017  -0.00029   2.08589
   A14        2.09152   0.00010   0.00119  -0.00091   0.00028   2.09180
   A15        2.10548   0.00005  -0.00107   0.00108   0.00002   2.10550
   A16        2.09445  -0.00018   0.00011  -0.00061  -0.00050   2.09394
   A17        2.09788  -0.00003   0.00022  -0.00067  -0.00045   2.09744
   A18        2.09086   0.00021  -0.00033   0.00128   0.00095   2.09181
   A19        1.96776  -0.00138  -0.00176  -0.00195  -0.00372   1.96404
   A20        1.95036  -0.00060  -0.00017  -0.00092  -0.00109   1.94927
   A21        1.95181  -0.00097  -0.00076  -0.00168  -0.00243   1.94938
   A22        1.86732   0.00103   0.00113   0.00096   0.00209   1.86941
   A23        1.86643   0.00125   0.00148   0.00137   0.00285   1.86928
   A24        1.85346   0.00095   0.00032   0.00267   0.00298   1.85644
    D1        0.00021   0.00000  -0.00013   0.00000  -0.00013   0.00008
    D2       -3.14150   0.00000   0.00002  -0.00015  -0.00013   3.14156
    D3       -3.14149   0.00000  -0.00018   0.00022   0.00004  -3.14145
    D4       -0.00001   0.00000  -0.00003   0.00007   0.00004   0.00003
    D5       -0.00012   0.00000   0.00001   0.00010   0.00011  -0.00001
    D6        3.14138   0.00001   0.00001   0.00020   0.00021   3.14159
    D7        3.14158   0.00000   0.00005  -0.00012  -0.00007   3.14152
    D8       -0.00010   0.00000   0.00006  -0.00002   0.00004  -0.00007
    D9       -0.00025   0.00001   0.00028  -0.00019   0.00009  -0.00016
   D10       -3.14151   0.00000   0.00009  -0.00021  -0.00012   3.14155
   D11        3.14145   0.00000   0.00013  -0.00004   0.00009   3.14154
   D12        0.00019   0.00000  -0.00006  -0.00006  -0.00012   0.00007
   D13        0.00021   0.00000  -0.00030   0.00028  -0.00003   0.00018
   D14       -3.14149   0.00000  -0.00038   0.00053   0.00015  -3.14135
   D15        3.14147   0.00000  -0.00012   0.00030   0.00018  -3.14153
   D16       -0.00024   0.00001  -0.00019   0.00055   0.00036   0.00012
   D17       -0.00012   0.00000   0.00018  -0.00018   0.00001  -0.00012
   D18        3.14159   0.00000   0.00012  -0.00018  -0.00006   3.14153
   D19        3.14158   0.00000   0.00026  -0.00043  -0.00017   3.14141
   D20        0.00011   0.00000   0.00019  -0.00042  -0.00023  -0.00013
   D21       -0.00016   0.00000   0.00001   0.00009   0.00010  -0.00005
   D22        2.10389  -0.00007   0.00011  -0.00072  -0.00061   2.10328
   D23       -2.10410   0.00007  -0.00011   0.00091   0.00080  -2.10330
   D24        3.14132   0.00001  -0.00006   0.00034   0.00028  -3.14159
   D25       -1.03782  -0.00007   0.00003  -0.00047  -0.00044  -1.03825
   D26        1.03738   0.00007  -0.00019   0.00116   0.00097   1.03835
   D27        0.00008   0.00000  -0.00003  -0.00001  -0.00004   0.00003
   D28       -3.14142   0.00000  -0.00004  -0.00011  -0.00015  -3.14157
   D29        3.14155   0.00000   0.00003  -0.00001   0.00002   3.14157
   D30        0.00005   0.00000   0.00003  -0.00011  -0.00008  -0.00003
         Item               Value     Threshold  Converged?
 Maximum Force            0.001910     0.000450     NO 
 RMS     Force            0.000514     0.000300     NO 
 Maximum Displacement     0.009681     0.001800     NO 
 RMS     Displacement     0.002110     0.001200     NO 
 Predicted change in Energy=-1.833498D-05
 GradGradGradGradGradGradGradGradGradGradGradGradGradGradGradGradGradGrad

                          Input orientation:                          
 ---------------------------------------------------------------------
 Center     Atomic      Atomic             Coordinates (Angstroms)
 Number     Number       Type             X           Y           Z
 ---------------------------------------------------------------------
      1          6           0        1.883939   -1.035225   -0.103797
      2          6           0        2.923562   -1.631731    0.605489
      3          6           0        2.893552   -1.661036    1.999161
      4          6           0        1.816702   -1.089193    2.670173
      5          6           0        0.771583   -0.489876    1.966667
      6          6           0        0.807537   -0.464056    0.576601
      7          6           0        1.748880   -1.100821    4.171457
      8          9           0        2.810171   -1.704302    4.729668
      9          9           0        1.691105    0.146581    4.676790
     10          9           0        0.650060   -1.741448    4.615284
     11          1           0        1.910610   -1.014372   -1.189269
     12          1           0        3.760631   -2.075919    0.075741
     13          1           0        3.698520   -2.123351    2.560753
     14          1           0       -0.061126   -0.048461    2.507280
     15          1           0       -0.002827    0.000911    0.023603
 ---------------------------------------------------------------------
                    Distance matrix (angstroms):
                    1          2          3          4          5
     1  C    0.000000
     2  C    1.392739   0.000000
     3  C    2.415242   1.394303   0.000000
     4  C    2.775309   2.404663   1.391714   0.000000
     5  C    2.412792   2.790637   2.423928   1.395126   0.000000
     6  C    1.395642   2.416995   2.794262   2.406710   1.390771
     7  C    4.277890   3.791817   2.518529   1.502861   2.487863
     8  F    4.966684   4.126375   2.732122   2.367881   3.642094
     9  F    4.928272   4.610514   3.447181   2.359963   2.931785
    10  F    4.928584   4.610781   3.447292   2.360074   2.931957
    11  H    1.085999   2.151362   3.398593   3.861309   3.395940
    12  H    2.153428   1.085642   2.150231   3.388740   3.876279
    13  H    3.402433   2.159933   1.084940   2.150044   3.404135
    14  H    3.402161   3.877101   3.404219   2.153113   1.086514
    15  H    2.156314   3.401156   3.879936   3.391658   2.148506
                    6          7          8          9         10
     6  C    0.000000
     7  C    3.770224   0.000000
     8  F    4.774591   1.342434   0.000000
     9  F    4.238528   1.347112   2.163532   0.000000
    10  F    4.238808   1.347142   2.163457   2.156899   0.000000
    11  H    2.153582   5.363862   6.026526   5.983865   5.984184
    12  H    3.401430   4.666138   4.764504   5.512902   5.513163
    13  H    3.879163   2.727825   2.380956   3.695932   3.695950
    14  H    2.157502   2.674522   3.990634   2.795555   2.795652
    15  H    1.085675   4.635405   5.741755   4.954066   4.954353
                   11         12         13         14         15
    11  H    0.000000
    12  H    2.479861   0.000000
    13  H    4.299898   2.486241   0.000000
    14  H    4.299442   4.962740   4.294527   0.000000
    15  H    2.482559   4.298785   4.964835   2.484851   0.000000
 Stoichiometry    C7H5F3
 Framework group  C1[X(C7H5F3)]
 Deg. of freedom    39
 Full point group                 C1      NOp   1
 Largest Abelian subgroup         C1      NOp   1
 Largest concise Abelian subgroup C1      NOp   1
                         Standard orientation:                         
 ---------------------------------------------------------------------
 Center     Atomic      Atomic             Coordinates (Angstroms)
 Number     Number       Type             X           Y           Z
 ---------------------------------------------------------------------
      1          6           0        2.828328   -0.016212   -0.000053
      2          6           0        2.150514    1.200460   -0.000051
      3          6           0        0.756427    1.225004    0.000125
      4          6           0        0.053309    0.023966    0.000103
      5          6           0        0.725180   -1.198723    0.000127
      6          6           0        2.115840   -1.216286    0.000029
      7          6           0       -1.449484    0.009707   -0.000029
      8          9           0       -1.975624    1.244739   -0.000049
      9          9           0       -1.941096   -0.630515   -1.078521
     10          9           0       -1.941433   -0.630460    1.078378
     11          1           0        3.914220   -0.031490   -0.000057
     12          1           0        2.705216    2.133693   -0.000083
     13          1           0        0.219206    2.167600    0.000163
     14          1           0        0.159747   -2.126515    0.000170
     15          1           0        2.644306   -2.164660    0.000028
 ---------------------------------------------------------------------
 Rotational constants (GHZ):      2.8448958      0.9473244      0.8115410
 Standard basis: 6-31+G(d) (6D, 7F)
 There are   200 symmetry adapted cartesian basis functions of A   symmetry.
 There are   200 symmetry adapted basis functions of A   symmetry.
   200 basis functions,   340 primitive gaussians,   200 cartesian basis functions
    37 alpha electrons       37 beta electrons
       nuclear repulsion energy       528.0482452139 Hartrees.
 NAtoms=   15 NActive=   15 NUniq=   15 SFac= 1.00D+00 NAtFMM=   60 NAOKFM=F Big=F
 Integral buffers will be    131072 words long.
 Raffenetti 2 integral format.
 Two-electron integral symmetry is turned on.
 One-electron integrals computed using PRISM.
 NBasis=   200 RedAO= T EigKep=  3.79D-06  NBF=   200
 NBsUse=   200 1.00D-06 EigRej= -1.00D+00 NBFU=   200
 Initial guess from the checkpoint file:  "/srv/scratch/z5358697/gauss/Gau-2760065.chk"
 B after Tr=     0.000000    0.000000    0.000000
         Rot=    1.000000   -0.000005   -0.000058   -0.000083 Ang=  -0.01 deg.
 Requested convergence on RMS density matrix=1.00D-08 within 128 cycles.
 Requested convergence on MAX density matrix=1.00D-06.
 Requested convergence on             energy=1.00D-06.
 No special actions if energy rises.
 SCF Done:  E(RM062X) =  -569.101446380     A.U. after   11 cycles
            NFock= 11  Conv=0.25D-08     -V/T= 2.0079
 Calling FoFJK, ICntrl=      2127 FMM=F ISym2X=0 I1Cent= 0 IOpClX= 0 NMat=1 NMatS=1 NMatT=0.
 ***** Axes restored to original set *****
 -------------------------------------------------------------------
 Center     Atomic                   Forces (Hartrees/Bohr)
 Number     Number              X              Y              Z
 -------------------------------------------------------------------
      1        6           0.000167589   -0.000095035    0.000050111
      2        6          -0.000039871    0.000010775   -0.000170900
      3        6          -0.000119647    0.000075918    0.000252361
      4        6           0.000074219   -0.000050858   -0.000046109
      5        6          -0.000072095    0.000053476   -0.000139466
      6        6          -0.000154522    0.000071975    0.000237356
      7        6           0.000173141   -0.000107102   -0.000487069
      8        9           0.000046905   -0.000016801    0.000125631
      9        9          -0.000103514   -0.000071914    0.000121556
     10        9           0.000004002    0.000133968    0.000107257
     11        1          -0.000010976    0.000011661   -0.000004713
     12        1          -0.000016214    0.000009918   -0.000011740
     13        1           0.000023538   -0.000010783   -0.000038623
     14        1           0.000003959   -0.000001604    0.000018083
     15        1           0.000023486   -0.000013594   -0.000013734
 -------------------------------------------------------------------
 Cartesian Forces:  Max     0.000487069 RMS     0.000119138

 GradGradGradGradGradGradGradGradGradGradGradGradGradGradGradGradGradGrad
 Berny optimization.
 Using GEDIIS/GDIIS optimizer.
 FormGI is forming the generalized inverse of G from B-inverse, IUseBI=4.
 Internal  Forces:  Max     0.000261105 RMS     0.000068537
 Search for a local minimum.
 Step number   4 out of a maximum of   79
 All quantities printed in internal units (Hartrees-Bohrs-Radians)
 Mixed Optimization -- En-DIIS/RFO-DIIS
 Swapping is turned off.
 Update second derivatives using D2CorX and points    1    2    3    4
 DE= -1.70D-05 DEPred=-1.83D-05 R= 9.30D-01
 TightC=F SS=  1.41D+00  RLast= 8.96D-03 DXNew= 5.0454D-01 2.6879D-02
 Trust test= 9.30D-01 RLast= 8.96D-03 DXMaxT set to 3.00D-01
 ITU=  1  1  1  0
     Eigenvalues ---    0.00879   0.01652   0.02156   0.02156   0.02156
     Eigenvalues ---    0.02156   0.02157   0.02157   0.02157   0.02158
     Eigenvalues ---    0.10702   0.11210   0.15541   0.15957   0.16000
     Eigenvalues ---    0.16004   0.16011   0.21884   0.21967   0.22717
     Eigenvalues ---    0.23917   0.24963   0.25099   0.29138   0.35141
     Eigenvalues ---    0.35191   0.35256   0.35273   0.35286   0.40210
     Eigenvalues ---    0.42087   0.42748   0.45133   0.46470   0.46486
     Eigenvalues ---    0.47103   0.51038   0.51874   0.56009
 En-DIIS/RFO-DIIS IScMMF=        0 using points:     4    3
 RFO step:  Lambda=-5.97467606D-07.
 DidBck=F Rises=F RFO-DIIS coefs:    0.95773    0.04227
 Iteration  1 RMS(Cart)=  0.00028524 RMS(Int)=  0.00000012
 Iteration  2 RMS(Cart)=  0.00000013 RMS(Int)=  0.00000002
 Variable       Old X    -DE/DX   Delta X   Delta X   Delta X     New X
                                 (Linear)    (Quad)   (Total)
    R1        2.63190  -0.00011   0.00000  -0.00021  -0.00021   2.63169
    R2        2.63738   0.00014  -0.00002   0.00033   0.00030   2.63768
    R3        2.05224   0.00000   0.00000   0.00001   0.00001   2.05225
    R4        2.63485   0.00007  -0.00002   0.00015   0.00013   2.63498
    R5        2.05157  -0.00001  -0.00001  -0.00001  -0.00002   2.05155
    R6        2.62996  -0.00016   0.00005  -0.00040  -0.00035   2.62960
    R7        2.05024   0.00001  -0.00004   0.00009   0.00005   2.05029
    R8        2.63641   0.00006  -0.00003   0.00015   0.00013   2.63653
    R9        2.84000  -0.00014   0.00003  -0.00057  -0.00054   2.83946
   R10        2.62818  -0.00016  -0.00001  -0.00030  -0.00031   2.62787
   R11        2.05321   0.00000   0.00000   0.00001   0.00001   2.05322
   R12        2.05163  -0.00002  -0.00001  -0.00004  -0.00005   2.05158
   R13        2.53683   0.00009  -0.00011   0.00042   0.00031   2.53714
   R14        2.54567  -0.00001  -0.00013   0.00026   0.00012   2.54579
   R15        2.54573  -0.00003  -0.00012   0.00021   0.00009   2.54581
    A1        2.09753   0.00004  -0.00002   0.00024   0.00022   2.09775
    A2        2.09315  -0.00002   0.00001  -0.00013  -0.00011   2.09303
    A3        2.09251  -0.00002   0.00001  -0.00011  -0.00011   2.09240
    A4        2.09668  -0.00004   0.00001  -0.00020  -0.00019   2.09650
    A5        2.09703   0.00002   0.00000   0.00006   0.00006   2.09709
    A6        2.08947   0.00003  -0.00001   0.00014   0.00013   2.08960
    A7        2.08283  -0.00002   0.00001  -0.00010  -0.00010   2.08273
[...]
 ! A7    A(2,3,4)              119.3371         -DE/DX =    0.0                 !
 ! A8    A(2,3,13)             120.6891         -DE/DX =    0.0                 !
 ! A9    A(4,3,13)             119.9738         -DE/DX =    0.0                 !
 ! A10   A(3,4,5)              120.8653         -DE/DX =    0.0001              !
 ! A11   A(3,4,7)              120.8894         -DE/DX =   -0.0001              !
 ! A12   A(5,4,7)              118.2453         -DE/DX =    0.0                 !
 ! A13   A(4,5,6)              119.5125         -DE/DX =   -0.0001              !
 ! A14   A(4,5,14)             119.8513         -DE/DX =    0.0                 !
 ! A15   A(6,5,14)             120.6362         -DE/DX =    0.0                 !
 ! A16   A(1,6,5)              119.9742         -DE/DX =    0.0                 !
 ! A17   A(1,6,15)             120.1742         -DE/DX =    0.0                 !
 ! A18   A(5,6,15)             119.8516         -DE/DX =    0.0                 !
 ! A19   A(4,7,8)              112.531          -DE/DX =    0.0002              !
 ! A20   A(4,7,9)              111.6848         -DE/DX =    0.0001              !
 ! A21   A(4,7,10)             111.6911         -DE/DX =    0.0001              !
 ! A22   A(8,7,9)              107.109          -DE/DX =   -0.0001              !
 ! A23   A(8,7,10)             107.1019         -DE/DX =   -0.0001              !
 ! A24   A(9,7,10)             106.3663         -DE/DX =   -0.0003              !
 ! D1    D(6,1,2,3)              0.0044         -DE/DX =    0.0                 !
 ! D2    D(6,1,2,12)          -180.0019         -DE/DX =    0.0                 !
 ! D3    D(11,1,2,3)           180.0081         -DE/DX =    0.0                 !
 ! D4    D(11,1,2,12)            0.0018         -DE/DX =    0.0                 !
 ! D5    D(2,1,6,5)             -0.0007         -DE/DX =    0.0                 !
 ! D6    D(2,1,6,15)          -180.0            -DE/DX =    0.0                 !
 ! D7    D(11,1,6,5)          -180.0044         -DE/DX =    0.0                 !
 ! D8    D(11,1,6,15)           -0.0037         -DE/DX =    0.0                 !
 ! D9    D(1,2,3,4)             -0.0092         -DE/DX =    0.0                 !
 ! D10   D(1,2,3,13)          -180.0022         -DE/DX =    0.0                 !
 ! D11   D(12,2,3,4)           179.9971         -DE/DX =    0.0                 !
 ! D12   D(12,2,3,13)            0.0041         -DE/DX =    0.0                 !
 ! D13   D(2,3,4,5)              0.0105         -DE/DX =    0.0                 !
 ! D14   D(2,3,4,7)           -179.9859         -DE/DX =    0.0                 !
 ! D15   D(13,3,4,5)           180.0035         -DE/DX =    0.0                 !
 ! D16   D(13,3,4,7)             0.0071         -DE/DX =    0.0                 !
 ! D17   D(3,4,5,6)             -0.0069         -DE/DX =    0.0                 !
 ! D18   D(3,4,5,14)          -180.0037         -DE/DX =    0.0                 !
 ! D19   D(7,4,5,6)            179.9896         -DE/DX =    0.0                 !
 ! D20   D(7,4,5,14)            -0.0072         -DE/DX =    0.0                 !
 ! D21   D(3,4,7,8)             -0.0031         -DE/DX =    0.0                 !
 ! D22   D(3,4,7,9)            120.5089         -DE/DX =    0.0001              !
 ! D23   D(3,4,7,10)          -120.5104         -DE/DX =   -0.0001              !
 ! D24   D(5,4,7,8)            180.0004         -DE/DX =    0.0                 !
 ! D25   D(5,4,7,9)            -59.4876         -DE/DX =    0.0001              !
 ! D26   D(5,4,7,10)            59.4931         -DE/DX =   -0.0001              !
 ! D27   D(4,5,6,1)              0.0019         -DE/DX =    0.0                 !
 ! D28   D(4,5,6,15)          -179.9988         -DE/DX =    0.0                 !
 ! D29   D(14,5,6,1)           179.9987         -DE/DX =    0.0                 !
 ! D30   D(14,5,6,15)           -0.002          -DE/DX =    0.0                 !
 --------------------------------------------------------------------------------
 GradGradGradGradGradGradGradGradGradGradGradGradGradGradGradGradGradGrad

 1\1\GINC-KATANA3\Freq\RM062X\6-31+G(d)\C7H5F3\Z5358697\17-Mar-2025\0\\
 #N Geom=AllCheck Guess=TCheck SCRF=Check GenChk RM062X/6-31+G(d) Freq\
 \trifluoromethylbenzene\\0,1\C,1.883938603,-1.0352254453,-0.1037974187
 \C,2.9235622361,-1.6317309741,0.6054889393\C,2.8935524469,-1.661035893
 8,1.9991606701\C,1.816702399,-1.0891932938,2.6701725612\C,0.771582823,
 -0.4898760924,1.9666669097\C,0.8075366563,-0.4640562318,0.5766007908\C
 ,1.7488797872,-1.1008206798,4.171457241\F,2.8101714574,-1.7043015991,4
 .7296675376\F,1.6911050902,0.1465810832,4.6767899986\F,0.6500601467,-1
 .741448449,4.6152839203\H,1.9106102759,-1.0143718535,-1.1892688676\H,3
 .7606308615,-2.0759188257,0.0757413585\H,3.698519503,-2.1233510722,2.5
 607534796\H,-0.0611256528,-0.0484613928,2.5072798234\H,-0.0028266337,0
 .00091072,0.0236030563\\Version=ES64L-G09RevD.01\State=1-A\HF=-569.101
 4464\RMSD=2.649e-09\RMSF=1.191e-04\ZeroPoint=0.1068049\Thermal=0.11459
 1\Dipole=0.0661157,0.00274,-1.1964953\DipoleDeriv=-0.0211779,-0.051728
 2,-0.0089392,-0.0517843,-0.0868768,-0.0025309,-0.0069827,-0.0036544,0.
 1131586,0.0021195,-0.0734413,-0.0783467,-0.0720161,-0.0973747,0.040573
 8,-0.1226348,0.0649965,-0.0559927,-0.0263067,-0.033953,-0.0190965,-0.0
 376919,-0.0684505,0.0073898,0.0952961,-0.0556975,0.0063032,-0.0785098,
 -0.0326302,-0.0161557,-0.0333039,-0.1206885,0.0130803,0.0047026,0.0015
 39,-0.2639865,-0.0121556,-0.0415416,-0.0028478,-0.0383737,-0.0664667,-
 0.0012442,-0.0994588,0.052042,-0.0027305,-0.0049875,-0.0734414,0.07717
 28,-0.0747916,-0.0908806,-0.0451431,0.1181471,-0.0677306,-0.0549661,1.
 5425802,0.0716674,-0.0562683,0.0702622,1.6300046,0.0158378,-0.0131508,
 -0.0079786,2.1314109,-0.6285542,0.1914023,-0.2242082,0.1919653,-0.4049
 929,0.1349964,-0.2412554,0.144414,-0.642368,-0.2819366,0.0177108,0.044
 3251,0.0022118,-0.8030955,-0.3054011,0.0173586,-0.2749179,-0.6825114,-
 0.6777803,-0.256198,0.2695074,-0.2385411,-0.4345832,0.1312267,0.230201
 ,0.1373384,-0.6552265,0.089089,0.0277323,0.0045456,0.0277131,0.1242273
 ,0.0045553,0.0050354,0.0043092,-0.0762011,0.0043381,0.0739311,0.055316
 7,0.0741309,0.1017201,-0.026869,0.0501882,-0.024036,0.0309865,0.045861
 2,0.0533359,-0.0378472,0.0532551,0.110201,0.0231257,-0.0361183,0.02218
 44,0.071389,0.0364521,0.0532273,0.0446683,0.0531532,0.1070537,-0.02190
 33,0.0472508,-0.023317,0.0522573,0.0109684,0.0739265,-0.0518261,0.0738
 11,0.1002026,0.0323059,-0.048579,0.0305085,0.0284775\Polar=77.1802113,
 -15.3154249,57.8078067,-1.1795233,-0.8589126,95.3214391\PG=C01 [X(C7H5
 F3)]\NImag=0\\0.56731096,-0.23483464,0.27104283,-0.00658872,-0.0166654
 2,0.75998227,-0.24498962,0.10311275,-0.11753364,0.60821765,0.10093220,
 -0.12289272,0.06899822,-0.25762529,0.28109520,-0.05105511,0.03233804,-
 0.19268958,-0.03324318,-0.00042274,0.70983096,0.03680664,-0.01564025,-
 0.02480144,-0.11720719,0.02950569,-0.02781858,0.60365965,-0.01401298,0
 .01420623,0.01474508,0.02731665,-0.08123042,0.02488423,-0.25671387,0.2
 8202504,-0.07443667,0.04211632,-0.02564305,0.03892389,-0.01191587,-0.3
 5549555,0.02201635,-0.03112456,0.71752008,-0.06415487,0.03145893,-0.00
 124660,0.02886366,-0.01511551,0.07740174,-0.25146300,0.10313903,0.0489
 3523,0.61393801,0.03148801,-0.02455401,0.00052913,-0.01345725,0.014843
 68,-0.04167913,0.10097273,-0.11645505,-0.02315996,-0.24092948,0.309090
 84,-0.00209000,0.00099413,-0.00232606,0.02684185,-0.01380556,-0.024345
 83,0.11498340,-0.05957366,-0.17846132,-0.01719160,-0.00710866,0.683276
 06,0.03216722,-0.01470069,0.02702629,-0.01693457,0.00671861,-0.0310723
 6,-0.04383536,0.02819517,0.02452566,-0.23917634,0.09915755,-0.11039444
 ,0.59990690,-0.01632110,0.01656882,-0.01388793,0.00662106,-0.01087290,
 0.01895288,0.02993034,-0.00722738,-0.01565497,0.09699194,-0.12150107,0
 .06460441,-0.25202629,0.27944012,0.07639508,-0.04110855,-0.02379259,-0
 .02812599,0.01733070,-0.06206179,-0.02820209,0.01341824,0.07372497,-0.
 04441536,0.02821954,-0.17983682,-0.03843870,0.00195613,0.72706507,-0.2
 4896643,0.09763900,0.11570317,-0.04193041,0.02805797,-0.02709400,-0.01
 977532,0.00599769,0.03056548,0.03553603,-0.01495936,-0.02321152,-0.117
 14289,0.02995826,-0.02634998,0.60064949,0.09982926,-0.11807279,-0.0598
 6741,0.02643109,-0.00765106,0.01267671,0.00591943,-0.00984751,-0.01508
 702,-0.01326285,0.01388264,0.01398644,0.02777096,-0.08049259,0.0243996
 1,-0.25546336,0.28047351,0.04896367,-0.02307052,-0.18468654,0.02238855
 ,-0.01460890,0.07628989,0.03295287,-0.01640428,-0.06089355,-0.07487561
 ,0.04247650,-0.02919923,0.04031690,-0.01236288,-0.36497284,0.02148724,
 -0.03079588,0.71584665,-0.00345724,0.00152336,-0.00019839,-0.00333204,
 0.00563928,0.00426808,0.00794795,-0.00413429,0.02201697,-0.09027718,0.
 01124332,0.00438443,0.00789692,-0.00457798,-0.02341015,-0.00266053,0.0
 0510329,-0.00562523,0.56259181,0.00150085,-0.00153444,0.00000973,0.005
 73971,0.00405643,-0.00221369,-0.00374913,0.00420518,-0.01159780,0.0111
 5539,-0.07586262,0.00270367,-0.00503567,0.00054103,0.01343441,0.004986
 93,0.00340532,0.00318261,-0.02072894,0.53705479,0.00051051,-0.00038254
 ,0.00235702,0.00118953,-0.00051752,0.00288817,0.01022367,-0.00509608,-
 0.01475624,0.00710180,0.00121394,-0.22667033,-0.00945081,0.00573876,-0
 .01786805,-0.00208670,0.00122846,0.00384227,0.00557831,-0.00686799,0.6
 4229174,0.00031856,-0.00016368,0.00010532,0.00123587,-0.00060821,-0.00
 060088,-0.00363665,0.00194163,0.00305786,-0.01009220,0.01081412,-0.009
 08754,0.00232088,-0.00019251,-0.00327937,-0.00072783,0.00012934,0.0003
 6340,-0.19639992,0.07026690,-0.08890555,0.29808913,-0.00014889,0.00011
 148,-0.00004325,-0.00060600,0.00042026,0.00032445,0.00206665,-0.001020
 21,-0.00163339,0.01180296,0.00227882,0.00590727,-0.00045127,0.00195741
 ,0.00211211,0.00021015,-0.00058143,-0.00018199,0.06996183,-0.11449360,
 0.05133355,-0.12373818,0.15046886,-0.00034246,0.00020390,-0.00042753,-
 0.00067980,0.00036808,0.00030317,-0.00074888,0.00046507,-0.00154719,-0
 .03938582,0.02261203,-0.01840094,0.00463915,-0.00225376,-0.00753317,-0
 .00211192,0.00118295,-0.00103260,-0.07952929,0.04616290,-0.14500875,0.
 11005196,-0.06273216,0.14274500,0.00035783,-0.00013065,0.00012889,0.00
 039239,-0.00071553,-0.00031827,-0.00052993,-0.00006328,-0.00095637,0.0
 1082567,0.00341402,0.00271675,-0.00103770,0.00086552,0.00018988,-0.000
 13059,-0.00080947,0.00071675,-0.07362928,0.01085152,0.00459104,-0.0100
 9854,0.04988141,0.00695026,0.07931421,-0.00032781,-0.00001747,-0.00025
 542,0.00070380,0.00059618,-0.00028440,-0.00200678,0.00046172,-0.002566
 46,0.00306221,-0.01567435,-0.01410479,0.00280808,0.00007236,0.00085809
 ,0.00027216,0.00100127,-0.00092087,0.00833345,-0.23666309,-0.08905536,
 0.03934762,-0.05679444,-0.00093822,-0.01261065,0.37089027,0.00077694,-
 0.00062360,-0.00070238,0.00130371,0.00165024,-0.00167714,-0.00498186,0
 .00067598,-0.00283902,0.00578313,-0.04317021,-0.02040925,0.00182400,-0
 .00083765,-0.00032357,0.00076214,0.00065801,0.00060198,0.00368735,-0.0
 8600269,-0.12947481,-0.00017272,0.01081998,0.01832853,-0.00552189,0.11
 330879,0.11992869,0.00026196,-0.00037278,0.00029290,0.00055880,0.00084
 604,0.00017474,0.00115315,-0.00116088,0.00171303,-0.01249552,-0.011912
 55,0.01300527,-0.00193127,0.00232053,-0.00055162,0.00089259,0.00090335
 ,0.00121612,-0.20289754,-0.07559490,0.07199063,-0.08357854,-0.00712680
 ,0.00134614,-0.00681518,-0.03721823,-0.00246791,0.30433438,-0.00021814
 ,0.00005724,0.00005911,-0.00059880,0.00051758,0.00051431,0.00106980,-0
 .00148753,0.00227473,-0.01251636,0.00498193,0.00614736,0.00025293,0.00
 101752,-0.00054444,-0.00013449,0.00000605,-0.00014910,-0.07295349,-0.1
 1565287,0.04226658,0.00407148,0.01743034,-0.00531272,-0.05085757,-0.06
 271676,0.00483658,0.13225234,0.15628180,0.00095836,-0.00029605,-0.0006
 8144,-0.00066662,-0.00185024,-0.00176480,-0.00307235,0.00389102,-0.002
 57558,0.03921532,0.01906676,-0.01772836,0.00165198,-0.00096750,-0.0003
 7265,-0.00014783,-0.00100117,0.00057271,0.06906067,0.04133279,-0.12116
 801,-0.01185852,-0.00586393,0.01756443,-0.00863412,-0.00553866,0.01770
 600,-0.08711653,-0.05026919,0.10947220,-0.05592145,0.00865665,0.007393
 00,0.00560016,0.00003083,-0.02443049,-0.00171072,0.00525628,-0.0022584
 9,-0.00131928,0.00043843,-0.00008191,-0.00202819,0.00506144,0.00238964
 ,0.00445820,-0.00101530,0.02513642,-0.00051851,-0.00026769,-0.00006992
 ,0.00018936,-0.00011672,0.00002373,0.00010678,-0.00018600,-0.00010547,
 0.00001360,0.00000050,0.00009112,0.05148501,0.00865684,-0.04474822,0.0
 0592857,-0.00085660,0.00421627,0.01396649,0.00526754,0.00473473,0.0014
 8460,0.00043666,-0.00076984,0.00000051,0.00505218,0.00454404,-0.001094
 26,-0.00012718,0.00462171,-0.01338916,-0.00026785,-0.00086055,0.000000
 92,-0.00011682,0.00004381,-0.00000976,0.00006275,-0.00009654,-0.000171
 71,-0.00024925,-0.00001768,0.00017643,-0.01341109,0.03429778,0.0073832
 9,0.00593667,-0.34520205,0.00265293,-0.00096851,-0.01086364,-0.0025752
 7,0.00165928,0.00037608,-0.00004273,-0.00002097,0.00082934,0.00265786,
 -0.00124261,0.00048414,-0.00195166,0.00154530,-0.01019237,-0.00006796,
 -0.00000040,0.00014845,0.00002617,-0.00001109,-0.00012311,-0.00001094,
 -0.00005379,-0.00006751,0.00002938,0.00004045,-0.00005311,-0.00801470,
 -0.00664940,0.36445704,-0.01277309,0.00875629,0.01341870,-0.22552916,0
 .09947300,0.10860393,0.00384885,-0.00003708,-0.00154283,0.00303991,0.0
 0226813,-0.00040857,-0.00010763,-0.00043599,-0.00086405,-0.00049713,0.
 00452267,-0.00334659,0.00019407,0.00005547,-0.00044019,0.00003078,-0.0
 0000630,0.00010125,0.00001065,0.00007455,0.00017241,-0.00003463,0.0000
 3337,-0.00004113,-0.00032374,-0.00216208,-0.00019235,0.23368770,0.0096
 4886,-0.00116350,-0.00768164,0.09947563,-0.09165624,-0.05692702,-0.000
 92200,0.00415494,0.00130911,0.00227896,0.00585076,0.00065220,-0.000436
 61,-0.00072474,0.00047353,0.00450439,0.00495228,0.00213029,-0.00000096
 ,0.00026205,0.00022065,0.00000379,0.00002492,-0.00005070,0.00006272,0.
 00004314,0.00017743,0.00004187,0.00007962,-0.00020622,-0.00217981,-0.0
 0305226,-0.00005593,-0.11043978,0.08538159,-0.01379727,0.00732584,0.01
 251014,0.10858560,-0.05691533,-0.12882305,0.02536135,-0.01352733,-0.01
 025320,-0.00073181,0.00082988,-0.00584966,-0.00082868,0.00045393,-0.00
 085879,-0.00279478,0.00182670,-0.00119269,0.00127797,-0.00072630,0.000
 93568,-0.00020763,0.00011966,-0.00013291,-0.00006261,-0.00036442,-0.00
 057558,0.00029196,0.00028109,-0.00056721,0.00035138,-0.00035632,0.0006
 9103,-0.11643163,0.06072166,0.13247403,0.00276263,0.00254760,0.0010516
 2,0.00587323,-0.00100188,0.00226984,-0.21477952,0.10063930,-0.10993651
 ,-0.01290175,0.00983635,-0.01320094,-0.00078531,0.00399997,0.00366451,
 -0.00003752,-0.00048588,0.00068747,-0.00327696,0.00018709,-0.00223581,
 0.00188113,-0.00129169,-0.00028876,0.00035894,-0.00062267,-0.00023286,
 0.00010038,-0.00010336,0.00060955,0.00015420,-0.00011438,0.00022493,-0
 .00053173,-0.00201316,-0.00031659,0.22205231,0.00253890,0.00605013,-0.
 00015256,-0.00013927,0.00429437,-0.00079376,0.10068456,-0.09643129,0.0
 6383448,0.00904557,-0.00106654,0.00701039,0.00401953,0.00452682,-0.001
 75642,-0.00048781,-0.00059617,-0.00038081,0.00006150,-0.00314011,0.001
 10221,-0.00131401,0.00023738,0.00028037,0.00008904,-0.00033833,-0.0008
 7300,-0.00077382,-0.00011114,0.00063133,-0.00006781,0.00000092,-0.0001
 0624,-0.00202999,-0.00308203,0.00000169,-0.11166932,0.09044828,0.00126
 790,-0.00027213,-0.00554922,-0.02395111,0.01366193,-0.00967788,-0.1113
 4138,0.06461284,-0.13677178,0.01086436,-0.00626011,0.01236993,0.003083
 83,-0.00143582,-0.00137896,0.00074135,-0.00040950,-0.00085903,0.001604
 17,-0.00101621,0.00092925,0.00039655,-0.00009761,-0.00417607,-0.000277
 93,0.00049413,0.00008959,-0.00060554,-0.00004115,0.00012131,-0.0011885
 7,0.00067315,-0.00058041,0.00019695,-0.00028145,0.00106228,0.11856990,
 -0.06922976,0.14377896,0.00290164,0.00260256,-0.00041801,0.00007802,-0
 .00049347,-0.00062970,-0.00036557,0.00403120,-0.00354745,-0.01329962,0
 .00910810,0.01280067,-0.22433820,0.09854964,0.10874539,0.00460848,-0.0
 0007663,-0.00156521,-0.00244354,0.00044433,0.00160850,0.00048456,-0.00
 032468,-0.00006105,0.00089537,-0.00151752,-0.00067977,0.00041904,-0.00
 028977,0.00003078,0.00007642,-0.00006837,-0.00018329,-0.00027774,-0.00
 048151,0.00005753,-0.00061605,0.00051036,0.00072953,0.23243619,0.00261
 843,0.00613121,0.00066641,-0.00049193,-0.00059460,0.00034535,0.0040073
 3,0.00445221,0.00222778,0.00994974,-0.00126624,-0.00733684,0.09853603,
 -0.09160618,-0.05693853,-0.00095597,0.00486048,0.00131364,0.00054905,-
 0.00181442,-0.00095939,-0.00034264,0.00008042,0.00001933,-0.00000023,-
 0.00071003,-0.00045617,-0.00185387,-0.00027929,0.00077386,-0.00011571,
 0.00000145,0.00011794,-0.00048152,-0.00087964,-0.00007242,0.00055914,0
 .00005773,-0.00040933,-0.10990116,0.08475953,-0.00085938,0.00090957,-0
 .00568435,-0.00068557,0.00037759,-0.00084480,-0.00284347,0.00183892,-0
 .00152957,-0.01280028,0.00677864,0.01250924,0.10914195,-0.05715401,-0.
 13140562,0.02521368,-0.01345471,-0.00928592,-0.00160342,0.00081089,0.0
 0067638,0.00048891,-0.00028389,0.00033142,0.00037795,-0.00032499,-0.00
 041366,0.00040741,-0.00014825,-0.00036706,0.00125761,-0.00067638,-0.00
 057290,0.00005704,-0.00007206,0.00009052,-0.00076446,0.00041449,0.0005
 7428,-0.11703632,0.06096803,0.13484898,-0.01262475,0.00954555,-0.01433
 308,-0.00089678,0.00435628,0.00354424,-0.00011298,-0.00039457,0.000923
 85,0.00297648,0.00251786,0.00093414,0.00502555,-0.00074484,0.00225281,
 -0.21427613,0.10050409,-0.10881676,0.00026197,0.00018813,0.00039498,-0
 .00001657,-0.00011247,0.00003548,-0.00002061,-0.00011223,-0.00014720,0
 .00001879,-0.00000844,-0.00008067,-0.00026184,-0.00210237,0.00006435,-
 0.00073709,0.00045761,-0.00075480,-0.00025399,-0.00046743,-0.00009002,
 -0.00055901,-0.00207666,-0.00035165,0.22147695,0.00865020,-0.00118479,
 0.00761739,0.00437444,0.00485796,-0.00168171,-0.00039206,-0.00054068,-
 0.00050699,0.00250281,0.00622106,-0.00007688,0.00013948,0.00375673,-0.
 00076016,0.10050162,-0.09596170,0.06316135,0.00024844,0.00049690,-0.00
 022621,-0.00009883,-0.00016403,0.00000267,-0.00003961,-0.00005393,0.00
 000804,-0.00010105,-0.00010682,0.00012077,-0.00208401,-0.00291562,-0.0
 0019069,0.00040927,-0.00019091,0.00040166,-0.00046712,-0.00085001,0.00
 001102,-0.00209307,-0.00319263,0.00001617,-0.11155052,0.08982847,0.012
 91387,-0.00740566,0.01253538,0.00299986,-0.00138208,-0.00106813,0.0008
 4768,-0.00046475,-0.00085508,0.00138823,-0.00032738,-0.00575678,-0.024
 68262,0.01409101,-0.01086933,-0.10872466,0.06311151,-0.13483872,-0.001
 44352,0.00078809,0.00087723,-0.00037796,0.00023029,-0.00089029,0.00011
 060,-0.00025363,-0.00017186,0.00027401,0.00004464,-0.00015843,-0.00049
 335,0.00011632,0.00066902,0.00071707,-0.00040986,0.00048940,-0.0001018
 9,0.00001758,0.00006776,0.00014839,-0.00025965,0.00107306,0.11642432,-
 0.06789642,0.13889677\\-0.00016761,0.00009505,-0.00005011,0.00003987,-
 0.00001078,0.00017089,0.00011963,-0.00007591,-0.00025234,-0.00007424,0
 .00005087,0.00004610,0.00007212,-0.00005349,0.00013946,0.00015453,-0.0
 0007198,-0.00023734,-0.00017314,0.00010710,0.00048706,-0.00004690,0.00
 001680,-0.00012563,0.00010352,0.00007191,-0.00012156,-0.00000400,-0.00
 013397,-0.00010726,0.00001098,-0.00001166,0.00000471,0.00001622,-0.000
 00992,0.00001174,-0.00002353,0.00001078,0.00003862,-0.00000396,0.00000
 160,-0.00001809,-0.00002348,0.00001359,0.00001373\\\@


 IT IS THE GODS' CUSTOM TO BRING LOW ALL THINGS OF SURPASSING GREATNESS.
     -- HERODOTUS
 IT IS THE LOFTY PINE THAT BY THE STORM IS OFTENER TOSSED;
 TOWERS FALL WITH HEAVIER CRASH WHICH HIGHER SOAR.
     -- HORACE
 THE BIGGER THEY COME, THE HARDER THEY FALL.
     -- BOB FITZSIMONS HEAVYWEIGHT CHAMPION, 1897-1899
 Job cpu time:       0 days  0 hours  8 minutes 22.6 seconds.
 File lengths (MBytes):  RWF=    206 Int=      0 D2E=      0 Chk=      5 Scr=      2
 Normal termination of Gaussian 09 at Mon Mar 17 19:40:40 2025.
