 Entering Gaussian System, Link 0=g09
 Initial command:
 /apps/z_install_tree/linux-rocky8-ivybridge/gcc-12.2.0/gaussian-09-D.01-wczn3gur5lpur3omlkzwa2l5ecyxp5ef/g09/l1.exe "/srv/scratch/z5358697/gauss/Gau-3855335.inp" -scrdir="/srv/scratch/z5358697/gauss/"
 Entering Link 1 = /apps/z_install_tree/linux-rocky8-ivybridge/gcc-12.2.0/gaussian-09-D.01-wczn3gur5lpur3omlkzwa2l5ecyxp5ef/g09/l1.exe PID=   3855337.
  
 Copyright (c) 1988,1990,1992,1993,1995,1998,2003,2009,2013,
            Gaussian, Inc.  All Rights Reserved.
  
 This is part of the Gaussian(R) 09 program.  It is based on
 the Gaussian(R) 03 system (copyright 2003, Gaussian, Inc.),
 the Gaussian(R) 98 system (copyright 1998, Gaussian, Inc.),
 the Gaussian(R) 94 system (copyright 1995, Gaussian, Inc.),
 the Gaussian 92(TM) system (copyright 1992, Gaussian, Inc.),
 the Gaussian 90(TM) system (copyright 1990, Gaussian, Inc.),
 the Gaussian 88(TM) system (copyright 1988, Gaussian, Inc.),
 the Gaussian 86(TM) system (copyright 1986, Carnegie Mellon
 University), and the Gaussian 82(TM) system (copyright 1983,
 Carnegie Mellon University). Gaussian is a federally registered
 trademark of Gaussian, Inc.
  
 This software contains proprietary and confidential information,
 including trade secrets, belonging to Gaussian, Inc.
  
 This software is provided under written license and may be
 used, copied, transmitted, or stored only in accord with that
 written license.
  
 The following legend is applicable only to US Government
 contracts under FAR:
  
                    RESTRICTED RIGHTS LEGEND
  
 Use, reproduction and disclosure by the US Government is
 subject to restrictions as set forth in subparagraphs (a)
 and (c) of the Commercial Computer Software - Restricted
 Rights clause in FAR 52.227-19.
  
 Gaussian, Inc.
 340 Quinnipiac St., Bldg. 40, Wallingford CT 06492
  
  
 ---------------------------------------------------------------
 Warning -- This program may not be used in any manner that
 competes with the business of Gaussian, Inc. or will provide
 assistance to any competitor of Gaussian, Inc.  The licensee
 of this program is prohibited from giving any competitor of
 Gaussian, Inc. access to this program.  By using this program,
 the user acknowledges that Gaussian, Inc. is engaged in the
 business of creating and licensing software in the field of
 computational chemistry and represents and warrants to the
 licensee that it is not a competitor of Gaussian, Inc. and that
 it will not use this program in any manner prohibited above.
 ---------------------------------------------------------------
  

 Cite this work as:
 Gaussian 09, Revision D.01,
 M. J. Frisch, G. W. Trucks, H. B. Schlegel, G. E. Scuseria, 
 M. A. Robb, J. R. Cheeseman, G. Scalmani, V. Barone, B. Mennucci, 
 G. A. Petersson, H. Nakatsuji, M. Caricato, X. Li, H. P. Hratchian, 
 A. F. Izmaylov, J. Bloino, G. Zheng, J. L. Sonnenberg, M. Hada, 
 M. Ehara, K. Toyota, R. Fukuda, J. Hasegawa, M. Ishida, T. Nakajima, 
 Y. Honda, O. Kitao, H. Nakai, T. Vreven, J. A. Montgomery, Jr., 
 J. E. Peralta, F. Ogliaro, M. Bearpark, J. J. Heyd, E. Brothers, 
 K. N. Kudin, V. N. Staroverov, T. Keith, R. Kobayashi, J. Normand, 
 K. Raghavachari, A. Rendell, J. C. Burant, S. S. Iyengar, J. Tomasi, 
 M. Cossi, N. Rega, J. M. Millam, M. Klene, J. E. Knox, J. B. Cross, 
 V. Bakken, C. Adamo, J. Jaramillo, R. Gomperts, R. E. Stratmann, 
 O. Yazyev, A. J. Austin, R. Cammi, C. Pomelli, J. W. Ochterski, 
 R. L. Martin, K. Morokuma, V. G. Zakrzewski, G. A. Voth, 
 P. Salvador, J. J. Dannenberg, S. Dapprich, A. D. Daniels, 
 O. Farkas, J. B. Foresman, J. V. Ortiz, J. Cioslowski, 
 and D. J. Fox, Gaussian, Inc., Wallingford CT, 2013.
 
 ******************************************
 Gaussian 09:  ES64L-G09RevD.01 24-Apr-2013
                20-Mar-2025 
 ******************************************
 ---------------------------------
 #m062X/6-31+G(d) OPT Freq=noraman
 ---------------------------------
 1/14=-1,18=20,19=15,26=3,38=1/1,3;
 2/9=110,12=2,17=6,18=5,40=1/2;
 3/5=1,6=6,7=11,11=2,16=1,25=1,30=1,71=1,74=-55/1,2,3;
 4//1;
 5/5=2,38=5/2;
 6/7=2,8=2,9=2,10=2,28=1/1;
 7//1,2,3,16;
 1/14=-1,18=20,19=15,26=3/3(2);
 2/9=110/2;
 99//99;
 2/9=110/2;
 3/5=1,6=6,7=11,11=2,16=1,25=1,30=1,71=1,74=-55/1,2,3;
 4/5=5,16=3,69=1/1;
 5/5=2,38=5/2;
 7//1,2,3,16;
 1/14=-1,18=20,19=15,26=3/3(-5);
 2/9=110/2;
 6/7=2,8=2,9=2,10=2,19=2,28=1/1;
 99/9=1/99;
 ------------
 bromomethane
 ------------
 Symbolic Z-matrix:
 Charge =  0 Multiplicity = 1
 C                     0.1359   -0.1      -0.0729 
 Br                   -1.2946    0.9519    0.6956 
 H                     0.8158    0.5792   -0.5895 
 H                     0.6483   -0.619     0.7385 
 H                    -0.3055   -0.8121   -0.7717 
 

 GradGradGradGradGradGradGradGradGradGradGradGradGradGradGradGradGradGrad
 Berny optimization.
 Initialization pass.
                           ----------------------------
                           !    Initial Parameters    !
                           ! (Angstroms and Degrees)  !
 --------------------------                            --------------------------
 ! Name  Definition              Value          Derivative Info.                !
 --------------------------------------------------------------------------------
 ! R1    R(1,2)                  1.9348         estimate D2E/DX2                !
 ! R2    R(1,3)                  1.0911         estimate D2E/DX2                !
 ! R3    R(1,4)                  1.091          estimate D2E/DX2                !
 ! R4    R(1,5)                  1.091          estimate D2E/DX2                !
 ! A1    A(2,1,3)              108.0804         estimate D2E/DX2                !
 ! A2    A(2,1,4)              108.0877         estimate D2E/DX2                !
 ! A3    A(2,1,5)              108.068          estimate D2E/DX2                !
 ! A4    A(3,1,4)              110.8301         estimate D2E/DX2                !
 ! A5    A(3,1,5)              110.8034         estimate D2E/DX2                !
 ! A6    A(4,1,5)              110.8478         estimate D2E/DX2                !
 ! D1    D(2,1,4,3)           -118.2671         estimate D2E/DX2                !
 ! D2    D(2,1,5,3)            118.2397         estimate D2E/DX2                !
 ! D3    D(2,1,5,4)           -118.2742         estimate D2E/DX2                !
 ! D4    D(3,1,5,4)            123.4861         estimate D2E/DX2                !
 --------------------------------------------------------------------------------
 Trust Radius=3.00D-01 FncErr=1.00D-07 GrdErr=1.00D-06
 Number of steps in this run=     24 maximum allowed number of steps=    100.
 GradGradGradGradGradGradGradGradGradGradGradGradGradGradGradGradGradGrad

                          Input orientation:                          
 ---------------------------------------------------------------------
 Center     Atomic      Atomic             Coordinates (Angstroms)
 Number     Number       Type             X           Y           Z
 ---------------------------------------------------------------------
      1          6           0        0.135900   -0.100000   -0.072900
      2         35           0       -1.294600    0.951900    0.695600
      3          1           0        0.815800    0.579200   -0.589500
      4          1           0        0.648300   -0.619000    0.738500
      5          1           0       -0.305500   -0.812100   -0.771700
 ---------------------------------------------------------------------
                    Distance matrix (angstroms):
                    1          2          3          4          5
     1  C    0.000000
     2  Br   1.934791   0.000000
     3  H    1.091078   2.498835   0.000000
     4  H    1.091002   2.498885   1.796475   0.000000
     5  H    1.090982   2.498596   1.796170   1.796587   0.000000
 Stoichiometry    CH3Br
 Framework group  C1[X(CH3Br)]
 Deg. of freedom     9
 Full point group                 C1      NOp   1
 Largest Abelian subgroup         C1      NOp   1
 Largest concise Abelian subgroup C1      NOp   1
                         Standard orientation:                         
 ---------------------------------------------------------------------
 Center     Atomic      Atomic             Coordinates (Angstroms)
 Number     Number       Type             X           Y           Z
 ---------------------------------------------------------------------
      1          6           0       -1.515954    0.000059   -0.000038
      2         35           0        0.418837    0.000001    0.000004
      3          1           0       -1.854604   -0.396908    0.958183
      4          1           0       -1.854646    1.028269   -0.135524
      5          1           0       -1.854319   -0.631761   -0.822567
 ---------------------------------------------------------------------
 Rotational constants (GHZ):    155.3891566      9.6200433      9.6198779
 Standard basis: 6-31+G(d) (6D, 7F)
 There are    59 symmetry adapted cartesian basis functions of A   symmetry.
 There are    59 symmetry adapted basis functions of A   symmetry.
    59 basis functions,   131 primitive gaussians,    59 cartesian basis functions
    22 alpha electrons       22 beta electrons
       nuclear repulsion energy        89.2869075424 Hartrees.
 NAtoms=    5 NActive=    5 NUniq=    5 SFac= 1.00D+00 NAtFMM=   60 NAOKFM=F Big=F
 Integral buffers will be    131072 words long.
 Raffenetti 2 integral format.
 Two-electron integral symmetry is turned on.
 One-electron integrals computed using PRISM.
 NBasis=    59 RedAO= T EigKep=  6.94D-04  NBF=    59
 NBsUse=    59 1.00D-06 EigRej= -1.00D+00 NBFU=    59
 ExpMin= 3.50D-02 ExpMax= 5.74D+05 ExpMxC= 5.74D+03 IAcc=3 IRadAn=         5 AccDes= 0.00D+00
 Harris functional with IExCor= 1009 and IRadAn=       5 diagonalized for initial guess.
 HarFok:  IExCor= 1009 AccDes= 0.00D+00 IRadAn=         5 IDoV= 1 UseB2=F ITyADJ=14
 ICtDFT=  3500011 ScaDFX=  1.000000  1.000000  1.000000  1.000000
 FoFCou: FMM=F IPFlag=           0 FMFlag=      100000 FMFlg1=           0
         NFxFlg=           0 DoJE=T BraDBF=F KetDBF=T FulRan=T
         wScrn=  0.000000 ICntrl=     500 IOpCl=  0 I1Cent=   200000004 NGrid=           0
         NMat0=    1 NMatS0=      1 NMatT0=    0 NMatD0=    1 NMtDS0=    0 NMtDT0=    0
 Petite list used in FoFCou.
 Keep R1 ints in memory in canonical form, NReq=2594168.
 Requested convergence on RMS density matrix=1.00D-08 within 128 cycles.
 Requested convergence on MAX density matrix=1.00D-06.
 Requested convergence on             energy=1.00D-06.
 No special actions if energy rises.
 SCF Done:  E(RM062X) =  -2611.67157905     A.U. after   10 cycles
            NFock= 10  Conv=0.43D-08     -V/T= 2.0068

 **********************************************************************

            Population analysis using the SCF density.

 **********************************************************************

 Orbital symmetries:
       Occupied  (A) (A) (A) (A) (A) (A) (A) (A) (A) (A) (A) (A)
                 (A) (A) (A) (A) (A) (A) (A) (A) (A) (A)
       Virtual   (A) (A) (A) (A) (A) (A) (A) (A) (A) (A) (A) (A)
                 (A) (A) (A) (A) (A) (A) (A) (A) (A) (A) (A) (A)
                 (A) (A) (A) (A) (A) (A) (A) (A) (A) (A) (A) (A)
                 (A)
 The electronic state is 1-A.
 Alpha  occ. eigenvalues -- -485.46584 -62.74845 -57.28199 -57.27928 -57.27928
 Alpha  occ. eigenvalues --  -10.60592  -8.92303  -6.87804  -6.86750  -6.86750
 Alpha  occ. eigenvalues --   -2.90657  -2.90292  -2.90292  -2.89360  -2.89360
 Alpha  occ. eigenvalues --   -0.89923  -0.75516  -0.51807  -0.51800  -0.44752
 Alpha  occ. eigenvalues --   -0.33577  -0.33577
 Alpha virt. eigenvalues --    0.00065   0.03164   0.05814   0.05820   0.07223
 Alpha virt. eigenvalues --    0.08790   0.08792   0.09539   0.14880   0.20372
 Alpha virt. eigenvalues --    0.20380   0.34514   0.45970   0.50561   0.50564
 Alpha virt. eigenvalues --    0.53273   0.53284   0.58629   0.64457   0.65317
 Alpha virt. eigenvalues --    0.65326   0.74993   0.75002   0.91030   0.99054
 Alpha virt. eigenvalues --    0.99066   1.13605   1.29767   1.74431   1.74809
 Alpha virt. eigenvalues --    1.74823   2.16668   2.28813   2.28849   4.19542
 Alpha virt. eigenvalues --    8.88336  76.78984
          Condensed to atoms (all electrons):
               1          2          3          4          5
     1  C    5.276096   0.200311   0.379472   0.379409   0.379569
     2  Br   0.200311  35.056606  -0.045865  -0.045818  -0.045952
     3  H    0.379472  -0.045865   0.475371  -0.026824  -0.026867
     4  H    0.379409  -0.045818  -0.026824   0.475327  -0.026808
     5  H    0.379569  -0.045952  -0.026867  -0.026808   0.475346
 Mulliken charges:
               1
     1  C   -0.614856
     2  Br  -0.119282
     3  H    0.244713
     4  H    0.244714
     5  H    0.244712
 Sum of Mulliken charges =   0.00000
 Mulliken charges with hydrogens summed into heavy atoms:
               1
     1  C    0.119282
     2  Br  -0.119282
 Electronic spatial extent (au):  <R**2>=            174.9169
 Charge=              0.0000 electrons
 Dipole moment (field-independent basis, Debye):
    X=             -2.0998    Y=             -0.0005    Z=              0.0009  Tot=              2.0998
 Quadrupole moment (field-independent basis, Debye-Ang):
   XX=            -22.1819   YY=            -26.1523   ZZ=            -26.1554
   XY=              0.0004   XZ=             -0.0002   YZ=              0.0002
 Traceless Quadrupole moment (field-independent basis, Debye-Ang):
   XX=              2.6480   YY=             -1.3225   ZZ=             -1.3255
   XY=              0.0004   XZ=             -0.0002   YZ=              0.0002
 Octapole moment (field-independent basis, Debye-Ang**2):
  XXX=             10.1749  YYY=              0.8193  ZZZ=              0.3428  XYY=              1.9930
  XXY=             -0.0001  XXZ=              0.0016  XZZ=              1.9951  YZZ=             -0.8197
  YYZ=             -0.3391  XYZ=              0.0002
 Hexadecapole moment (field-independent basis, Debye-Ang**3):
 XXXX=           -156.1763 YYYY=            -38.7001 ZZZZ=            -38.7124 XXXY=              0.0000
 XXXZ=             -0.0026 YYYX=             -1.4816 YYYZ=              0.0008 ZZZX=             -0.6147
 ZZZY=              0.0004 XXYY=            -31.6323 XXZZ=            -31.6401 YYZZ=            -12.9017
 XXYZ=             -0.0002 YYXZ=              0.6155 ZZXY=              1.4833
 N-N= 8.928690754238D+01 E-N=-6.402768154696D+03  KE= 2.594080077068D+03
 Calling FoFJK, ICntrl=      2127 FMM=F ISym2X=0 I1Cent= 0 IOpClX= 0 NMat=1 NMatS=1 NMatT=0.
 ***** Axes restored to original set *****
 -------------------------------------------------------------------
 Center     Atomic                   Forces (Hartrees/Bohr)
 Number     Number              X              Y              Z
 -------------------------------------------------------------------
      1        6           0.002482144   -0.001656624   -0.001459246
      2       35          -0.001173240    0.000807172    0.000703610
      3        1          -0.001295980   -0.001548143    0.001050394
      4        1          -0.000982363    0.001000736   -0.001747486
      5        1           0.000969439    0.001396860    0.001452728
 -------------------------------------------------------------------
 Cartesian Forces:  Max     0.002482144 RMS     0.001384659

 GradGradGradGradGradGradGradGradGradGradGradGradGradGradGradGradGradGrad
 Berny optimization.
 FormGI is forming the generalized inverse of G from B-inverse, IUseBI=4.
 Internal  Forces:  Max     0.002269807 RMS     0.001124613
 Search for a local minimum.
 Step number   1 out of a maximum of   24
 All quantities printed in internal units (Hartrees-Bohrs-Radians)
 Mixed Optimization -- RFO/linear search
 Second derivative matrix not updated -- first step.
 The second derivative matrix:
                          R1        R2        R3        R4        A1
           R1           0.16652
           R2           0.00000   0.34688
           R3           0.00000   0.00000   0.34697
           R4           0.00000   0.00000   0.00000   0.34699
           A1           0.00000   0.00000   0.00000   0.00000   0.16000
           A2           0.00000   0.00000   0.00000   0.00000   0.00000
           A3           0.00000   0.00000   0.00000   0.00000   0.00000
           A4           0.00000   0.00000   0.00000   0.00000   0.00000
           A5           0.00000   0.00000   0.00000   0.00000   0.00000
           A6           0.00000   0.00000   0.00000   0.00000   0.00000
           D1           0.00000   0.00000   0.00000   0.00000   0.00000
           D2           0.00000   0.00000   0.00000   0.00000   0.00000
           D3           0.00000   0.00000   0.00000   0.00000   0.00000
           D4           0.00000   0.00000   0.00000   0.00000   0.00000
                          A2        A3        A4        A5        A6
           A2           0.16000
           A3           0.00000   0.16000
           A4           0.00000   0.00000   0.16000
           A5           0.00000   0.00000   0.00000   0.16000
           A6           0.00000   0.00000   0.00000   0.00000   0.16000
           D1           0.00000   0.00000   0.00000   0.00000   0.00000
           D2           0.00000   0.00000   0.00000   0.00000   0.00000
           D3           0.00000   0.00000   0.00000   0.00000   0.00000
           D4           0.00000   0.00000   0.00000   0.00000   0.00000
                          D1        D2        D3        D4
           D1           0.00230
           D2           0.00000   0.00230
           D3           0.00000   0.00000   0.00230
           D4           0.00000   0.00000   0.00000   0.00230
 ITU=  0
     Eigenvalues ---    0.04931   0.05612   0.08906   0.16000   0.16000
     Eigenvalues ---    0.16652   0.34688   0.34697   0.34699
 RFO step:  Lambda=-5.96649483D-05 EMin= 4.93064628D-02
 Linear search not attempted -- first point.
 Iteration  1 RMS(Cart)=  0.00383080 RMS(Int)=  0.00000296
 Iteration  2 RMS(Cart)=  0.00000154 RMS(Int)=  0.00000057
 Iteration  3 RMS(Cart)=  0.00000000 RMS(Int)=  0.00000057
 Variable       Old X    -DE/DX   Delta X   Delta X   Delta X     New X
                                 (Linear)    (Quad)   (Total)
    R1        3.65623   0.00159   0.00000   0.00952   0.00952   3.66574
    R2        2.06184  -0.00227   0.00000  -0.00654  -0.00654   2.05530
    R3        2.06169  -0.00223   0.00000  -0.00643  -0.00643   2.05526
    R4        2.06166  -0.00224   0.00000  -0.00645  -0.00645   2.05521
    A1        1.88636   0.00008   0.00000   0.00174   0.00174   1.88809
    A2        1.88649   0.00001   0.00000   0.00022   0.00022   1.88671
    A3        1.88614   0.00005   0.00000   0.00054   0.00054   1.88669
    A4        1.93435  -0.00003   0.00000  -0.00092  -0.00092   1.93343
    A5        1.93388  -0.00001   0.00000  -0.00031  -0.00031   1.93357
    A6        1.93466  -0.00008   0.00000  -0.00114  -0.00114   1.93352
    D1       -2.06415  -0.00008   0.00000  -0.00171  -0.00171  -2.06586
    D2        2.06367   0.00011   0.00000   0.00226   0.00226   2.06593
    D3       -2.06427   0.00000   0.00000   0.00005   0.00005  -2.06422
    D4        2.15524  -0.00011   0.00000  -0.00221  -0.00221   2.15303
         Item               Value     Threshold  Converged?
 Maximum Force            0.002270     0.000450     NO 
 RMS     Force            0.001125     0.000300     NO 
 Maximum Displacement     0.006823     0.001800     NO 
 RMS     Displacement     0.003830     0.001200     NO 
 Predicted change in Energy=-2.983912D-05
 GradGradGradGradGradGradGradGradGradGradGradGradGradGradGradGradGradGrad

                          Input orientation:                          
 ---------------------------------------------------------------------
 Center     Atomic      Atomic             Coordinates (Angstroms)
 Number     Number       Type             X           Y           Z
 ---------------------------------------------------------------------
      1          6           0        0.136803   -0.100346   -0.073585
      2         35           0       -1.297621    0.953693    0.697365
      3          1           0        0.815536    0.575589   -0.588699
      4          1           0        0.647809   -0.618132    0.734893
      5          1           0       -0.302628   -0.810805   -0.769974
 ---------------------------------------------------------------------
                    Distance matrix (angstroms):
                    1          2          3          4          5
     1  C    0.000000
     2  Br   1.939829   0.000000
     3  H    1.087616   2.502470   0.000000
     4  H    1.087597   2.501347   1.790251   0.000000
     5  H    1.087570   2.501310   1.790319   1.790273   0.000000
 Stoichiometry    CH3Br
 Framework group  C1[X(CH3Br)]
 Deg. of freedom     9
 Full point group                 C1      NOp   1
 Largest Abelian subgroup         C1      NOp   1
 Largest concise Abelian subgroup C1      NOp   1
                         Standard orientation:                         
 ---------------------------------------------------------------------
 Center     Atomic      Atomic             Coordinates (Angstroms)
 Number     Number       Type             X           Y           Z
 ---------------------------------------------------------------------
      1          6           0       -1.519975    0.000014    0.000029
      2         35           0        0.419854    0.000014    0.000011
      3          1           0       -1.859307    0.795717    0.659285
      4          1           0       -1.857884    0.172990   -1.019169
      5          1           0       -1.857838   -0.969295    0.359332
 ---------------------------------------------------------------------
 Rotational constants (GHZ):    156.4551151      9.5759428      9.5759168
 Standard basis: 6-31+G(d) (6D, 7F)
 There are    59 symmetry adapted cartesian basis functions of A   symmetry.
 There are    59 symmetry adapted basis functions of A   symmetry.
    59 basis functions,   131 primitive gaussians,    59 cartesian basis functions
    22 alpha electrons       22 beta electrons
       nuclear repulsion energy        89.1421723065 Hartrees.
 NAtoms=    5 NActive=    5 NUniq=    5 SFac= 1.00D+00 NAtFMM=   60 NAOKFM=F Big=F
 Integral buffers will be    131072 words long.
 Raffenetti 2 integral format.
 Two-electron integral symmetry is turned on.
 One-electron integrals computed using PRISM.
 NBasis=    59 RedAO= T EigKep=  6.95D-04  NBF=    59
 NBsUse=    59 1.00D-06 EigRej= -1.00D+00 NBFU=    59
 Initial guess from the checkpoint file:  "/srv/scratch/z5358697/gauss/Gau-3855337.chk"
 B after Tr=     0.000000    0.000000    0.000000
         Rot=    0.804668    0.593725    0.000044   -0.000003 Ang=  72.84 deg.
 Keep R1 ints in memory in canonical form, NReq=2594168.
 Requested convergence on RMS density matrix=1.00D-08 within 128 cycles.
 Requested convergence on MAX density matrix=1.00D-06.
 Requested convergence on             energy=1.00D-06.
 No special actions if energy rises.
 SCF Done:  E(RM062X) =  -2611.67160516     A.U. after    8 cycles
            NFock=  8  Conv=0.73D-08     -V/T= 2.0068
 Calling FoFJK, ICntrl=      2127 FMM=F ISym2X=0 I1Cent= 0 IOpClX= 0 NMat=1 NMatS=1 NMatT=0.
 ***** Axes restored to original set *****
 -------------------------------------------------------------------
 Center     Atomic                   Forces (Hartrees/Bohr)
 Number     Number              X              Y              Z
 -------------------------------------------------------------------
      1        6           0.000127145   -0.000260515   -0.000133155
      2       35           0.000345355   -0.000130985   -0.000124624
      3        1          -0.000170333    0.000341034    0.000041711
      4        1          -0.000102664    0.000055324    0.000258074
      5        1          -0.000199503   -0.000004858   -0.000042007
 -------------------------------------------------------------------
 Cartesian Forces:  Max     0.000345355 RMS     0.000186650

 GradGradGradGradGradGradGradGradGradGradGradGradGradGradGradGradGradGrad
 Berny optimization.
 Using GEDIIS/GDIIS optimizer.
 FormGI is forming the generalized inverse of G from B-inverse, IUseBI=4.
 Internal  Forces:  Max     0.000376080 RMS     0.000159482
 Search for a local minimum.
 Step number   2 out of a maximum of   24
 All quantities printed in internal units (Hartrees-Bohrs-Radians)
 Mixed Optimization -- En-DIIS/RFO-DIIS
 Update second derivatives using D2CorX and points    1    2
 DE= -2.61D-05 DEPred=-2.98D-05 R= 8.75D-01
 TightC=F SS=  1.41D+00  RLast= 1.53D-02 DXNew= 5.0454D-01 4.5980D-02
 Trust test= 8.75D-01 RLast= 1.53D-02 DXMaxT set to 3.00D-01
 The second derivative matrix:
                          R1        R2        R3        R4        A1
           R1           0.18191
           R2          -0.00874   0.34342
           R3          -0.00963  -0.00216   0.34608
           R4          -0.00936  -0.00251  -0.00123   0.34542
           A1          -0.00081   0.00268   0.00252   0.00255   0.15946
           A2           0.00282  -0.00317  -0.00318  -0.00317   0.00026
           A3          -0.00044   0.00106   0.00101   0.00102  -0.00019
           A4           0.00138  -0.00256  -0.00248  -0.00249   0.00040
           A5          -0.00218   0.00231   0.00234   0.00232  -0.00017
           A6          -0.00069  -0.00029  -0.00019  -0.00021   0.00022
           D1          -0.00870   0.01043   0.01041   0.01039  -0.00099
           D2           0.00696  -0.00832  -0.00831  -0.00830   0.00079
           D3          -0.00254   0.00305   0.00305   0.00304  -0.00029
           D4          -0.00950   0.01138   0.01136   0.01134  -0.00108
                          A2        A3        A4        A5        A6
           A2           0.16023
           A3           0.00007   0.15993
           A4          -0.00008   0.00013   0.15975
           A5          -0.00020  -0.00004   0.00003   0.16017
           A6          -0.00025   0.00009  -0.00021   0.00018   0.15998
           D1          -0.00058  -0.00028   0.00038   0.00053   0.00083
           D2           0.00046   0.00022  -0.00030  -0.00043  -0.00067
           D3          -0.00017  -0.00008   0.00011   0.00016   0.00024
           D4          -0.00063  -0.00031   0.00042   0.00058   0.00091
                          D1        D2        D3        D4
           D1           0.00365
           D2          -0.00109   0.00318
           D3           0.00039  -0.00031   0.00241
           D4           0.00148  -0.00119   0.00043   0.00391
 ITU=  1  0
 Use linear search instead of GDIIS.
     Eigenvalues ---    0.05126   0.05619   0.08876   0.15999   0.16000
     Eigenvalues ---    0.18124   0.34403   0.34698   0.34794
 RFO step:  Lambda=-2.78401979D-06 EMin= 5.12620527D-02
 Quartic linear search produced a step of -0.10919.
 Iteration  1 RMS(Cart)=  0.00137697 RMS(Int)=  0.00000237
 Iteration  2 RMS(Cart)=  0.00000142 RMS(Int)=  0.00000177
 Iteration  3 RMS(Cart)=  0.00000000 RMS(Int)=  0.00000177
 Variable       Old X    -DE/DX   Delta X   Delta X   Delta X     New X
                                 (Linear)    (Quad)   (Total)
    R1        3.66574  -0.00038  -0.00104  -0.00054  -0.00158   3.66416
    R2        2.05530   0.00009   0.00071  -0.00080  -0.00008   2.05522
    R3        2.05526   0.00012   0.00070  -0.00069   0.00001   2.05527
    R4        2.05521   0.00011   0.00070  -0.00072  -0.00001   2.05520
    A1        1.88809  -0.00015  -0.00019  -0.00244  -0.00263   1.88547
    A2        1.88671  -0.00011  -0.00002  -0.00152  -0.00154   1.88517
    A3        1.88669  -0.00002  -0.00006  -0.00035  -0.00040   1.88628
    A4        1.93343   0.00005   0.00010   0.00136   0.00146   1.93489
    A5        1.93357   0.00011   0.00003   0.00137   0.00140   1.93497
    A6        1.93352   0.00011   0.00012   0.00136   0.00148   1.93500
    D1       -2.06586   0.00022   0.00019   0.00310   0.00329  -2.06257
    D2        2.06593  -0.00013  -0.00025  -0.00239  -0.00263   2.06330
    D3       -2.06422   0.00009  -0.00001   0.00128   0.00127  -2.06295
    D4        2.15303   0.00022   0.00024   0.00366   0.00391   2.15694
         Item               Value     Threshold  Converged?
 Maximum Force            0.000376     0.000450     YES
 RMS     Force            0.000159     0.000300     YES
 Maximum Displacement     0.002985     0.001800     NO 
 RMS     Displacement     0.001377     0.001200     NO 
 Predicted change in Energy=-1.783332D-06
 GradGradGradGradGradGradGradGradGradGradGradGradGradGradGradGradGradGrad

                          Input orientation:                          
 ---------------------------------------------------------------------
 Center     Atomic      Atomic             Coordinates (Angstroms)
 Number     Number       Type             X           Y           Z
 ---------------------------------------------------------------------
      1          6           0        0.137164   -0.101040   -0.073931
      2         35           0       -1.296041    0.953285    0.696790
      3          1           0        0.814556    0.576735   -0.588301
      4          1           0        0.647296   -0.617919    0.735686
      5          1           0       -0.303075   -0.811061   -0.770245
 ---------------------------------------------------------------------
                    Distance matrix (angstroms):
                    1          2          3          4          5
     1  C    0.000000
     2  Br   1.938992   0.000000
     3  H    1.087573   2.499574   0.000000
     4  H    1.087602   2.499350   1.791121   0.000000
     5  H    1.087562   2.500218   1.791139   1.791183   0.000000
 Stoichiometry    CH3Br
 Framework group  C1[X(CH3Br)]
 Deg. of freedom     9
 Full point group                 C1      NOp   1
 Largest Abelian subgroup         C1      NOp   1
 Largest concise Abelian subgroup C1      NOp   1
                         Standard orientation:                         
 ---------------------------------------------------------------------
 Center     Atomic      Atomic             Coordinates (Angstroms)
 Number     Number       Type             X           Y           Z
 ---------------------------------------------------------------------
      1          6           0       -1.519417   -0.000036   -0.000006
      2         35           0        0.419575   -0.000012   -0.000001
      3          1           0       -1.856030    0.146755    1.023692
      4          1           0       -1.855730    0.813496   -0.638707
      5          1           0       -1.856850   -0.959613   -0.384898
 ---------------------------------------------------------------------
 Rotational constants (GHZ):    156.3036970      9.5867594      9.5867354
 Standard basis: 6-31+G(d) (6D, 7F)
 There are    59 symmetry adapted cartesian basis functions of A   symmetry.
 There are    59 symmetry adapted basis functions of A   symmetry.
    59 basis functions,   131 primitive gaussians,    59 cartesian basis functions
    22 alpha electrons       22 beta electrons
       nuclear repulsion energy        89.1843216593 Hartrees.
 NAtoms=    5 NActive=    5 NUniq=    5 SFac= 1.00D+00 NAtFMM=   60 NAOKFM=F Big=F
 Integral buffers will be    131072 words long.
 Raffenetti 2 integral format.
 Two-electron integral symmetry is turned on.
 One-electron integrals computed using PRISM.
 NBasis=    59 RedAO= T EigKep=  6.94D-04  NBF=    59
 NBsUse=    59 1.00D-06 EigRej= -1.00D+00 NBFU=    59
 Initial guess from the checkpoint file:  "/srv/scratch/z5358697/gauss/Gau-3855337.chk"
 B after Tr=     0.000000    0.000000    0.000000
         Rot=    0.932928   -0.360063   -0.000032    0.000055 Ang= -42.21 deg.
 Keep R1 ints in memory in canonical form, NReq=2594168.
 Requested convergence on RMS density matrix=1.00D-08 within 128 cycles.
 Requested convergence on MAX density matrix=1.00D-06.
 Requested convergence on             energy=1.00D-06.
 No special actions if energy rises.
 SCF Done:  E(RM062X) =  -2611.67160687     A.U. after    8 cycles
            NFock=  8  Conv=0.30D-08     -V/T= 2.0068
 Calling FoFJK, ICntrl=      2127 FMM=F ISym2X=0 I1Cent= 0 IOpClX= 0 NMat=1 NMatS=1 NMatT=0.
 ***** Axes restored to original set *****
 -------------------------------------------------------------------
 Center     Atomic                   Forces (Hartrees/Bohr)
 Number     Number              X              Y              Z
 -------------------------------------------------------------------
      1        6           0.000091484   -0.000134598   -0.000022939
      2       35          -0.000078557    0.000122219    0.000039181
      3        1           0.000036985    0.000073197   -0.000033989
      4        1          -0.000005177   -0.000002059    0.000073360
      5        1          -0.000044735   -0.000058759   -0.000055612
 -------------------------------------------------------------------
 Cartesian Forces:  Max     0.000134598 RMS     0.000069039

 GradGradGradGradGradGradGradGradGradGradGradGradGradGradGradGradGradGrad
 Berny optimization.
 Using GEDIIS/GDIIS optimizer.
 FormGI is forming the generalized inverse of G from B-inverse, IUseBI=4.
 Internal  Forces:  Max     0.000140095 RMS     0.000055136
 Search for a local minimum.
 Step number   3 out of a maximum of   24
 All quantities printed in internal units (Hartrees-Bohrs-Radians)
 Mixed Optimization -- En-DIIS/RFO-DIIS
 Swapping is turned off.
 Update second derivatives using D2CorX and points    1    2    3
 DE= -1.71D-06 DEPred=-1.78D-06 R= 9.57D-01
 TightC=F SS=  1.41D+00  RLast= 7.27D-03 DXNew= 5.0454D-01 2.1805D-02
 Trust test= 9.57D-01 RLast= 7.27D-03 DXMaxT set to 3.00D-01
 The second derivative matrix:
                          R1        R2        R3        R4        A1
           R1           0.21359
           R2           0.00551   0.34768
           R3          -0.00208  -0.00046   0.34654
           R4           0.00403   0.00114   0.00012   0.34842
           A1          -0.02029   0.00259   0.00400   0.00492   0.10755
           A2          -0.00660  -0.00248  -0.00196  -0.00112  -0.03045
           A3          -0.00066   0.00190   0.00162   0.00208  -0.00716
           A4           0.01467  -0.00172  -0.00293  -0.00314   0.02986
           A5           0.00322   0.00074   0.00081  -0.00030   0.02651
           A6           0.00813  -0.00095  -0.00135  -0.00214   0.02890
           D1          -0.02824   0.00395   0.00742   0.00492  -0.00471
           D2           0.01858  -0.00439  -0.00647  -0.00494   0.00247
           D3          -0.01258  -0.00018   0.00158   0.00033  -0.00270
           D4          -0.03116   0.00420   0.00805   0.00527  -0.00517
                          A2        A3        A4        A5        A6
           A2           0.14216
           A3          -0.00392   0.15915
           A4           0.01748   0.00422   0.14315
           A5           0.01534   0.00326  -0.01537   0.14700
           A6           0.01662   0.00382  -0.01660  -0.01433   0.14422
           D1          -0.00375  -0.00189   0.00146   0.00458   0.00380
           D2           0.00205   0.00112  -0.00063  -0.00259  -0.00214
           D3          -0.00208  -0.00096   0.00096   0.00246   0.00203
           D4          -0.00413  -0.00208   0.00159   0.00505   0.00417
                          D1        D2        D3        D4
           D1           0.01178
           D2          -0.00606   0.00621
           D3           0.00444  -0.00280   0.00443
           D4           0.01050  -0.00670   0.00492   0.01393
 ITU=  1  1  0
     Eigenvalues ---    0.04096   0.05611   0.08727   0.15992   0.16008
     Eigenvalues ---    0.21754   0.34644   0.34730   0.34968
 En-DIIS/RFO-DIIS IScMMF=        0 using points:     3    2
 RFO step:  Lambda=-9.62763344D-08.
 DidBck=F Rises=F RFO-DIIS coefs:    1.04536   -0.04536
 Iteration  1 RMS(Cart)=  0.00032952 RMS(Int)=  0.00000018
 Iteration  2 RMS(Cart)=  0.00000009 RMS(Int)=  0.00000015
 Variable       Old X    -DE/DX   Delta X   Delta X   Delta X     New X
                                 (Linear)    (Quad)   (Total)
    R1        3.66416   0.00014  -0.00007   0.00090   0.00083   3.66499
    R2        2.05522   0.00009   0.00000   0.00022   0.00022   2.05543
    R3        2.05527   0.00005   0.00000   0.00011   0.00011   2.05538
    R4        2.05520   0.00009   0.00000   0.00023   0.00023   2.05543
    A1        1.88547  -0.00003  -0.00012  -0.00057  -0.00069   1.88478
    A2        1.88517  -0.00002  -0.00007  -0.00028  -0.00035   1.88482
    A3        1.88628   0.00002  -0.00002   0.00015   0.00014   1.88642
    A4        1.93489   0.00001   0.00007   0.00019   0.00025   1.93514
    A5        1.93497   0.00000   0.00006   0.00016   0.00022   1.93519
    A6        1.93500   0.00002   0.00007   0.00031   0.00037   1.93537
    D1       -2.06257   0.00004   0.00015   0.00075   0.00090  -2.06168
    D2        2.06330  -0.00002  -0.00012  -0.00050  -0.00062   2.06268
    D3       -2.06295   0.00000   0.00006   0.00007   0.00013  -2.06282
    D4        2.15694   0.00002   0.00018   0.00057   0.00075   2.15769
         Item               Value     Threshold  Converged?
 Maximum Force            0.000140     0.000450     YES
 RMS     Force            0.000055     0.000300     YES
 Maximum Displacement     0.000501     0.001800     YES
 RMS     Displacement     0.000330     0.001200     YES
 Predicted change in Energy=-1.297415D-07
 Optimization completed.
    -- Stationary point found.
                           ----------------------------
                           !   Optimized Parameters   !
                           ! (Angstroms and Degrees)  !
 --------------------------                            --------------------------
 ! Name  Definition              Value          Derivative Info.                !
 --------------------------------------------------------------------------------
 ! R1    R(1,2)                  1.939          -DE/DX =    0.0001              !
 ! R2    R(1,3)                  1.0876         -DE/DX =    0.0001              !
 ! R3    R(1,4)                  1.0876         -DE/DX =    0.0001              !
 ! R4    R(1,5)                  1.0876         -DE/DX =    0.0001              !
 ! A1    A(2,1,3)              108.0294         -DE/DX =    0.0                 !
 ! A2    A(2,1,4)              108.012          -DE/DX =    0.0                 !
 ! A3    A(2,1,5)              108.076          -DE/DX =    0.0                 !
 ! A4    A(3,1,4)              110.8608         -DE/DX =    0.0                 !
 ! A5    A(3,1,5)              110.8655         -DE/DX =    0.0                 !
 ! A6    A(4,1,5)              110.8674         -DE/DX =    0.0                 !
 ! D1    D(2,1,4,3)           -118.1768         -DE/DX =    0.0                 !
 ! D2    D(2,1,5,3)            118.2183         -DE/DX =    0.0                 !
 ! D3    D(2,1,5,4)           -118.1983         -DE/DX =    0.0                 !
 ! D4    D(3,1,5,4)            123.5834         -DE/DX =    0.0                 !
 --------------------------------------------------------------------------------
 GradGradGradGradGradGradGradGradGradGradGradGradGradGradGradGradGradGrad

                          Input orientation:                          
 ---------------------------------------------------------------------
 Center     Atomic      Atomic             Coordinates (Angstroms)
 Number     Number       Type             X           Y           Z
 ---------------------------------------------------------------------
      1          6           0        0.137164   -0.101040   -0.073931
      2         35           0       -1.296041    0.953285    0.696790
      3          1           0        0.814556    0.576735   -0.588301
      4          1           0        0.647296   -0.617919    0.735686
      5          1           0       -0.303075   -0.811061   -0.770245
 ---------------------------------------------------------------------
                    Distance matrix (angstroms):
                    1          2          3          4          5
     1  C    0.000000
     2  Br   1.938992   0.000000
     3  H    1.087573   2.499574   0.000000
     4  H    1.087602   2.499350   1.791121   0.000000
     5  H    1.087562   2.500218   1.791139   1.791183   0.000000
 Stoichiometry    CH3Br
 Framework group  C1[X(CH3Br)]
 Deg. of freedom     9
 Full point group                 C1      NOp   1
 Largest Abelian subgroup         C1      NOp   1
 Largest concise Abelian subgroup C1      NOp   1
                         Standard orientation:                         
 ---------------------------------------------------------------------
 Center     Atomic      Atomic             Coordinates (Angstroms)
 Number     Number       Type             X           Y           Z
 ---------------------------------------------------------------------
      1          6           0       -1.519417   -0.000036   -0.000006
      2         35           0        0.419575   -0.000012   -0.000001
      3          1           0       -1.856030    0.146755    1.023692
      4          1           0       -1.855730    0.813496   -0.638707
      5          1           0       -1.856850   -0.959613   -0.384898
 ---------------------------------------------------------------------
 Rotational constants (GHZ):    156.3036970      9.5867594      9.5867354

 **********************************************************************

            Population analysis using the SCF density.

 **********************************************************************

 Orbital symmetries:
       Occupied  (A) (A) (A) (A) (A) (A) (A) (A) (A) (A) (A) (A)
                 (A) (A) (A) (A) (A) (A) (A) (A) (A) (A)
       Virtual   (A) (A) (A) (A) (A) (A) (A) (A) (A) (A) (A) (A)
                 (A) (A) (A) (A) (A) (A) (A) (A) (A) (A) (A) (A)
                 (A) (A) (A) (A) (A) (A) (A) (A) (A) (A) (A) (A)
                 (A)
 The electronic state is 1-A.
 Alpha  occ. eigenvalues -- -485.46580 -62.74840 -57.28195 -57.27924 -57.27924
 Alpha  occ. eigenvalues --  -10.60532  -8.92295  -6.87795  -6.86742  -6.86741
 Alpha  occ. eigenvalues --   -2.90647  -2.90283  -2.90283  -2.89352  -2.89352
 Alpha  occ. eigenvalues --   -0.89878  -0.75623  -0.51879  -0.51877  -0.44704
 Alpha  occ. eigenvalues --   -0.33588  -0.33586
 Alpha virt. eigenvalues --    0.00043   0.03144   0.05821   0.05826   0.07227
 Alpha virt. eigenvalues --    0.08784   0.08785   0.09458   0.14901   0.20479
 Alpha virt. eigenvalues --    0.20483   0.34627   0.45950   0.50537   0.50541
 Alpha virt. eigenvalues --    0.53270   0.53282   0.58622   0.64430   0.65312
 Alpha virt. eigenvalues --    0.65321   0.74959   0.74972   0.90905   0.99199
 Alpha virt. eigenvalues --    0.99212   1.13929   1.29818   1.74349   1.74675
 Alpha virt. eigenvalues --    1.74686   2.16666   2.29328   2.29346   4.19771
 Alpha virt. eigenvalues --    8.88318  76.78266
          Condensed to atoms (all electrons):
               1          2          3          4          5
     1  C    5.274899   0.200873   0.379738   0.379899   0.379723
     2  Br   0.200873  35.056318  -0.045513  -0.045635  -0.045444
     3  H    0.379738  -0.045513   0.474366  -0.026919  -0.026915
     4  H    0.379899  -0.045635  -0.026919   0.474348  -0.026926
     5  H    0.379723  -0.045444  -0.026915  -0.026926   0.474306
 Mulliken charges:
               1
     1  C   -0.615132
     2  Br  -0.120599
     3  H    0.245243
     4  H    0.245233
     5  H    0.245256
 Sum of Mulliken charges =   0.00000
 Mulliken charges with hydrogens summed into heavy atoms:
               1
     1  C    0.120599
     2  Br  -0.120599
 Electronic spatial extent (au):  <R**2>=            175.1908
 Charge=              0.0000 electrons
 Dipole moment (field-independent basis, Debye):
    X=             -2.1110    Y=             -0.0006    Z=             -0.0001  Tot=              2.1110
 Quadrupole moment (field-independent basis, Debye-Ang):
   XX=            -22.1431   YY=            -26.1549   ZZ=            -26.1539
   XY=              0.0009   XZ=              0.0004   YZ=             -0.0001
 Traceless Quadrupole moment (field-independent basis, Debye-Ang):
   XX=              2.6742   YY=             -1.3376   ZZ=             -1.3366
   XY=              0.0009   XZ=              0.0004   YZ=             -0.0001
 Octapole moment (field-independent basis, Debye-Ang**2):
  XXX=             10.0706  YYY=             -0.3659  ZZZ=              0.8009  XYY=              1.9882
  XXY=             -0.0035  XXZ=              0.0001  XZZ=              1.9902  YZZ=              0.3631
  YYZ=             -0.8004  XYZ=             -0.0007
 Hexadecapole moment (field-independent basis, Debye-Ang**3):
 XXXX=           -156.2658 YYYY=            -38.6662 ZZZZ=            -38.6545 XXXY=              0.0113
 XXXZ=              0.0017 YYYX=              0.6587 YYYZ=             -0.0010 ZZZX=             -1.4491
 ZZZY=              0.0000 XXYY=            -31.6726 XXZZ=            -31.6746 YYZZ=            -12.8866
 XXYZ=              0.0022 YYXZ=              1.4505 ZZXY=             -0.6592
 N-N= 8.918432165930D+01 E-N=-6.402570372131D+03  KE= 2.594088656785D+03
 1\1\GINC-KATANA1\FOpt\RM062X\6-31+G(d)\C1H3Br1\Z5358697\20-Mar-2025\0\
 \#m062X/6-31+G(d) OPT Freq=noraman\\bromomethane\\0,1\C,0.1371636521,-
 0.1010401267,-0.0739311594\Br,-1.2960410484,0.9532848023,0.6967903521\
 H,0.8145558215,0.5767350953,-0.588300844\H,0.6472960768,-0.617918608,0
 .7356863843\H,-0.303074502,-0.811061163,-0.770244733\\Version=ES64L-G0
 9RevD.01\State=1-A\HF=-2611.6716069\RMSD=2.951e-09\RMSF=6.904e-05\Dipo
 le=0.6137306,-0.4516787,-0.3302847\Quadrupole=0.6344552,-0.1117568,-0.
 5226985,-1.1986378,-0.8765232,0.6446788\PG=C01 [X(C1H3Br1)]\\@


 Experience is what you get when you don't get what you want.
 -- Dan Stanford
 Job cpu time:       0 days  0 hours  0 minutes 13.4 seconds.
 File lengths (MBytes):  RWF=    132 Int=      0 D2E=      0 Chk=      2 Scr=      2
 Normal termination of Gaussian 09 at Thu Mar 20 14:18:09 2025.
 Link1:  Proceeding to internal job step number  2.
 ---------------------------------------------------------------------
 #N Geom=AllCheck Guess=TCheck SCRF=Check GenChk RM062X/6-31+G(d) Freq
 ---------------------------------------------------------------------
 1/10=4,29=7,30=1,38=1,40=1/1,3;
 2/12=2,40=1/2;
 3/5=1,6=6,7=11,11=2,14=-4,16=1,25=1,30=1,70=2,71=2,74=-55,116=1,140=1/1,2,3;
 4/5=101/1;
 5/5=2,98=1/2;
 8/6=4,10=90,11=11/1;
 11/6=1,8=1,9=11,15=111,16=1/1,2,10;
 10/6=1/2;
 6/7=2,8=2,9=2,10=2,18=1,28=1/1;
 7/8=1,10=1,25=1/1,2,3,16;
 1/10=4,30=1/3;
 99//99;
 Structure from the checkpoint file:  "/srv/scratch/z5358697/gauss/Gau-3855337.chk"
 ------------
 bromomethane
 ------------
 Charge =  0 Multiplicity = 1
 Redundant internal coordinates found in file.
 C,0,0.1371636521,-0.1010401267,-0.0739311594
 Br,0,-1.2960410484,0.9532848023,0.6967903521
 H,0,0.8145558215,0.5767350953,-0.588300844
 H,0,0.6472960768,-0.617918608,0.7356863843
 H,0,-0.303074502,-0.811061163,-0.770244733
 Recover connectivity data from disk.

 GradGradGradGradGradGradGradGradGradGradGradGradGradGradGradGradGradGrad
 Berny optimization.
 Initialization pass.
                           ----------------------------
                           !    Initial Parameters    !
                           ! (Angstroms and Degrees)  !
 --------------------------                            --------------------------
 ! Name  Definition              Value          Derivative Info.                !
 --------------------------------------------------------------------------------
 ! R1    R(1,2)                  1.939          calculate D2E/DX2 analytically  !
 ! R2    R(1,3)                  1.0876         calculate D2E/DX2 analytically  !
 ! R3    R(1,4)                  1.0876         calculate D2E/DX2 analytically  !
 ! R4    R(1,5)                  1.0876         calculate D2E/DX2 analytically  !
 ! A1    A(2,1,3)              108.0294         calculate D2E/DX2 analytically  !
 ! A2    A(2,1,4)              108.012          calculate D2E/DX2 analytically  !
 ! A3    A(2,1,5)              108.076          calculate D2E/DX2 analytically  !
 ! A4    A(3,1,4)              110.8608         calculate D2E/DX2 analytically  !
 ! A5    A(3,1,5)              110.8655         calculate D2E/DX2 analytically  !
 ! A6    A(4,1,5)              110.8674         calculate D2E/DX2 analytically  !
 ! D1    D(2,1,4,3)           -118.1768         calculate D2E/DX2 analytically  !
 ! D2    D(2,1,5,3)            118.2183         calculate D2E/DX2 analytically  !
 ! D3    D(2,1,5,4)           -118.1983         calculate D2E/DX2 analytically  !
 ! D4    D(3,1,5,4)            123.5834         calculate D2E/DX2 analytically  !
 --------------------------------------------------------------------------------
 Trust Radius=3.00D-01 FncErr=1.00D-07 GrdErr=1.00D-07
 Number of steps in this run=      2 maximum allowed number of steps=      2.
 GradGradGradGradGradGradGradGradGradGradGradGradGradGradGradGradGradGrad

                          Input orientation:                          
 ---------------------------------------------------------------------
 Center     Atomic      Atomic             Coordinates (Angstroms)
 Number     Number       Type             X           Y           Z
 ---------------------------------------------------------------------
      1          6           0        0.137164   -0.101040   -0.073931
      2         35           0       -1.296041    0.953285    0.696790
      3          1           0        0.814556    0.576735   -0.588301
      4          1           0        0.647296   -0.617919    0.735686
      5          1           0       -0.303075   -0.811061   -0.770245
 ---------------------------------------------------------------------
                    Distance matrix (angstroms):
                    1          2          3          4          5
     1  C    0.000000
     2  Br   1.938992   0.000000
     3  H    1.087573   2.499574   0.000000
     4  H    1.087602   2.499350   1.791121   0.000000
     5  H    1.087562   2.500218   1.791139   1.791183   0.000000
 Stoichiometry    CH3Br
 Framework group  C1[X(CH3Br)]
 Deg. of freedom     9
 Full point group                 C1      NOp   1
 Largest Abelian subgroup         C1      NOp   1
 Largest concise Abelian subgroup C1      NOp   1
                         Standard orientation:                         
 ---------------------------------------------------------------------
 Center     Atomic      Atomic             Coordinates (Angstroms)
 Number     Number       Type             X           Y           Z
 ---------------------------------------------------------------------
      1          6           0       -1.519417   -0.000036   -0.000006
      2         35           0        0.419575   -0.000012   -0.000001
      3          1           0       -1.856030    0.146755    1.023692
      4          1           0       -1.855730    0.813496   -0.638707
      5          1           0       -1.856850   -0.959613   -0.384898
 ---------------------------------------------------------------------
 Rotational constants (GHZ):    156.3036970      9.5867594      9.5867354
 Standard basis: 6-31+G(d) (6D, 7F)
 There are    59 symmetry adapted cartesian basis functions of A   symmetry.
 There are    59 symmetry adapted basis functions of A   symmetry.
    59 basis functions,   131 primitive gaussians,    59 cartesian basis functions
    22 alpha electrons       22 beta electrons
       nuclear repulsion energy        89.1843216593 Hartrees.
 NAtoms=    5 NActive=    5 NUniq=    5 SFac= 1.00D+00 NAtFMM=   60 NAOKFM=F Big=F
 Integral buffers will be    131072 words long.
 Raffenetti 2 integral format.
 Two-electron integral symmetry is turned on.
 One-electron integrals computed using PRISM.
 NBasis=    59 RedAO= T EigKep=  6.94D-04  NBF=    59
 NBsUse=    59 1.00D-06 EigRej= -1.00D+00 NBFU=    59
 Initial guess from the checkpoint file:  "/srv/scratch/z5358697/gauss/Gau-3855337.chk"
 B after Tr=     0.000000    0.000000    0.000000
         Rot=    1.000000    0.000000    0.000000    0.000000 Ang=   0.00 deg.
 Keep R1 ints in memory in canonical form, NReq=2594168.
 Requested convergence on RMS density matrix=1.00D-08 within 128 cycles.
 Requested convergence on MAX density matrix=1.00D-06.
 Requested convergence on             energy=1.00D-06.
 No special actions if energy rises.
 SCF Done:  E(RM062X) =  -2611.67160687     A.U. after    1 cycles
            NFock=  1  Conv=0.66D-09     -V/T= 2.0068
 DoSCS=F DFT=T ScalE2(SS,OS)=  1.000000  1.000000
 Range of M.O.s used for correlation:     1    59
 NBasis=    59 NAE=    22 NBE=    22 NFC=     0 NFV=     0
 NROrb=     59 NOA=    22 NOB=    22 NVA=    37 NVB=    37

 **** Warning!!: The largest alpha MO coefficient is  0.19998627D+02

 Symmetrizing basis deriv contribution to polar:
 IMax=3 JMax=2 DiffMx= 0.00D+00
 G2DrvN: will do     6 centers at a time, making    1 passes.
 Calling FoFCou, ICntrl=  3107 FMM=F I1Cent=   0 AccDes= 0.00D+00.
 End of G2Drv F.D. properties file   721 does not exist.
 End of G2Drv F.D. properties file   722 does not exist.
 End of G2Drv F.D. properties file   788 does not exist.
          IDoAtm=11111
          Differentiating once with respect to electric field.
                with respect to dipole field.
          Differentiating once with respect to nuclear coordinates.
 Keep R1 ints in memory in canonical form, NReq=2580333.
          There are    18 degrees of freedom in the 1st order CPHF.  IDoFFX=6 NUNeed=     3.
     15 vectors produced by pass  0 Test12= 4.52D-15 5.56D-09 XBig12= 2.06D+01 2.58D+00.
 AX will form    15 AO Fock derivatives at one time.
     15 vectors produced by pass  1 Test12= 4.52D-15 5.56D-09 XBig12= 1.78D+00 5.48D-01.
     15 vectors produced by pass  2 Test12= 4.52D-15 5.56D-09 XBig12= 2.42D-02 4.64D-02.
     15 vectors produced by pass  3 Test12= 4.52D-15 5.56D-09 XBig12= 1.07D-04 3.51D-03.
     15 vectors produced by pass  4 Test12= 4.52D-15 5.56D-09 XBig12= 6.84D-07 3.08D-04.
     15 vectors produced by pass  5 Test12= 4.52D-15 5.56D-09 XBig12= 1.89D-09 1.10D-05.
      5 vectors produced by pass  6 Test12= 4.52D-15 5.56D-09 XBig12= 5.06D-12 8.80D-07.
      3 vectors produced by pass  7 Test12= 4.52D-15 5.56D-09 XBig12= 1.32D-14 2.28D-08.
 InvSVY:  IOpt=1 It=  1 EMax= 1.22D-15
 Solved reduced A of dimension    98 with    15 vectors.
 Isotropic polarizability for W=    0.000000       29.45 Bohr**3.
 End of Minotr F.D. properties file   721 does not exist.
 End of Minotr F.D. properties file   722 does not exist.
 End of Minotr F.D. properties file   788 does not exist.

 **********************************************************************

            Population analysis using the SCF density.

 **********************************************************************

 Orbital symmetries:
       Occupied  (A) (A) (A) (A) (A) (A) (A) (A) (A) (A) (A) (A)
                 (A) (A) (A) (A) (A) (A) (A) (A) (A) (A)
       Virtual   (A) (A) (A) (A) (A) (A) (A) (A) (A) (A) (A) (A)
                 (A) (A) (A) (A) (A) (A) (A) (A) (A) (A) (A) (A)
                 (A) (A) (A) (A) (A) (A) (A) (A) (A) (A) (A) (A)
                 (A)
 The electronic state is 1-A.
 Alpha  occ. eigenvalues -- -485.46580 -62.74840 -57.28195 -57.27924 -57.27924
 Alpha  occ. eigenvalues --  -10.60532  -8.92295  -6.87795  -6.86742  -6.86741
 Alpha  occ. eigenvalues --   -2.90647  -2.90283  -2.90283  -2.89352  -2.89352
 Alpha  occ. eigenvalues --   -0.89878  -0.75623  -0.51879  -0.51877  -0.44704
 Alpha  occ. eigenvalues --   -0.33588  -0.33586
 Alpha virt. eigenvalues --    0.00043   0.03144   0.05821   0.05826   0.07227
 Alpha virt. eigenvalues --    0.08784   0.08785   0.09458   0.14901   0.20479
 Alpha virt. eigenvalues --    0.20483   0.34627   0.45950   0.50537   0.50541
 Alpha virt. eigenvalues --    0.53270   0.53282   0.58622   0.64430   0.65312
 Alpha virt. eigenvalues --    0.65321   0.74959   0.74972   0.90905   0.99199
 Alpha virt. eigenvalues --    0.99212   1.13929   1.29818   1.74349   1.74675
 Alpha virt. eigenvalues --    1.74686   2.16666   2.29328   2.29346   4.19771
 Alpha virt. eigenvalues --    8.88318  76.78266
          Condensed to atoms (all electrons):
               1          2          3          4          5
     1  C    5.274899   0.200873   0.379738   0.379899   0.379723
     2  Br   0.200873  35.056318  -0.045513  -0.045635  -0.045444
     3  H    0.379738  -0.045513   0.474366  -0.026919  -0.026915
     4  H    0.379899  -0.045635  -0.026919   0.474348  -0.026926
     5  H    0.379723  -0.045444  -0.026915  -0.026926   0.474306
 Mulliken charges:
               1
     1  C   -0.615132
     2  Br  -0.120599
     3  H    0.245243
     4  H    0.245233
     5  H    0.245256
 Sum of Mulliken charges =   0.00000
 Mulliken charges with hydrogens summed into heavy atoms:
               1
     1  C    0.120599
     2  Br  -0.120599
 APT charges:
               1
     1  C    0.224859
     2  Br  -0.235280
     3  H    0.003566
     4  H    0.003143
     5  H    0.003713
 Sum of APT charges =   0.00000
 APT charges with hydrogens summed into heavy atoms:
               1
     1  C    0.235280
     2  Br  -0.235280
 Electronic spatial extent (au):  <R**2>=            175.1908
 Charge=              0.0000 electrons
 Dipole moment (field-independent basis, Debye):
    X=             -2.1110    Y=             -0.0006    Z=             -0.0001  Tot=              2.1110
 Quadrupole moment (field-independent basis, Debye-Ang):
   XX=            -22.1431   YY=            -26.1549   ZZ=            -26.1539
   XY=              0.0009   XZ=              0.0004   YZ=             -0.0001
 Traceless Quadrupole moment (field-independent basis, Debye-Ang):
   XX=              2.6742   YY=             -1.3376   ZZ=             -1.3366
   XY=              0.0009   XZ=              0.0004   YZ=             -0.0001
 Octapole moment (field-independent basis, Debye-Ang**2):
  XXX=             10.0706  YYY=             -0.3659  ZZZ=              0.8009  XYY=              1.9882
  XXY=             -0.0035  XXZ=              0.0001  XZZ=              1.9902  YZZ=              0.3631
  YYZ=             -0.8004  XYZ=             -0.0007
 Hexadecapole moment (field-independent basis, Debye-Ang**3):
 XXXX=           -156.2658 YYYY=            -38.6662 ZZZZ=            -38.6545 XXXY=              0.0113
 XXXZ=              0.0017 YYYX=              0.6587 YYYZ=             -0.0010 ZZZX=             -1.4491
 ZZZY=              0.0000 XXYY=            -31.6726 XXZZ=            -31.6746 YYZZ=            -12.8866
 XXYZ=              0.0022 YYXZ=              1.4505 ZZXY=             -0.6592
 N-N= 8.918432165930D+01 E-N=-6.402570371606D+03  KE= 2.594088656623D+03
  Exact polarizability:  38.267   0.034  25.046   0.011  -0.001  25.035
 Approx polarizability:  44.398   0.004  29.573  -0.001   0.001  29.567
 Calling FoFJK, ICntrl=    100127 FMM=F ISym2X=0 I1Cent= 0 IOpClX= 0 NMat=1 NMatS=1 NMatT=0.
 Full mass-weighted force constant matrix:
 Low frequencies ---  -79.2305   -0.0156   -0.0141   -0.0102    1.3808   55.1256
 Low frequencies ---  637.7134  995.6494 1003.0815
 Diagonal vibrational polarizability:
        1.2693021       0.2285058       0.2254433
 Harmonic frequencies (cm**-1), IR intensities (KM/Mole), Raman scattering
 activities (A**4/AMU), depolarization ratios for plane and unpolarized
 incident light, reduced masses (AMU), force constants (mDyne/A),
 and normal coordinates:
                      1                      2                      3
                      A                      A                      A
 Frequencies --    637.7122               995.6389              1003.0664
 Red. masses --      5.6872                 1.1462                 1.1452
 Frc consts  --      1.3627                 0.6695                 0.6789
 IR Inten    --     13.5619                 5.5476                 5.5283
  Atom  AN      X      Y      Z        X      Y      Z        X      Y      Z
     1   6     0.59   0.00   0.00     0.00  -0.08  -0.07     0.00  -0.07   0.08
     2  35    -0.11   0.00   0.00     0.00   0.01   0.01     0.00   0.01  -0.01
     3   1     0.46  -0.01  -0.04     0.59   0.18   0.08    -0.48   0.19  -0.11
     4   1     0.46  -0.03   0.02     0.13   0.18   0.19     0.74   0.08  -0.11
     5   1     0.46   0.04   0.02    -0.70   0.08   0.13    -0.27   0.14  -0.21
                      4                      5                      6
                      A                      A                      A
 Frequencies --   1376.9889              1504.3831              1505.9867
 Red. masses --      1.1394                 1.0576                 1.0569
 Frc consts  --      1.2729                 1.4103                 1.4123
 IR Inten    --     23.4034                 6.2899                 6.4318
  Atom  AN      X      Y      Z        X      Y      Z        X      Y      Z
     1   6     0.11   0.00   0.00     0.00   0.02   0.06     0.00  -0.06   0.02
     2  35     0.00   0.00   0.00     0.00   0.00   0.00     0.00   0.00   0.00
     3   1    -0.53  -0.04  -0.19     0.30  -0.15   0.16     0.06   0.72  -0.07
     4   1    -0.54  -0.15   0.11    -0.08  -0.47  -0.53    -0.30   0.02   0.25
     5   1    -0.55   0.18   0.08    -0.21   0.29  -0.46     0.22   0.09  -0.51
                      7                      8                      9
                      A                      A                      A
 Frequencies --   3127.1469              3233.8993              3239.2786
 Red. masses --      1.0270                 1.1094                 1.1095
 Frc consts  --      5.9174                 6.8360                 6.8592
 IR Inten    --     14.3707                 0.8399                 0.9208
  Atom  AN      X      Y      Z        X      Y      Z        X      Y      Z
     1   6     0.04   0.00   0.00     0.00  -0.01   0.10     0.00   0.10   0.01
     2  35     0.00   0.00   0.00     0.00   0.00   0.00     0.00   0.00   0.00
     3   1    -0.17   0.08   0.57     0.23  -0.11  -0.73     0.05  -0.01  -0.16
     4   1    -0.16   0.43  -0.34    -0.17   0.44  -0.32     0.17  -0.43   0.35
     5   1    -0.16  -0.49  -0.20    -0.07  -0.23  -0.08    -0.23  -0.70  -0.29

 -------------------
 - Thermochemistry -
 -------------------
 Temperature   298.150 Kelvin.  Pressure   1.00000 Atm.
 Atom     1 has atomic number  6 and mass  12.00000
 Atom     2 has atomic number 35 and mass  78.91834
 Atom     3 has atomic number  1 and mass   1.00783
 Atom     4 has atomic number  1 and mass   1.00783
 Atom     5 has atomic number  1 and mass   1.00783
 Molecular mass:    93.94181 amu.
 Principal axes and moments of inertia in atomic units:
                           1         2         3
     Eigenvalues --    11.54638 188.25352 188.25399
           X            1.00000   0.00000   0.00000
           Y            0.00000   1.00000  -0.00001
           Z            0.00000   0.00001   1.00000
 This molecule is an asymmetric top.
 Rotational symmetry number  1.
 Rotational temperatures (Kelvin)      7.50139     0.46009     0.46009
 Rotational constants (GHZ):         156.30370     9.58676     9.58674
 Zero-point vibrational energy      99434.2 (Joules/Mol)
                                   23.76535 (Kcal/Mol)
 Vibrational temperatures:    917.52  1432.50  1443.19  1981.18  2164.47
          (Kelvin)           2166.78  4499.26  4652.85  4660.59
 
 Zero-point correction=                           0.037872 (Hartree/Particle)
 Thermal correction to Energy=                    0.040937
 Thermal correction to Enthalpy=                  0.041881
 Thermal correction to Gibbs Free Energy=         0.012996
 Sum of electronic and zero-point Energies=          -2611.633734
 Sum of electronic and thermal Energies=             -2611.630670
 Sum of electronic and thermal Enthalpies=           -2611.629726
 Sum of electronic and thermal Free Energies=        -2611.658611
 
                     E (Thermal)             CV                S
                      KCal/Mol        Cal/Mol-Kelvin    Cal/Mol-Kelvin
 Total                   25.688              7.932             60.794
 Electronic               0.000              0.000              0.000
 Translational            0.889              2.981             39.532
 Rotational               0.889              2.981             20.642
 Vibrational             23.911              1.971              0.620
                       Q            Log10(Q)             Ln(Q)
 Total Bot       0.105230D-05         -5.977862        -13.764535
 Total V=0       0.276845D+12         11.442237         26.346724
 Vib (Bot)       0.406052D-17        -17.391418        -40.045220
 Vib (V=0)       0.106827D+01          0.028680          0.066039
 Electronic      0.100000D+01          0.000000          0.000000
 Translational   0.357885D+08          7.553744         17.393137
 Rotational      0.724124D+04          3.859813          8.887548
 ***** Axes restored to original set *****
 -------------------------------------------------------------------
 Center     Atomic                   Forces (Hartrees/Bohr)
 Number     Number              X              Y              Z
 -------------------------------------------------------------------
      1        6           0.000091479   -0.000134599   -0.000022938
      2       35          -0.000078555    0.000122221    0.000039181
      3        1           0.000036987    0.000073198   -0.000033990
      4        1          -0.000005177   -0.000002060    0.000073360
      5        1          -0.000044734   -0.000058759   -0.000055613
 -------------------------------------------------------------------
 Cartesian Forces:  Max     0.000134599 RMS     0.000069039
 FormGI is forming the generalized inverse of G from B-inverse, IUseBI=4.

 GradGradGradGradGradGradGradGradGradGradGradGradGradGradGradGradGradGrad
 Berny optimization.
 Internal  Forces:  Max     0.000140095 RMS     0.000055136
 Search for a local minimum.
 Step number   1 out of a maximum of    2
 All quantities printed in internal units (Hartrees-Bohrs-Radians)
 Second derivative matrix not updated -- analytic derivatives used.
 The second derivative matrix:
                          R1        R2        R3        R4        A1
           R1           0.19961
           R2           0.00227   0.36083
           R3           0.00242   0.00180   0.36192
           R4           0.00228   0.00174   0.00179   0.36290
           A1           0.00460  -0.00264   0.00048  -0.00025   0.02203
           A2           0.00757   0.00097  -0.00320  -0.00190  -0.00867
           A3           0.01463  -0.00127  -0.00102  -0.00495  -0.01607
           A4          -0.00126   0.00442   0.00379  -0.00741  -0.00875
           A5          -0.01132   0.00654  -0.00778   0.00646  -0.01192
           A6          -0.01276  -0.00817   0.00753   0.00766   0.02323
           D1          -0.00945   0.00009  -0.00081   0.00571  -0.01647
           D2           0.00797  -0.00023  -0.00451   0.00040   0.01015
           D3          -0.01076   0.00429   0.00018   0.00091   0.00695
           D4          -0.01873   0.00452   0.00469   0.00051  -0.00320
                          A2        A3        A4        A5        A6
           A2           0.04237
           A3          -0.02836   0.08334
           A4          -0.00161   0.02521   0.04071
           A5           0.02417  -0.03572  -0.02447   0.07387
           A6          -0.02759  -0.02627  -0.03025  -0.02724   0.08644
           D1          -0.01425   0.02226  -0.01173   0.01383   0.00587
           D2          -0.01388   0.01059  -0.00937   0.00629  -0.00340
           D3          -0.01839  -0.00108   0.00403   0.00800  -0.00020
           D4          -0.00451  -0.01167   0.01341   0.00171   0.00320
                          D1        D2        D3        D4
           D1           0.03536
           D2           0.00147   0.02238
           D3           0.00040   0.01238   0.02311
           D4          -0.00107  -0.00999   0.01072   0.02072
 ITU=  0
     Eigenvalues ---    0.03833   0.05124   0.07860   0.13021   0.13972
     Eigenvalues ---    0.20948   0.36050   0.36144   0.36607
 Angle between quadratic step and forces=  47.88 degrees.
 Linear search not attempted -- first point.
 Iteration  1 RMS(Cart)=  0.00031978 RMS(Int)=  0.00000014
 Iteration  2 RMS(Cart)=  0.00000009 RMS(Int)=  0.00000010
 Variable       Old X    -DE/DX   Delta X   Delta X   Delta X     New X
                                 (Linear)    (Quad)   (Total)
    R1        3.66416   0.00014   0.00000   0.00093   0.00093   3.66509
    R2        2.05522   0.00009   0.00000   0.00022   0.00022   2.05544
    R3        2.05527   0.00005   0.00000   0.00010   0.00010   2.05537
    R4        2.05520   0.00009   0.00000   0.00022   0.00022   2.05541
    A1        1.88547  -0.00003   0.00000  -0.00066  -0.00066   1.88481
    A2        1.88517  -0.00002   0.00000  -0.00039  -0.00039   1.88477
    A3        1.88628   0.00002   0.00000   0.00000   0.00000   1.88628
    A4        1.93489   0.00001   0.00000   0.00031   0.00031   1.93519
    A5        1.93497   0.00000   0.00000   0.00025   0.00025   1.93522
    A6        1.93500   0.00002   0.00000   0.00044   0.00044   1.93544
    D1       -2.06257   0.00004   0.00000   0.00087   0.00087  -2.06171
    D2        2.06330  -0.00002   0.00000  -0.00066  -0.00066   2.06264
    D3       -2.06295   0.00000   0.00000   0.00022   0.00022  -2.06273
    D4        2.15694   0.00002   0.00000   0.00088   0.00088   2.15782
         Item               Value     Threshold  Converged?
 Maximum Force            0.000140     0.000450     YES
 RMS     Force            0.000055     0.000300     YES
 Maximum Displacement     0.000498     0.001800     YES
 RMS     Displacement     0.000320     0.001200     YES
 Predicted change in Energy=-1.370872D-07
 Optimization completed.
    -- Stationary point found.
                           ----------------------------
                           !   Optimized Parameters   !
                           ! (Angstroms and Degrees)  !
 --------------------------                            --------------------------
 ! Name  Definition              Value          Derivative Info.                !
 --------------------------------------------------------------------------------
 ! R1    R(1,2)                  1.939          -DE/DX =    0.0001              !
 ! R2    R(1,3)                  1.0876         -DE/DX =    0.0001              !
 ! R3    R(1,4)                  1.0876         -DE/DX =    0.0001              !
 ! R4    R(1,5)                  1.0876         -DE/DX =    0.0001              !
 ! A1    A(2,1,3)              108.0294         -DE/DX =    0.0                 !
 ! A2    A(2,1,4)              108.012          -DE/DX =    0.0                 !
 ! A3    A(2,1,5)              108.076          -DE/DX =    0.0                 !
 ! A4    A(3,1,4)              110.8608         -DE/DX =    0.0                 !
 ! A5    A(3,1,5)              110.8655         -DE/DX =    0.0                 !
 ! A6    A(4,1,5)              110.8674         -DE/DX =    0.0                 !
 ! D1    D(2,1,4,3)           -118.1768         -DE/DX =    0.0                 !
 ! D2    D(2,1,5,3)            118.2183         -DE/DX =    0.0                 !
 ! D3    D(2,1,5,4)           -118.1983         -DE/DX =    0.0                 !
 ! D4    D(3,1,5,4)            123.5834         -DE/DX =    0.0                 !
 --------------------------------------------------------------------------------
 GradGradGradGradGradGradGradGradGradGradGradGradGradGradGradGradGradGrad

 1\1\GINC-KATANA1\Freq\RM062X\6-31+G(d)\C1H3Br1\Z5358697\20-Mar-2025\0\
 \#N Geom=AllCheck Guess=TCheck SCRF=Check GenChk RM062X/6-31+G(d) Freq
 \\bromomethane\\0,1\C,0.1371636521,-0.1010401267,-0.0739311594\Br,-1.2
 960410484,0.9532848023,0.6967903521\H,0.8145558215,0.5767350953,-0.588
 300844\H,0.6472960768,-0.617918608,0.7356863843\H,-0.303074502,-0.8110
 61163,-0.770244733\\Version=ES64L-G09RevD.01\State=1-A\HF=-2611.671606
 9\RMSD=6.561e-10\RMSF=6.904e-05\ZeroPoint=0.0378725\Thermal=0.0409371\
 Dipole=0.6137306,-0.4516787,-0.3302847\DipoleDeriv=0.3424839,-0.223578
 3,-0.1651198,-0.2245351,0.204012,0.1226741,-0.1645298,0.1243885,0.1280
 8,-0.2784681,0.0812725,0.0597913,0.082002,-0.2265385,-0.0450758,0.0591
 488,-0.0433139,-0.2008347,-0.0411527,0.014447,0.0833291,0.0204975,0.00
 98754,-0.0019561,0.0816221,0.0017965,0.0419745,-0.019712,0.0912848,0.0
 005569,0.0918786,0.0179606,0.0107551,0.0063828,0.0042827,0.0111808,-0.
 0031511,0.036574,0.0214424,0.030157,-0.0053095,-0.0863972,0.0173761,-0
 .0871538,0.0195994\Polar=32.2323943,-5.3163942,28.9653038,-3.889106,2.
 879152,27.1497634\PG=C01 [X(C1H3Br1)]\NImag=0\\0.44699892,0.10202813,0
 .51021716,0.07499334,-0.05438160,0.54738382,-0.08678097,0.04294701,0.0
 3122853,0.11717534,0.04291409,-0.06014714,-0.02306195,-0.07313181,0.07
 215726,0.03111051,-0.02313075,-0.04518382,-0.05312785,0.03895546,0.046
 96465,-0.15726311,-0.12076408,0.08143538,-0.01503318,-0.00233683,0.010
 26897,0.16550822,-0.11839833,-0.16310962,0.08924794,0.01825603,0.00495
 066,-0.01184836,0.12090609,0.17636737,0.08129297,0.09071745,-0.1156244
 5,0.00765314,0.00111930,-0.00457778,-0.09023360,-0.09338882,0.11633147
 ,-0.10889302,0.05884665,-0.10746251,-0.01406804,0.01257999,-0.00611812
 ,0.01278891,-0.00978719,0.01563057,0.11466874,0.05853113,-0.11344488,0
 .10775087,0.01007542,-0.00828573,0.00413847,0.00995099,-0.00759272,0.0
 1483120,-0.06782677,0.11596275,-0.10521145,0.10605335,-0.21498321,0.01
 276390,-0.01114629,0.00718515,-0.00759190,0.00446450,-0.00904333,0.107
 40715,-0.11041121,0.22949815,-0.09406183,-0.08305771,-0.08019474,-0.00
 129315,0.01997456,0.01786650,-0.00600084,-0.01097661,-0.01434308,-0.00
 449658,-0.01073077,-0.00736769,0.10585240,-0.08507502,-0.17351552,-0.1
 1955527,0.00185336,-0.00867505,-0.00811481,-0.00775618,-0.01061568,-0.
 01327912,0.00618732,0.01336059,0.01103964,0.08479053,0.17944566,-0.082
 18537,-0.11925844,-0.17159234,0.00148228,-0.00586651,-0.00438820,0.006
 12116,0.01152474,0.01291410,-0.00945709,-0.01630934,-0.01265677,0.0840
 3901,0.12990956,0.17572321\\-0.00009148,0.00013460,0.00002294,0.000078
 55,-0.00012222,-0.00003918,-0.00003699,-0.00007320,0.00003399,0.000005
 18,0.00000206,-0.00007336,0.00004473,0.00005876,0.00005561\\\@


  DISAPPOINTMENT IS THE NURSE OF WISDOM.               
                              SIR BOYLE ROCHE                 
 Job cpu time:       0 days  0 hours  0 minutes 11.8 seconds.
 File lengths (MBytes):  RWF=    132 Int=      0 D2E=      0 Chk=      2 Scr=      2
 Normal termination of Gaussian 09 at Thu Mar 20 14:18:23 2025.
