 Entering Gaussian System, Link 0=g09
 Initial command:
 /apps/z_install_tree/linux-rocky8-ivybridge/gcc-12.2.0/gaussian-09-D.01-wczn3gur5lpur3omlkzwa2l5ecyxp5ef/g09/l1.exe "/srv/scratch/z5358697/gauss/Gau-1692996.inp" -scrdir="/srv/scratch/z5358697/gauss/"
 Entering Link 1 = /apps/z_install_tree/linux-rocky8-ivybridge/gcc-12.2.0/gaussian-09-D.01-wczn3gur5lpur3omlkzwa2l5ecyxp5ef/g09/l1.exe PID=   1692998.
  
 Copyright (c) 1988,1990,1992,1993,1995,1998,2003,2009,2013,
            Gaussian, Inc.  All Rights Reserved.
  
 This is part of the Gaussian(R) 09 program.  It is based on
 the Gaussian(R) 03 system (copyright 2003, Gaussian, Inc.),
 the Gaussian(R) 98 system (copyright 1998, Gaussian, Inc.),
 the Gaussian(R) 94 system (copyright 1995, Gaussian, Inc.),
 the Gaussian 92(TM) system (copyright 1992, Gaussian, Inc.),
 the Gaussian 90(TM) system (copyright 1990, Gaussian, Inc.),
 the Gaussian 88(TM) system (copyright 1988, Gaussian, Inc.),
 the Gaussian 86(TM) system (copyright 1986, Carnegie Mellon
 University), and the Gaussian 82(TM) system (copyright 1983,
 Carnegie Mellon University). Gaussian is a federally registered
 trademark of Gaussian, Inc.
  
 This software contains proprietary and confidential information,
 including trade secrets, belonging to Gaussian, Inc.
  
 This software is provided under written license and may be
 used, copied, transmitted, or stored only in accord with that
 written license.
  
 The following legend is applicable only to US Government
 contracts under FAR:
  
                    RESTRICTED RIGHTS LEGEND
  
 Use, reproduction and disclosure by the US Government is
 subject to restrictions as set forth in subparagraphs (a)
 and (c) of the Commercial Computer Software - Restricted
 Rights clause in FAR 52.227-19.
  
 Gaussian, Inc.
 340 Quinnipiac St., Bldg. 40, Wallingford CT 06492
  
  
 ---------------------------------------------------------------
 Warning -- This program may not be used in any manner that
 competes with the business of Gaussian, Inc. or will provide
 assistance to any competitor of Gaussian, Inc.  The licensee
 of this program is prohibited from giving any competitor of
 Gaussian, Inc. access to this program.  By using this program,
 the user acknowledges that Gaussian, Inc. is engaged in the
 business of creating and licensing software in the field of
 computational chemistry and represents and warrants to the
 licensee that it is not a competitor of Gaussian, Inc. and that
 it will not use this program in any manner prohibited above.
 ---------------------------------------------------------------
  

 Cite this work as:
 Gaussian 09, Revision D.01,
 M. J. Frisch, G. W. Trucks, H. B. Schlegel, G. E. Scuseria, 
 M. A. Robb, J. R. Cheeseman, G. Scalmani, V. Barone, B. Mennucci, 
 G. A. Petersson, H. Nakatsuji, M. Caricato, X. Li, H. P. Hratchian, 
 A. F. Izmaylov, J. Bloino, G. Zheng, J. L. Sonnenberg, M. Hada, 
 M. Ehara, K. Toyota, R. Fukuda, J. Hasegawa, M. Ishida, T. Nakajima, 
 Y. Honda, O. Kitao, H. Nakai, T. Vreven, J. A. Montgomery, Jr., 
 J. E. Peralta, F. Ogliaro, M. Bearpark, J. J. Heyd, E. Brothers, 
 K. N. Kudin, V. N. Staroverov, T. Keith, R. Kobayashi, J. Normand, 
 K. Raghavachari, A. Rendell, J. C. Burant, S. S. Iyengar, J. Tomasi, 
 M. Cossi, N. Rega, J. M. Millam, M. Klene, J. E. Knox, J. B. Cross, 
 V. Bakken, C. Adamo, J. Jaramillo, R. Gomperts, R. E. Stratmann, 
 O. Yazyev, A. J. Austin, R. Cammi, C. Pomelli, J. W. Ochterski, 
 R. L. Martin, K. Morokuma, V. G. Zakrzewski, G. A. Voth, 
 P. Salvador, J. J. Dannenberg, S. Dapprich, A. D. Daniels, 
 O. Farkas, J. B. Foresman, J. V. Ortiz, J. Cioslowski, 
 and D. J. Fox, Gaussian, Inc., Wallingford CT, 2013.
 
 ******************************************
 Gaussian 09:  ES64L-G09RevD.01 24-Apr-2013
                20-Mar-2025 
 ******************************************
 ---------------------------------
 #m062X/6-31+G(d) OPT Freq=noraman
 ---------------------------------
 1/14=-1,18=20,19=15,26=3,38=1/1,3;
 2/9=110,12=2,17=6,18=5,40=1/2;
 3/5=1,6=6,7=11,11=2,16=1,25=1,30=1,71=1,74=-55/1,2,3;
 4//1;
 5/5=2,38=5/2;
 6/7=2,8=2,9=2,10=2,28=1/1;
 7//1,2,3,16;
 1/14=-1,18=20,19=15,26=3/3(2);
 2/9=110/2;
 99//99;
 2/9=110/2;
 3/5=1,6=6,7=11,11=2,16=1,25=1,30=1,71=1,74=-55/1,2,3;
 4/5=5,16=3,69=1/1;
 5/5=2,38=5/2;
 7//1,2,3,16;
 1/14=-1,18=20,19=15,26=3/3(-5);
 2/9=110/2;
 6/7=2,8=2,9=2,10=2,19=2,28=1/1;
 99/9=1/99;
 ---------------------
 methylsulfanylmethane
 ---------------------
 Symbolic Z-matrix:
 Charge =  0 Multiplicity = 1
 C                     0.9856   -0.3289    0.3401 
 S                     1.2245    0.1824    2.0582 
 C                     2.8855   -0.4869    2.3101 
 H                     0.0025   -0.0056   -0.0107 
 H                     1.0509   -1.4171    0.2643 
 H                     1.7559    0.1203   -0.2914 
 H                     3.218    -0.2717    3.327 
 H                     3.577    -0.0287    1.601 
 H                     2.8731   -1.567     2.1555 
 

 GradGradGradGradGradGradGradGradGradGradGradGradGradGradGradGradGradGrad
 Berny optimization.
 Initialization pass.
                           ----------------------------
                           !    Initial Parameters    !
                           ! (Angstroms and Degrees)  !
 --------------------------                            --------------------------
 ! Name  Definition              Value          Derivative Info.                !
 --------------------------------------------------------------------------------
 ! R1    R(1,2)                  1.8084         estimate D2E/DX2                !
 ! R2    R(1,4)                  1.0927         estimate D2E/DX2                !
 ! R3    R(1,5)                  1.0928         estimate D2E/DX2                !
 ! R4    R(1,6)                  1.0927         estimate D2E/DX2                !
 ! R5    R(2,3)                  1.8084         estimate D2E/DX2                !
 ! R6    R(3,7)                  1.0913         estimate D2E/DX2                !
 ! R7    R(3,8)                  1.0913         estimate D2E/DX2                !
 ! R8    R(3,9)                  1.0912         estimate D2E/DX2                !
 ! A1    A(2,1,4)              109.8888         estimate D2E/DX2                !
 ! A2    A(2,1,5)              109.8496         estimate D2E/DX2                !
 ! A3    A(2,1,6)              109.8595         estimate D2E/DX2                !
 ! A4    A(4,1,5)              109.033          estimate D2E/DX2                !
 ! A5    A(4,1,6)              109.0912         estimate D2E/DX2                !
 ! A6    A(5,1,6)              109.0966         estimate D2E/DX2                !
 ! A7    A(1,2,3)               98.5709         estimate D2E/DX2                !
 ! A8    A(2,3,7)              109.6734         estimate D2E/DX2                !
 ! A9    A(2,3,8)              109.639          estimate D2E/DX2                !
 ! A10   A(2,3,9)              109.6439         estimate D2E/DX2                !
 ! A11   A(7,3,8)              109.2455         estimate D2E/DX2                !
 ! A12   A(7,3,9)              109.3098         estimate D2E/DX2                !
 ! A13   A(8,3,9)              109.3138         estimate D2E/DX2                !
 ! D1    D(4,1,2,3)           -179.9988         estimate D2E/DX2                !
 ! D2    D(5,1,2,3)             60.0472         estimate D2E/DX2                !
 ! D3    D(6,1,2,3)            -59.9668         estimate D2E/DX2                !
 ! D4    D(1,2,3,7)            179.9977         estimate D2E/DX2                !
 ! D5    D(1,2,3,8)             60.047          estimate D2E/DX2                !
 ! D6    D(1,2,3,9)            -59.9695         estimate D2E/DX2                !
 --------------------------------------------------------------------------------
 Trust Radius=3.00D-01 FncErr=1.00D-07 GrdErr=1.00D-06
 Number of steps in this run=     37 maximum allowed number of steps=    100.
 GradGradGradGradGradGradGradGradGradGradGradGradGradGradGradGradGradGrad

                          Input orientation:                          
 ---------------------------------------------------------------------
 Center     Atomic      Atomic             Coordinates (Angstroms)
 Number     Number       Type             X           Y           Z
 ---------------------------------------------------------------------
      1          6           0        0.985600   -0.328900    0.340100
      2         16           0        1.224500    0.182400    2.058200
      3          6           0        2.885500   -0.486900    2.310100
      4          1           0        0.002500   -0.005600   -0.010700
      5          1           0        1.050900   -1.417100    0.264300
      6          1           0        1.755900    0.120300   -0.291400
      7          1           0        3.218000   -0.271700    3.327000
      8          1           0        3.577000   -0.028700    1.601000
      9          1           0        2.873100   -1.567000    2.155500
 ---------------------------------------------------------------------
                    Distance matrix (angstroms):
                    1          2          3          4          5
     1  C    0.000000
     2  S    1.808416   0.000000
     3  C    2.741438   1.808407   0.000000
     4  H    1.092735   2.410182   3.732218   0.000000
     5  H    1.092790   2.409692   2.901091   1.779635   0.000000
     6  H    1.092673   2.409743   2.900429   1.780184   1.780288
     7  H    3.729404   2.406263   1.091308   4.642251   3.922804
     8  H    2.897472   2.405795   1.091303   3.921117   3.177358
     9  H    2.896761   2.405774   1.091179   3.920553   2.630498
                    6          7          8          9
     6  H    0.000000
     7  H    3.922272   0.000000
     8  H    2.630548   1.779608   0.000000
     9  H    3.175285   1.780216   1.780256   0.000000
 Stoichiometry    C2H6S
 Framework group  C1[X(C2H6S)]
 Deg. of freedom    21
 Full point group                 C1      NOp   1
 Largest Abelian subgroup         C1      NOp   1
 Largest concise Abelian subgroup C1      NOp   1
                         Standard orientation:                         
 ---------------------------------------------------------------------
 Center     Atomic      Atomic             Coordinates (Angstroms)
 Number     Number       Type             X           Y           Z
 ---------------------------------------------------------------------
      1          6           0        1.370881    0.511424   -0.000127
      2         16           0       -0.000872   -0.666992   -0.000001
      3          6           0       -1.370557    0.513814    0.000130
      4          1           0        2.322449   -0.025779   -0.000240
      5          1           0        1.318012    1.142495    0.890458
      6          1           0        1.317192    1.143470   -0.889829
      7          1           0       -2.319801   -0.024598    0.000177
      8          1           0       -1.313355    1.141986   -0.890414
      9          1           0       -1.312486    1.142870    0.889842
 ---------------------------------------------------------------------
 Rotational constants (GHZ):     17.6285974      7.6433088      5.7169412
 Standard basis: 6-31+G(d) (6D, 7F)
 There are    73 symmetry adapted cartesian basis functions of A   symmetry.
 There are    73 symmetry adapted basis functions of A   symmetry.
    73 basis functions,   144 primitive gaussians,    73 cartesian basis functions
    17 alpha electrons       17 beta electrons
       nuclear repulsion energy       110.9311569943 Hartrees.
 NAtoms=    9 NActive=    9 NUniq=    9 SFac= 1.00D+00 NAtFMM=   60 NAOKFM=F Big=F
 Integral buffers will be    131072 words long.
 Raffenetti 2 integral format.
 Two-electron integral symmetry is turned on.
 One-electron integrals computed using PRISM.
 NBasis=    73 RedAO= T EigKep=  5.87D-04  NBF=    73
 NBsUse=    73 1.00D-06 EigRej= -1.00D+00 NBFU=    73
 ExpMin= 4.05D-02 ExpMax= 2.19D+04 ExpMxC= 3.30D+03 IAcc=2 IRadAn=         4 AccDes= 0.00D+00
 Harris functional with IExCor= 1009 and IRadAn=       4 diagonalized for initial guess.
 HarFok:  IExCor= 1009 AccDes= 0.00D+00 IRadAn=         4 IDoV= 1 UseB2=F ITyADJ=14
 ICtDFT=  3500011 ScaDFX=  1.000000  1.000000  1.000000  1.000000
 FoFCou: FMM=F IPFlag=           0 FMFlag=      100000 FMFlg1=           0
         NFxFlg=           0 DoJE=T BraDBF=F KetDBF=T FulRan=T
         wScrn=  0.000000 ICntrl=     500 IOpCl=  0 I1Cent=   200000004 NGrid=           0
         NMat0=    1 NMatS0=      1 NMatT0=    0 NMatD0=    1 NMtDS0=    0 NMtDT0=    0
 Petite list used in FoFCou.
 Keep R1 ints in memory in canonical form, NReq=4579371.
 Requested convergence on RMS density matrix=1.00D-08 within 128 cycles.
 Requested convergence on MAX density matrix=1.00D-06.
 Requested convergence on             energy=1.00D-06.
 No special actions if energy rises.
 SCF Done:  E(RM062X) =  -477.924030005     A.U. after   11 cycles
            NFock= 11  Conv=0.23D-08     -V/T= 2.0039

 **********************************************************************

            Population analysis using the SCF density.

 **********************************************************************

 Orbital symmetries:
       Occupied  (A) (A) (A) (A) (A) (A) (A) (A) (A) (A) (A) (A)
                 (A) (A) (A) (A) (A)
       Virtual   (A) (A) (A) (A) (A) (A) (A) (A) (A) (A) (A) (A)
                 (A) (A) (A) (A) (A) (A) (A) (A) (A) (A) (A) (A)
                 (A) (A) (A) (A) (A) (A) (A) (A) (A) (A) (A) (A)
                 (A) (A) (A) (A) (A) (A) (A) (A) (A) (A) (A) (A)
                 (A) (A) (A) (A) (A) (A) (A) (A)
 The electronic state is 1-A.
 Alpha  occ. eigenvalues --  -89.91239 -10.57068 -10.57038  -8.25774  -6.17865
 Alpha  occ. eigenvalues --   -6.17625  -6.17152  -0.89581  -0.79845  -0.68030
 Alpha  occ. eigenvalues --   -0.51520  -0.51214  -0.48854  -0.47568  -0.42678
 Alpha  occ. eigenvalues --   -0.36733  -0.27342
 Alpha virt. eigenvalues --    0.02422   0.02593   0.05113   0.06017   0.07592
 Alpha virt. eigenvalues --    0.08146   0.08714   0.08718   0.09395   0.10738
 Alpha virt. eigenvalues --    0.13270   0.15068   0.16292   0.17402   0.21663
 Alpha virt. eigenvalues --    0.21807   0.22932   0.28340   0.34454   0.34715
 Alpha virt. eigenvalues --    0.52467   0.52763   0.55802   0.56696   0.58735
 Alpha virt. eigenvalues --    0.65593   0.65908   0.70384   0.70898   0.87522
 Alpha virt. eigenvalues --    0.88508   0.89306   0.93818   0.98750   1.00604
 Alpha virt. eigenvalues --    1.02134   1.02587   1.06533   1.06672   1.16740
 Alpha virt. eigenvalues --    1.19244   1.29034   1.39176   1.72867   1.73485
 Alpha virt. eigenvalues --    1.78177   1.80564   2.15902   2.26308   2.28162
 Alpha virt. eigenvalues --    2.30626   2.32722   2.34019   3.98733   4.26821
 Alpha virt. eigenvalues --    4.27085
          Condensed to atoms (all electrons):
               1          2          3          4          5          6
     1  C    5.623637   0.128028  -0.084180   0.374221   0.382870   0.382837
     2  S    0.128028  15.840306   0.128273  -0.043347  -0.054440  -0.054408
     3  C   -0.084180   0.128273   5.621996   0.014559  -0.005840  -0.005797
     4  H    0.374221  -0.043347   0.014559   0.454651  -0.021592  -0.021523
     5  H    0.382870  -0.054440  -0.005840  -0.021592   0.502612  -0.039075
     6  H    0.382837  -0.054408  -0.005797  -0.021523  -0.039075   0.502502
     7  H    0.014608  -0.043741   0.374615  -0.000048  -0.000035  -0.000035
     8  H   -0.005846  -0.054651   0.383102  -0.000036  -0.001465   0.005867
     9  H   -0.005798  -0.054638   0.383081  -0.000036   0.005867  -0.001470
               7          8          9
     1  C    0.014608  -0.005846  -0.005798
     2  S   -0.043741  -0.054651  -0.054638
     3  C    0.374615   0.383102   0.383081
     4  H   -0.000048  -0.000036  -0.000036
     5  H   -0.000035  -0.001465   0.005867
     6  H   -0.000035   0.005867  -0.001470
     7  H    0.454218  -0.021470  -0.021395
     8  H   -0.021470   0.501910  -0.038876
     9  H   -0.021395  -0.038876   0.501798
 Mulliken charges:
               1
     1  C   -0.810378
     2  S    0.208619
     3  C   -0.809811
     4  H    0.243151
     5  H    0.231098
     6  H    0.231102
     7  H    0.243284
     8  H    0.231466
     9  H    0.231468
 Sum of Mulliken charges =   0.00000
 Mulliken charges with hydrogens summed into heavy atoms:
               1
     1  C   -0.105027
     2  S    0.208619
     3  C   -0.103592
 Electronic spatial extent (au):  <R**2>=            271.4787
 Charge=              0.0000 electrons
 Dipole moment (field-independent basis, Debye):
    X=             -0.0013    Y=              1.7932    Z=              0.0000  Tot=              1.7932
 Quadrupole moment (field-independent basis, Debye-Ang):
   XX=            -24.0869   YY=            -29.0243   ZZ=            -29.0969
   XY=              0.0081   XZ=              0.0017   YZ=              0.0000
 Traceless Quadrupole moment (field-independent basis, Debye-Ang):
   XX=              3.3158   YY=             -1.6216   ZZ=             -1.6942
   XY=              0.0081   XZ=              0.0017   YZ=              0.0000
 Octapole moment (field-independent basis, Debye-Ang**2):
  XXX=              0.0008  YYY=              1.5857  ZZZ=              0.0001  XYY=              0.0054
  XXY=             -2.3855  XXZ=             -0.0005  XZZ=             -0.0125  YZZ=              3.6613
  YYZ=             -0.0001  XYZ=              0.0005
 Hexadecapole moment (field-independent basis, Debye-Ang**3):
 XXXX=           -213.7301 YYYY=           -114.8778 ZZZZ=            -51.2429 XXXY=              0.0508
 XXXZ=              0.0104 YYYX=              0.0108 YYYZ=             -0.0003 ZZZX=              0.0047
 ZZZY=              0.0000 XXYY=            -56.6875 XXZZ=            -47.3629 YYZZ=            -26.9884
 XXYZ=             -0.0002 YYXZ=             -0.0028 ZZXY=             -0.0007
 N-N= 1.109311569943D+02 E-N=-1.352235983568D+03  KE= 4.760567449027D+02
 Calling FoFJK, ICntrl=      2127 FMM=F ISym2X=0 I1Cent= 0 IOpClX= 0 NMat=1 NMatS=1 NMatT=0.
 ***** Axes restored to original set *****
 -------------------------------------------------------------------
 Center     Atomic                   Forces (Hartrees/Bohr)
 Number     Number              X              Y              Z
 -------------------------------------------------------------------
      1        6           0.004826635   -0.002667993   -0.000842499
      2       16          -0.005990853    0.004796349    0.005673243
      3        6          -0.000652004   -0.001470454   -0.005339723
      4        1           0.000546962    0.000789619    0.002708058
      5        1          -0.001068348   -0.000927113   -0.001560872
      6        1          -0.000484938    0.000408435   -0.002077593
      7        1          -0.002005535    0.000923901    0.000205307
      8        1           0.002934903    0.000262606    0.000172435
      9        1           0.001893178   -0.002115351    0.001061644
 -------------------------------------------------------------------
 Cartesian Forces:  Max     0.005990853 RMS     0.002677294

 GradGradGradGradGradGradGradGradGradGradGradGradGradGradGradGradGradGrad
 Berny optimization.
 FormGI is forming the generalized inverse of G from B-inverse, IUseBI=4.
 Internal  Forces:  Max     0.005667265 RMS     0.002504785
 Search for a local minimum.
 Step number   1 out of a maximum of   37
 All quantities printed in internal units (Hartrees-Bohrs-Radians)
 Mixed Optimization -- RFO/linear search
 Second derivative matrix not updated -- first step.
 ITU=  0
     Eigenvalues ---    0.00259   0.00259   0.09867   0.09871   0.09909
     Eigenvalues ---    0.09913   0.16000   0.16000   0.16000   0.16000
     Eigenvalues ---    0.16000   0.16000   0.25000   0.25465   0.25465
     Eigenvalues ---    0.34492   0.34499   0.34506   0.34662   0.34662
     Eigenvalues ---    0.34677
 RFO step:  Lambda=-1.06179922D-03 EMin= 2.58973545D-03
 Linear search not attempted -- first point.
 Iteration  1 RMS(Cart)=  0.02196155 RMS(Int)=  0.00040549
 Iteration  2 RMS(Cart)=  0.00035183 RMS(Int)=  0.00024401
 Iteration  3 RMS(Cart)=  0.00000004 RMS(Int)=  0.00024401
 Variable       Old X    -DE/DX   Delta X   Delta X   Delta X     New X
                                 (Linear)    (Quad)   (Total)
    R1        3.41741   0.00186   0.00000   0.00727   0.00727   3.42468
    R2        2.06497  -0.00113   0.00000  -0.00326  -0.00326   2.06171
    R3        2.06507   0.00097   0.00000   0.00280   0.00280   2.06787
    R4        2.06485   0.00103   0.00000   0.00297   0.00297   2.06782
    R5        3.41739   0.00234   0.00000   0.00914   0.00914   3.42653
    R6        2.06227  -0.00024   0.00000  -0.00068  -0.00068   2.06159
    R7        2.06226   0.00186   0.00000   0.00534   0.00534   2.06761
    R8        2.06203   0.00192   0.00000   0.00552   0.00552   2.06755
    A1        1.91792  -0.00567   0.00000  -0.03971  -0.03968   1.87825
    A2        1.91724   0.00319   0.00000   0.02213   0.02188   1.93912
    A3        1.91741   0.00318   0.00000   0.02193   0.02168   1.93909
    A4        1.90299  -0.00017   0.00000  -0.00536  -0.00532   1.89766
    A5        1.90400  -0.00025   0.00000  -0.00617  -0.00614   1.89786
    A6        1.90409  -0.00029   0.00000   0.00712   0.00664   1.91073
    A7        1.72039  -0.00532   0.00000  -0.02119  -0.02119   1.69919
    A8        1.91416  -0.00524   0.00000  -0.03700  -0.03694   1.87722
    A9        1.91356   0.00367   0.00000   0.02512   0.02484   1.93840
   A10        1.91365   0.00368   0.00000   0.02501   0.02473   1.93838
   A11        1.90669  -0.00064   0.00000  -0.00826  -0.00820   1.89849
   A12        1.90782  -0.00074   0.00000  -0.00915  -0.00910   1.89872
   A13        1.90789  -0.00075   0.00000   0.00419   0.00364   1.91152
    D1       -3.14157   0.00003   0.00000  -0.00060  -0.00060   3.14101
    D2        1.04802   0.00179   0.00000   0.01699   0.01740   1.06542
    D3       -1.04662  -0.00184   0.00000  -0.01934  -0.01974  -1.06636
    D4        3.14155   0.00004   0.00000  -0.00048  -0.00048   3.14107
    D5        1.04802   0.00179   0.00000   0.01700   0.01748   1.06550
    D6       -1.04666  -0.00183   0.00000  -0.01914  -0.01962  -1.06629
         Item               Value     Threshold  Converged?
 Maximum Force            0.005667     0.000450     NO 
 RMS     Force            0.002505     0.000300     NO 
 Maximum Displacement     0.056734     0.001800     NO 
 RMS     Displacement     0.021955     0.001200     NO 
 Predicted change in Energy=-5.399134D-04
 GradGradGradGradGradGradGradGradGradGradGradGradGradGradGradGradGradGrad

                          Input orientation:                          
 ---------------------------------------------------------------------
 Center     Atomic      Atomic             Coordinates (Angstroms)
 Number     Number       Type             X           Y           Z
 ---------------------------------------------------------------------
      1          6           0        0.996129   -0.333166    0.341389
      2         16           0        1.217215    0.187567    2.063091
      3          6           0        2.882608   -0.489849    2.298510
      4          1           0        0.009000    0.001723    0.019322
      5          1           0        1.044722   -1.422523    0.249912
      6          1           0        1.750681    0.121493   -0.307691
      7          1           0        3.189684   -0.260806    3.319983
      8          1           0        3.594912   -0.032003    1.605602
      9          1           0        2.888050   -1.575636    2.163983
 ---------------------------------------------------------------------
                    Distance matrix (angstroms):
                    1          2          3          4          5
     1  C    0.000000
     2  S    1.812263   0.000000
     3  C    2.722806   1.813243   0.000000
     4  H    1.091010   2.381452   3.700536   0.000000
     5  H    1.094270   2.431000   2.905935   1.776054   0.000000
     6  H    1.094244   2.430958   2.906421   1.776158   1.786977
     7  H    3.699857   2.381481   1.090947   4.591300   3.921197
     8  H    2.905616   2.431244   1.094130   3.921248   3.205450
     9  H    2.906018   2.431204   1.094102   3.921295   2.661760
                    6          7          8          9
     6  H    0.000000
     7  H    3.921340   0.000000
     8  H    2.661849   1.776419   0.000000
     9  H    3.206716   1.776541   1.787245   0.000000
 Stoichiometry    C2H6S
 Framework group  C1[X(C2H6S)]
 Deg. of freedom    21
 Full point group                 C1      NOp   1
 Largest Abelian subgroup         C1      NOp   1
 Largest concise Abelian subgroup C1      NOp   1
                         Standard orientation:                         
 ---------------------------------------------------------------------
 Center     Atomic      Atomic             Coordinates (Angstroms)
 Number     Number       Type             X           Y           Z
 ---------------------------------------------------------------------
      1          6           0        1.361008    0.522309   -0.000024
      2         16           0        0.000355   -0.674739    0.000001
      3          6           0       -1.361799    0.522084    0.000025
      4          1           0        2.295749   -0.040327    0.000563
      5          1           0        1.330370    1.153634    0.893238
      6          1           0        1.330867    1.152972   -0.893738
      7          1           0       -2.295551   -0.042072   -0.000502
      8          1           0       -1.330982    1.152911   -0.893410
      9          1           0       -1.331390    1.152353    0.893834
 ---------------------------------------------------------------------
 Rotational constants (GHZ):     17.2139083      7.7199587      5.7179145
 Standard basis: 6-31+G(d) (6D, 7F)
 There are    73 symmetry adapted cartesian basis functions of A   symmetry.
 There are    73 symmetry adapted basis functions of A   symmetry.
    73 basis functions,   144 primitive gaussians,    73 cartesian basis functions
    17 alpha electrons       17 beta electrons
       nuclear repulsion energy       110.7672951382 Hartrees.
 NAtoms=    9 NActive=    9 NUniq=    9 SFac= 1.00D+00 NAtFMM=   60 NAOKFM=F Big=F
 Integral buffers will be    131072 words long.
 Raffenetti 2 integral format.
 Two-electron integral symmetry is turned on.
 One-electron integrals computed using PRISM.
 NBasis=    73 RedAO= T EigKep=  5.85D-04  NBF=    73
 NBsUse=    73 1.00D-06 EigRej= -1.00D+00 NBFU=    73
 Initial guess from the checkpoint file:  "/srv/scratch/z5358697/gauss/Gau-1692998.chk"
 B after Tr=     0.000000    0.000000    0.000000
         Rot=    1.000000    0.000009    0.000053   -0.000512 Ang=   0.06 deg.
 ExpMin= 4.05D-02 ExpMax= 2.19D+04 ExpMxC= 3.30D+03 IAcc=2 IRadAn=         4 AccDes= 0.00D+00
 Harris functional with IExCor= 1009 and IRadAn=       4 diagonalized for initial guess.
 HarFok:  IExCor= 1009 AccDes= 0.00D+00 IRadAn=         4 IDoV= 1 UseB2=F ITyADJ=14
 ICtDFT=  3500011 ScaDFX=  1.000000  1.000000  1.000000  1.000000
 FoFCou: FMM=F IPFlag=           0 FMFlag=      100000 FMFlg1=           0
         NFxFlg=           0 DoJE=T BraDBF=F KetDBF=T FulRan=T
         wScrn=  0.000000 ICntrl=     500 IOpCl=  0 I1Cent=   200000004 NGrid=           0
         NMat0=    1 NMatS0=      1 NMatT0=    0 NMatD0=    1 NMtDS0=    0 NMtDT0=    0
 Petite list used in FoFCou.
 Keep R1 ints in memory in canonical form, NReq=4579371.
 Requested convergence on RMS density matrix=1.00D-08 within 128 cycles.
 Requested convergence on MAX density matrix=1.00D-06.
 Requested convergence on             energy=1.00D-06.
 No special actions if energy rises.
 SCF Done:  E(RM062X) =  -477.924466528     A.U. after   10 cycles
            NFock= 10  Conv=0.33D-08     -V/T= 2.0040
 Calling FoFJK, ICntrl=      2127 FMM=F ISym2X=0 I1Cent= 0 IOpClX= 0 NMat=1 NMatS=1 NMatT=0.
 ***** Axes restored to original set *****
 -------------------------------------------------------------------
 Center     Atomic                   Forces (Hartrees/Bohr)
 Number     Number              X              Y              Z
 -------------------------------------------------------------------
      1        6          -0.000594699    0.000034730   -0.000594051
      2       16           0.001511272   -0.001134184   -0.001221785
      3        6           0.000055423    0.000212504    0.000581751
      4        1          -0.000661939    0.000133556   -0.000501611
      5        1          -0.000073653    0.000363575    0.000317681
      6        1          -0.000219334    0.000048345    0.000417848
      7        1           0.000562226   -0.000018549    0.000698840
      8        1          -0.000354207    0.000054731    0.000194252
      9        1          -0.000225089    0.000305291    0.000107075
 -------------------------------------------------------------------
 Cartesian Forces:  Max     0.001511272 RMS     0.000559598

 GradGradGradGradGradGradGradGradGradGradGradGradGradGradGradGradGradGrad
 Berny optimization.
 Using GEDIIS/GDIIS optimizer.
 FormGI is forming the generalized inverse of G from B-inverse, IUseBI=4.
 Internal  Forces:  Max     0.004652773 RMS     0.000965220
 Search for a local minimum.
 Step number   2 out of a maximum of   37
 All quantities printed in internal units (Hartrees-Bohrs-Radians)
 Mixed Optimization -- En-DIIS/RFO-DIIS
 Update second derivatives using D2CorX and points    1    2
 DE= -4.37D-04 DEPred=-5.40D-04 R= 8.09D-01
 TightC=F SS=  1.41D+00  RLast= 8.63D-02 DXNew= 5.0454D-01 2.5886D-01
 Trust test= 8.09D-01 RLast= 8.63D-02 DXMaxT set to 3.00D-01
 ITU=  1  0
 Use linear search instead of GDIIS.
     Eigenvalues ---    0.00259   0.00259   0.09326   0.09618   0.10071
     Eigenvalues ---    0.10081   0.15753   0.16000   0.16000   0.16000
     Eigenvalues ---    0.16000   0.16090   0.25190   0.25464   0.30556
     Eigenvalues ---    0.34485   0.34499   0.34562   0.34591   0.34670
     Eigenvalues ---    0.36126
 RFO step:  Lambda=-4.98888323D-05 EMin= 2.58977486D-03
 Quartic linear search produced a step of -0.15073.
 Iteration  1 RMS(Cart)=  0.01229514 RMS(Int)=  0.00004691
 Iteration  2 RMS(Cart)=  0.00004198 RMS(Int)=  0.00003704
 Iteration  3 RMS(Cart)=  0.00000000 RMS(Int)=  0.00003704
 Variable       Old X    -DE/DX   Delta X   Delta X   Delta X     New X
                                 (Linear)    (Quad)   (Total)
    R1        3.42468   0.00036  -0.00110   0.00264   0.00155   3.42623
    R2        2.06171   0.00079   0.00049   0.00130   0.00179   2.06350
    R3        2.06787  -0.00039  -0.00042  -0.00042  -0.00084   2.06703
    R4        2.06782  -0.00038  -0.00045  -0.00035  -0.00080   2.06702
    R5        3.42653   0.00003  -0.00138   0.00191   0.00053   3.42706
    R6        2.06159   0.00081   0.00010   0.00185   0.00195   2.06354
    R7        2.06761  -0.00033  -0.00081   0.00024  -0.00057   2.06704
    R8        2.06755  -0.00032  -0.00083   0.00031  -0.00053   2.06703
    A1        1.87825   0.00057   0.00598  -0.00469   0.00128   1.87953
    A2        1.93912  -0.00041  -0.00330   0.00209  -0.00117   1.93795
    A3        1.93909  -0.00040  -0.00327   0.00210  -0.00113   1.93796
    A4        1.89766  -0.00003   0.00080  -0.00109  -0.00029   1.89737
    A5        1.89786  -0.00004   0.00093  -0.00137  -0.00044   1.89741
    A6        1.91073   0.00032  -0.00100   0.00268   0.00175   1.91248
    A7        1.69919   0.00465   0.00319   0.01165   0.01484   1.71404
    A8        1.87722   0.00069   0.00557  -0.00353   0.00203   1.87925
    A9        1.93840  -0.00036  -0.00374   0.00294  -0.00076   1.93764
   A10        1.93838  -0.00035  -0.00373   0.00296  -0.00073   1.93765
   A11        1.89849  -0.00010   0.00124  -0.00205  -0.00082   1.89767
   A12        1.89872  -0.00012   0.00137  -0.00236  -0.00100   1.89772
   A13        1.91152   0.00025  -0.00055   0.00173   0.00126   1.91279
    D1        3.14101   0.00001   0.00009   0.00071   0.00080  -3.14137
    D2        1.06542  -0.00008  -0.00262   0.00373   0.00104   1.06646
    D3       -1.06636   0.00008   0.00298  -0.00263   0.00040  -1.06595
    D4        3.14107   0.00001   0.00007   0.00061   0.00068  -3.14143
    D5        1.06550  -0.00009  -0.00264   0.00358   0.00087   1.06638
    D6       -1.06629   0.00008   0.00296  -0.00273   0.00030  -1.06599
         Item               Value     Threshold  Converged?
 Maximum Force            0.004653     0.000450     NO 
 RMS     Force            0.000965     0.000300     NO 
 Maximum Displacement     0.018941     0.001800     NO 
 RMS     Displacement     0.012268     0.001200     NO 
 Predicted change in Energy=-3.906307D-05
 GradGradGradGradGradGradGradGradGradGradGradGradGradGradGradGradGradGrad

                          Input orientation:                          
 ---------------------------------------------------------------------
 Center     Atomic      Atomic             Coordinates (Angstroms)
 Number     Number       Type             X           Y           Z
 ---------------------------------------------------------------------
      1          6           0        0.989977   -0.333139    0.334227
      2         16           0        1.223439    0.182357    2.056732
      3          6           0        2.889195   -0.490393    2.304789
      4          1           0        0.001215    0.005301    0.017714
      5          1           0        1.034699   -1.422047    0.240757
      6          1           0        1.741778    0.121818   -0.317122
      7          1           0        3.191157   -0.258971    3.328352
      8          1           0        3.604141   -0.031891    1.615519
      9          1           0        2.897399   -1.576234    2.173130
 ---------------------------------------------------------------------
                    Distance matrix (angstroms):
                    1          2          3          4          5
     1  C    0.000000
     2  S    1.813082   0.000000
     3  C    2.741327   1.813524   0.000000
     4  H    1.091958   2.383856   3.717103   0.000000
     5  H    1.093827   2.430535   2.927006   1.776277   0.000000
     6  H    1.093821   2.430540   2.926737   1.776302   1.787375
     7  H    3.716918   2.384052   1.091979   4.604986   3.941612
     8  H    2.926826   2.430702   1.093830   3.941501   3.228705
     9  H    2.926620   2.430706   1.093824   3.941440   2.688399
                    6          7          8          9
     6  H    0.000000
     7  H    3.941470   0.000000
     8  H    2.688331   1.776490   0.000000
     9  H    3.228033   1.776517   1.787571   0.000000
 Stoichiometry    C2H6S
 Framework group  C1[X(C2H6S)]
 Deg. of freedom    21
 Full point group                 C1      NOp   1
 Largest Abelian subgroup         C1      NOp   1
 Largest concise Abelian subgroup C1      NOp   1
                         Standard orientation:                         
 ---------------------------------------------------------------------
 Center     Atomic      Atomic             Coordinates (Angstroms)
 Number     Number       Type             X           Y           Z
 ---------------------------------------------------------------------
      1          6           0        1.370481    0.518099   -0.000005
      2         16           0        0.000174   -0.669135    0.000000
      3          6           0       -1.370846    0.517951    0.000006
      4          1           0        2.302470   -0.050907   -0.000240
      5          1           0        1.344192    1.148065    0.893811
      6          1           0        1.343899    1.148411   -0.893563
      7          1           0       -2.302515   -0.051620    0.000176
      8          1           0       -1.344432    1.147821   -0.893879
      9          1           0       -1.344207    1.148084    0.893691
 ---------------------------------------------------------------------
 Rotational constants (GHZ):     17.4404357      7.6250149      5.6901545
 Standard basis: 6-31+G(d) (6D, 7F)
 There are    73 symmetry adapted cartesian basis functions of A   symmetry.
 There are    73 symmetry adapted basis functions of A   symmetry.
    73 basis functions,   144 primitive gaussians,    73 cartesian basis functions
    17 alpha electrons       17 beta electrons
       nuclear repulsion energy       110.6485805281 Hartrees.
 NAtoms=    9 NActive=    9 NUniq=    9 SFac= 1.00D+00 NAtFMM=   60 NAOKFM=F Big=F
 Integral buffers will be    131072 words long.
 Raffenetti 2 integral format.
 Two-electron integral symmetry is turned on.
 One-electron integrals computed using PRISM.
 NBasis=    73 RedAO= T EigKep=  5.89D-04  NBF=    73
 NBsUse=    73 1.00D-06 EigRej= -1.00D+00 NBFU=    73
 Initial guess from the checkpoint file:  "/srv/scratch/z5358697/gauss/Gau-1692998.chk"
 B after Tr=     0.000000    0.000000    0.000000
         Rot=    1.000000   -0.000009   -0.000029    0.000071 Ang=  -0.01 deg.
 Keep R1 ints in memory in canonical form, NReq=4579371.
 Requested convergence on RMS density matrix=1.00D-08 within 128 cycles.
 Requested convergence on MAX density matrix=1.00D-06.
 Requested convergence on             energy=1.00D-06.
 No special actions if energy rises.
 SCF Done:  E(RM062X) =  -477.924509660     A.U. after    8 cycles
            NFock=  8  Conv=0.43D-08     -V/T= 2.0040
 Calling FoFJK, ICntrl=      2127 FMM=F ISym2X=0 I1Cent= 0 IOpClX= 0 NMat=1 NMatS=1 NMatT=0.
 ***** Axes restored to original set *****
 -------------------------------------------------------------------
 Center     Atomic                   Forces (Hartrees/Bohr)
 Number     Number              X              Y              Z
 -------------------------------------------------------------------
      1        6           0.000118710   -0.000095575   -0.000089207
      2       16           0.000413469   -0.000282378   -0.000259837
      3        6          -0.000098397    0.000001280   -0.000144269
      4        1          -0.000097175    0.000096307    0.000135924
      5        1          -0.000008445    0.000118864    0.000061888
      6        1          -0.000072237   -0.000014253    0.000109279
      7        1          -0.000117015    0.000077749    0.000075349
      8        1          -0.000108489   -0.000034657    0.000084415
      9        1          -0.000030421    0.000132662    0.000026458
 -------------------------------------------------------------------
 Cartesian Forces:  Max     0.000413469 RMS     0.000138406

 GradGradGradGradGradGradGradGradGradGradGradGradGradGradGradGradGradGrad
 Berny optimization.
 Using GEDIIS/GDIIS optimizer.
 FormGI is forming the generalized inverse of G from B-inverse, IUseBI=4.
 Internal  Forces:  Max     0.000615542 RMS     0.000175236
 Search for a local minimum.
 Step number   3 out of a maximum of   37
 All quantities printed in internal units (Hartrees-Bohrs-Radians)
 Mixed Optimization -- En-DIIS/RFO-DIIS
 Swapping is turned off.
 Update second derivatives using D2CorX and points    1    2    3
 DE= -4.31D-05 DEPred=-3.91D-05 R= 1.10D+00
 TightC=F SS=  1.41D+00  RLast= 1.59D-02 DXNew= 5.0454D-01 4.7553D-02
 Trust test= 1.10D+00 RLast= 1.59D-02 DXMaxT set to 3.00D-01
 ITU=  1  1  0
     Eigenvalues ---    0.00259   0.00259   0.08910   0.09625   0.10070
     Eigenvalues ---    0.10073   0.15043   0.16000   0.16000   0.16000
     Eigenvalues ---    0.16052   0.16096   0.24896   0.25462   0.29815
     Eigenvalues ---    0.34463   0.34501   0.34570   0.34663   0.34679
     Eigenvalues ---    0.35119
 En-DIIS/RFO-DIIS IScMMF=        0 using points:     3    2
 RFO step:  Lambda=-1.92762247D-06.
 DidBck=F Rises=F RFO-DIIS coefs:    1.12082   -0.12082
 Iteration  1 RMS(Cart)=  0.00327611 RMS(Int)=  0.00000498
 Iteration  2 RMS(Cart)=  0.00000678 RMS(Int)=  0.00000027
 Iteration  3 RMS(Cart)=  0.00000000 RMS(Int)=  0.00000027
 Variable       Old X    -DE/DX   Delta X   Delta X   Delta X     New X
                                 (Linear)    (Quad)   (Total)
    R1        3.42623  -0.00023   0.00019  -0.00105  -0.00087   3.42536
    R2        2.06350   0.00008   0.00022   0.00010   0.00031   2.06382
    R3        2.06703  -0.00012  -0.00010  -0.00032  -0.00042   2.06661
    R4        2.06702  -0.00012  -0.00010  -0.00031  -0.00041   2.06662
    R5        3.42706  -0.00039   0.00006  -0.00166  -0.00160   3.42547
    R6        2.06354   0.00005   0.00024   0.00004   0.00027   2.06382
    R7        2.06704  -0.00014  -0.00007  -0.00036  -0.00042   2.06662
    R8        2.06703  -0.00014  -0.00006  -0.00034  -0.00041   2.06662
    A1        1.87953  -0.00026   0.00016  -0.00257  -0.00242   1.87711
    A2        1.93795  -0.00001  -0.00014   0.00034   0.00020   1.93815
    A3        1.93796  -0.00001  -0.00014   0.00031   0.00017   1.93814
    A4        1.89737   0.00010  -0.00004   0.00056   0.00053   1.89789
    A5        1.89741   0.00010  -0.00005   0.00051   0.00046   1.89787
    A6        1.91248   0.00008   0.00021   0.00081   0.00102   1.91350
    A7        1.71404   0.00062   0.00179   0.00154   0.00334   1.71737
    A8        1.87925  -0.00023   0.00025  -0.00238  -0.00213   1.87712
    A9        1.93764   0.00001  -0.00009   0.00050   0.00041   1.93805
   A10        1.93765   0.00001  -0.00009   0.00048   0.00039   1.93804
   A11        1.89767   0.00008  -0.00010   0.00039   0.00029   1.89796
   A12        1.89772   0.00007  -0.00012   0.00034   0.00022   1.89794
   A13        1.91279   0.00006   0.00015   0.00062   0.00077   1.91356
    D1       -3.14137   0.00000   0.00010  -0.00067  -0.00057   3.14124
    D2        1.06646   0.00004   0.00013   0.00003   0.00016   1.06662
    D3       -1.06595  -0.00005   0.00005  -0.00146  -0.00141  -1.06736
    D4       -3.14143   0.00000   0.00008  -0.00051  -0.00043   3.14133
    D5        1.06638   0.00004   0.00011   0.00019   0.00029   1.06667
    D6       -1.06599  -0.00005   0.00004  -0.00129  -0.00125  -1.06724
         Item               Value     Threshold  Converged?
 Maximum Force            0.000616     0.000450     NO 
 RMS     Force            0.000175     0.000300     YES
 Maximum Displacement     0.005118     0.001800     NO 
 RMS     Displacement     0.003273     0.001200     NO 
 Predicted change in Energy=-2.331474D-06
 GradGradGradGradGradGradGradGradGradGradGradGradGradGradGradGradGradGrad

                          Input orientation:                          
 ---------------------------------------------------------------------
 Center     Atomic      Atomic             Coordinates (Angstroms)
 Number     Number       Type             X           Y           Z
 ---------------------------------------------------------------------
      1          6           0        0.989441   -0.333366    0.332557
      2         16           0        1.225614    0.180680    2.054643
      3          6           0        2.890517   -0.490890    2.305441
      4          1           0       -0.000348    0.006482    0.020216
      5          1           0        1.033157   -1.422006    0.238108
      6          1           0        1.739500    0.122516   -0.319790
      7          1           0        3.189062   -0.257208    3.329647
      8          1           0        3.606512   -0.032654    1.617440
      9          1           0        2.899545   -1.576754    2.175839
 ---------------------------------------------------------------------
                    Distance matrix (angstroms):
                    1          2          3          4          5
     1  C    0.000000
     2  S    1.812623   0.000000
     3  C    2.744299   1.812679   0.000000
     4  H    1.092125   2.381643   3.718432   0.000000
     5  H    1.093603   2.430112   2.930977   1.776566   0.000000
     6  H    1.093606   2.430101   2.931372   1.776553   1.787658
     7  H    3.718425   2.381703   1.092124   4.603717   3.944907
     8  H    2.930940   2.430088   1.093606   3.944882   3.233421
     9  H    2.931245   2.430084   1.093608   3.944962   2.694838
                    6          7          8          9
     6  H    0.000000
     7  H    3.945099   0.000000
     8  H    2.694934   1.776609   0.000000
     9  H    3.234406   1.776596   1.787696   0.000000
 Stoichiometry    C2H6S
 Framework group  C1[X(C2H6S)]
 Deg. of freedom    21
 Full point group                 C1      NOp   1
 Largest Abelian subgroup         C1      NOp   1
 Largest concise Abelian subgroup C1      NOp   1
                         Standard orientation:                         
 ---------------------------------------------------------------------
 Center     Atomic      Atomic             Coordinates (Angstroms)
 Number     Number       Type             X           Y           Z
 ---------------------------------------------------------------------
      1          6           0        1.372124    0.517027    0.000002
      2         16           0        0.000017   -0.667423    0.000000
      3          6           0       -1.372174    0.517017   -0.000003
      4          1           0        2.301840   -0.056004    0.000372
      5          1           0        1.347248    1.146912    0.893644
      6          1           0        1.347671    1.146401   -0.894014
      7          1           0       -2.301877   -0.056035   -0.000283
      8          1           0       -1.347262    1.146813   -0.893708
      9          1           0       -1.347590    1.146426    0.893988
 ---------------------------------------------------------------------
 Rotational constants (GHZ):     17.5054395      7.6103150      5.6889407
 Standard basis: 6-31+G(d) (6D, 7F)
 There are    73 symmetry adapted cartesian basis functions of A   symmetry.
 There are    73 symmetry adapted basis functions of A   symmetry.
    73 basis functions,   144 primitive gaussians,    73 cartesian basis functions
    17 alpha electrons       17 beta electrons
       nuclear repulsion energy       110.6632979118 Hartrees.
 NAtoms=    9 NActive=    9 NUniq=    9 SFac= 1.00D+00 NAtFMM=   60 NAOKFM=F Big=F
 Integral buffers will be    131072 words long.
 Raffenetti 2 integral format.
 Two-electron integral symmetry is turned on.
 One-electron integrals computed using PRISM.
 NBasis=    73 RedAO= T EigKep=  5.88D-04  NBF=    73
 NBsUse=    73 1.00D-06 EigRej= -1.00D+00 NBFU=    73
 Initial guess from the checkpoint file:  "/srv/scratch/z5358697/gauss/Gau-1692998.chk"
 B after Tr=     0.000000    0.000000    0.000000
         Rot=    1.000000    0.000010    0.000026    0.000060 Ang=   0.01 deg.
 Keep R1 ints in memory in canonical form, NReq=4579371.
 Requested convergence on RMS density matrix=1.00D-08 within 128 cycles.
 Requested convergence on MAX density matrix=1.00D-06.
 Requested convergence on             energy=1.00D-06.
 No special actions if energy rises.
 SCF Done:  E(RM062X) =  -477.924512181     A.U. after    8 cycles
            NFock=  8  Conv=0.42D-08     -V/T= 2.0040
 Calling FoFJK, ICntrl=      2127 FMM=F ISym2X=0 I1Cent= 0 IOpClX= 0 NMat=1 NMatS=1 NMatT=0.
 ***** Axes restored to original set *****
 -------------------------------------------------------------------
 Center     Atomic                   Forces (Hartrees/Bohr)
 Number     Number              X              Y              Z
 -------------------------------------------------------------------
      1        6          -0.000020072    0.000025137    0.000025653
      2       16           0.000023433   -0.000013231   -0.000003306
      3        6          -0.000055991    0.000025325    0.000011732
      4        1           0.000023602   -0.000002583    0.000026056
      5        1           0.000004304   -0.000001086   -0.000019989
      6        1          -0.000000407   -0.000018190   -0.000014901
      7        1          -0.000023065    0.000001994   -0.000027487
      8        1           0.000018659   -0.000020594    0.000006725
      9        1           0.000029536    0.000003228   -0.000004484
 -------------------------------------------------------------------
 Cartesian Forces:  Max     0.000055991 RMS     0.000020700

 GradGradGradGradGradGradGradGradGradGradGradGradGradGradGradGradGradGrad
 Berny optimization.
 Using GEDIIS/GDIIS optimizer.
 FormGI is forming the generalized inverse of G from B-inverse, IUseBI=4.
 Internal  Forces:  Max     0.000047922 RMS     0.000023478
 Search for a local minimum.
 Step number   4 out of a maximum of   37
 All quantities printed in internal units (Hartrees-Bohrs-Radians)
 Mixed Optimization -- En-DIIS/RFO-DIIS
 Swapping is turned off.
 Update second derivatives using D2CorX and points    1    2    3    4
 DE= -2.52D-06 DEPred=-2.33D-06 R= 1.08D+00
 TightC=F SS=  1.41D+00  RLast= 5.70D-03 DXNew= 5.0454D-01 1.7103D-02
 Trust test= 1.08D+00 RLast= 5.70D-03 DXMaxT set to 3.00D-01
 ITU=  1  1  1  0
     Eigenvalues ---    0.00259   0.00260   0.08664   0.09621   0.10086
     Eigenvalues ---    0.10088   0.13694   0.16000   0.16000   0.16000
     Eigenvalues ---    0.16031   0.16735   0.24807   0.25472   0.29562
     Eigenvalues ---    0.34497   0.34509   0.34577   0.34670   0.34816
     Eigenvalues ---    0.35612
 En-DIIS/RFO-DIIS IScMMF=        0 using points:     4    3    2
 RFO step:  Lambda=-3.85617899D-08.
 DidBck=F Rises=F RFO-DIIS coefs:    1.10275   -0.10965    0.00690
 Iteration  1 RMS(Cart)=  0.00087777 RMS(Int)=  0.00000035
 Iteration  2 RMS(Cart)=  0.00000037 RMS(Int)=  0.00000004
 Variable       Old X    -DE/DX   Delta X   Delta X   Delta X     New X
                                 (Linear)    (Quad)   (Total)
    R1        3.42536  -0.00002  -0.00010   0.00002  -0.00008   3.42528
    R2        2.06382  -0.00003   0.00002  -0.00009  -0.00007   2.06374
    R3        2.06661   0.00000  -0.00004   0.00003  -0.00001   2.06660
    R4        2.06662   0.00000  -0.00004   0.00002  -0.00001   2.06660
    R5        3.42547  -0.00003  -0.00017  -0.00001  -0.00018   3.42529
    R6        2.06382  -0.00003   0.00001  -0.00009  -0.00008   2.06374
    R7        2.06662   0.00000  -0.00004   0.00003  -0.00001   2.06660
    R8        2.06662   0.00000  -0.00004   0.00002  -0.00002   2.06660
    A1        1.87711  -0.00004  -0.00026  -0.00009  -0.00035   1.87676
    A2        1.93815   0.00003   0.00003   0.00016   0.00019   1.93834
    A3        1.93814   0.00003   0.00003   0.00020   0.00023   1.93836
    A4        1.89789   0.00000   0.00006  -0.00006   0.00000   1.89789
    A5        1.89787   0.00000   0.00005  -0.00002   0.00003   1.89790
    A6        1.91350  -0.00003   0.00009  -0.00020  -0.00011   1.91339
    A7        1.71737   0.00005   0.00024   0.00017   0.00041   1.71778
    A8        1.87712  -0.00004  -0.00023  -0.00012  -0.00035   1.87677
    A9        1.93805   0.00004   0.00005   0.00024   0.00028   1.93834
   A10        1.93804   0.00004   0.00005   0.00026   0.00031   1.93835
   A11        1.89796   0.00000   0.00004  -0.00010  -0.00006   1.89790
   A12        1.89794   0.00000   0.00003  -0.00006  -0.00003   1.89790
   A13        1.91356  -0.00003   0.00007  -0.00023  -0.00016   1.91339
    D1        3.14124   0.00000  -0.00006   0.00095   0.00089  -3.14106
    D2        1.06662   0.00001   0.00001   0.00098   0.00099   1.06761
    D3       -1.06736   0.00000  -0.00015   0.00099   0.00084  -1.06652
    D4        3.14133   0.00000  -0.00005   0.00072   0.00067  -3.14119
    D5        1.06667   0.00001   0.00002   0.00077   0.00080   1.06747
    D6       -1.06724   0.00000  -0.00013   0.00072   0.00059  -1.06665
         Item               Value     Threshold  Converged?
 Maximum Force            0.000048     0.000450     YES
 RMS     Force            0.000023     0.000300     YES
 Maximum Displacement     0.002215     0.001800     NO 
 RMS     Displacement     0.000878     0.001200     YES
 Predicted change in Energy=-5.540813D-08
 GradGradGradGradGradGradGradGradGradGradGradGradGradGradGradGradGradGrad

                          Input orientation:                          
 ---------------------------------------------------------------------
 Center     Atomic      Atomic             Coordinates (Angstroms)
 Number     Number       Type             X           Y           Z
 ---------------------------------------------------------------------
      1          6           0        0.989248   -0.333530    0.332430
      2         16           0        1.225804    0.180413    2.054450
      3          6           0        2.890727   -0.490767    2.305485
      4          1           0       -0.000298    0.007202    0.020419
      5          1           0        1.031984   -1.422194    0.237851
      6          1           0        1.739530    0.121656   -0.320136
      7          1           0        3.188492   -0.257363    3.329938
      8          1           0        3.607082   -0.032051    1.618191
      9          1           0        2.900430   -1.576566    2.175471
 ---------------------------------------------------------------------
                    Distance matrix (angstroms):
                    1          2          3          4          5
     1  C    0.000000
     2  S    1.812581   0.000000
     3  C    2.744684   1.812587   0.000000
     4  H    1.092086   2.381304   3.718538   0.000000
     5  H    1.093600   2.430216   2.932165   1.776530   0.000000
     6  H    1.093600   2.430232   2.931587   1.776535   1.787581
     7  H    3.718538   2.381315   1.092083   4.603400   3.945676
     8  H    2.932085   2.430216   1.093599   3.945581   3.235578
     9  H    2.931647   2.430225   1.093599   3.945477   2.696162
                    6          7          8          9
     6  H    0.000000
     7  H    3.945401   0.000000
     8  H    2.696014   1.776530   0.000000
     9  H    3.234146   1.776534   1.787581   0.000000
 Stoichiometry    C2H6S
 Framework group  C1[X(C2H6S)]
 Deg. of freedom    21
 Full point group                 C1      NOp   1
 Largest Abelian subgroup         C1      NOp   1
 Largest concise Abelian subgroup C1      NOp   1
                         Standard orientation:                         
 ---------------------------------------------------------------------
 Center     Atomic      Atomic             Coordinates (Angstroms)
 Number     Number       Type             X           Y           Z
 ---------------------------------------------------------------------
      1          6           0        1.372339    0.516890    0.000000
      2         16           0        0.000002   -0.667230    0.000000
      3          6           0       -1.372345    0.516887    0.000001
      4          1           0        2.301697   -0.056647   -0.000556
      5          1           0        1.348354    1.146206    0.894062
      6          1           0        1.347737    1.146954   -0.893518
      7          1           0       -2.301703   -0.056645    0.000421
      8          1           0       -1.348277    1.146293   -0.893994
      9          1           0       -1.347808    1.146855    0.893586
 ---------------------------------------------------------------------
 Rotational constants (GHZ):     17.5127858      7.6083205      5.6885572
 Standard basis: 6-31+G(d) (6D, 7F)
 There are    73 symmetry adapted cartesian basis functions of A   symmetry.
 There are    73 symmetry adapted basis functions of A   symmetry.
    73 basis functions,   144 primitive gaussians,    73 cartesian basis functions
    17 alpha electrons       17 beta electrons
       nuclear repulsion energy       110.6636378069 Hartrees.
 NAtoms=    9 NActive=    9 NUniq=    9 SFac= 1.00D+00 NAtFMM=   60 NAOKFM=F Big=F
 Integral buffers will be    131072 words long.
 Raffenetti 2 integral format.
 Two-electron integral symmetry is turned on.
 One-electron integrals computed using PRISM.
 NBasis=    73 RedAO= T EigKep=  5.88D-04  NBF=    73
 NBsUse=    73 1.00D-06 EigRej= -1.00D+00 NBFU=    73
 Initial guess from the checkpoint file:  "/srv/scratch/z5358697/gauss/Gau-1692998.chk"
 B after Tr=     0.000000    0.000000    0.000000
         Rot=    1.000000   -0.000015   -0.000038    0.000004 Ang=   0.00 deg.
 Keep R1 ints in memory in canonical form, NReq=4579371.
 Requested convergence on RMS density matrix=1.00D-08 within 128 cycles.
 Requested convergence on MAX density matrix=1.00D-06.
 Requested convergence on             energy=1.00D-06.
 No special actions if energy rises.
 SCF Done:  E(RM062X) =  -477.924512234     A.U. after    6 cycles
            NFock=  6  Conv=0.90D-08     -V/T= 2.0040
 Calling FoFJK, ICntrl=      2127 FMM=F ISym2X=0 I1Cent= 0 IOpClX= 0 NMat=1 NMatS=1 NMatT=0.
 ***** Axes restored to original set *****
 -------------------------------------------------------------------
 Center     Atomic                   Forces (Hartrees/Bohr)
 Number     Number              X              Y              Z
 -------------------------------------------------------------------
      1        6          -0.000008956    0.000006468    0.000023190
      2       16           0.000009118   -0.000004657   -0.000006517
      3        6          -0.000023260    0.000014740    0.000003994
      4        1           0.000001405   -0.000000814   -0.000000927
      5        1           0.000005596   -0.000004137   -0.000007101
      6        1           0.000003668    0.000000222   -0.000005896
      7        1           0.000000713   -0.000000517    0.000000117
      8        1           0.000006931   -0.000004807   -0.000005223
      9        1           0.000004784   -0.000006497   -0.000001637
 -------------------------------------------------------------------
 Cartesian Forces:  Max     0.000023260 RMS     0.000008386

 GradGradGradGradGradGradGradGradGradGradGradGradGradGradGradGradGradGrad
 Berny optimization.
 Using GEDIIS/GDIIS optimizer.
 FormGI is forming the generalized inverse of G from B-inverse, IUseBI=4.
 Internal  Forces:  Max     0.000011406 RMS     0.000005110
 Search for a local minimum.
 Step number   5 out of a maximum of   37
 All quantities printed in internal units (Hartrees-Bohrs-Radians)
 Mixed Optimization -- En-DIIS/RFO-DIIS
 Swapping is turned off.
 Update second derivatives using D2CorX and points    1    2    3    4    5
 DE= -5.29D-08 DEPred=-5.54D-08 R= 9.54D-01
 Trust test= 9.54D-01 RLast= 2.16D-03 DXMaxT set to 3.00D-01
 ITU=  0  1  1  1  0
     Eigenvalues ---    0.00259   0.00320   0.08821   0.09612   0.10087
     Eigenvalues ---    0.10150   0.11673   0.15990   0.16000   0.16009
     Eigenvalues ---    0.16044   0.16520   0.24466   0.25472   0.29787
     Eigenvalues ---    0.34496   0.34519   0.34569   0.34670   0.34938
     Eigenvalues ---    0.35249
 En-DIIS/RFO-DIIS IScMMF=        0 using points:     5    4    3    2
 RFO step:  Lambda= 0.00000000D+00.
 DidBck=F Rises=F RFO-DIIS coefs:    0.84487    0.19093   -0.03964    0.00384
 Iteration  1 RMS(Cart)=  0.00068241 RMS(Int)=  0.00000023
 Iteration  2 RMS(Cart)=  0.00000024 RMS(Int)=  0.00000001
 Variable       Old X    -DE/DX   Delta X   Delta X   Delta X     New X
                                 (Linear)    (Quad)   (Total)
    R1        3.42528  -0.00001  -0.00002  -0.00002  -0.00004   3.42524
    R2        2.06374   0.00000   0.00002  -0.00003  -0.00001   2.06373
    R3        2.06660   0.00000  -0.00001   0.00002   0.00001   2.06661
    R4        2.06660   0.00001  -0.00001   0.00002   0.00001   2.06662
    R5        3.42529  -0.00001  -0.00003  -0.00003  -0.00006   3.42523
    R6        2.06374   0.00000   0.00001  -0.00002  -0.00001   2.06373
    R7        2.06660   0.00001  -0.00001   0.00002   0.00001   2.06661
    R8        2.06660   0.00001  -0.00001   0.00002   0.00001   2.06661
    A1        1.87676   0.00000  -0.00004   0.00001  -0.00003   1.87673
    A2        1.93834   0.00001  -0.00002   0.00008   0.00006   1.93841
    A3        1.93836   0.00000  -0.00002   0.00005   0.00003   1.93839
    A4        1.89789   0.00000   0.00002  -0.00001   0.00001   1.89790
    A5        1.89790   0.00000   0.00001  -0.00002  -0.00001   1.89789
    A6        1.91339  -0.00001   0.00005  -0.00011  -0.00006   1.91333
    A7        1.71778   0.00000   0.00000   0.00006   0.00006   1.71784
    A8        1.87677   0.00000  -0.00003  -0.00001  -0.00004   1.87674
    A9        1.93834   0.00001  -0.00003   0.00010   0.00007   1.93841
   A10        1.93835   0.00000  -0.00003   0.00008   0.00005   1.93840
   A11        1.89790   0.00000   0.00002  -0.00003   0.00000   1.89790
   A12        1.89790   0.00000   0.00002  -0.00003  -0.00002   1.89789
   A13        1.91339  -0.00001   0.00005  -0.00012  -0.00007   1.91332
    D1       -3.14106   0.00000  -0.00016  -0.00072  -0.00088   3.14125
    D2        1.06761  -0.00001  -0.00015  -0.00075  -0.00091   1.06670
    D3       -1.06652   0.00000  -0.00018  -0.00071  -0.00089  -1.06741
    D4       -3.14119   0.00000  -0.00012  -0.00054  -0.00066   3.14134
    D5        1.06747   0.00000  -0.00012  -0.00056  -0.00067   1.06680
    D6       -1.06665   0.00000  -0.00014  -0.00053  -0.00067  -1.06732
         Item               Value     Threshold  Converged?
 Maximum Force            0.000011     0.000450     YES
 RMS     Force            0.000005     0.000300     YES
 Maximum Displacement     0.001506     0.001800     YES
 RMS     Displacement     0.000682     0.001200     YES
 Predicted change in Energy=-9.441975D-09
 Optimization completed.
    -- Stationary point found.
                           ----------------------------
                           !   Optimized Parameters   !
                           ! (Angstroms and Degrees)  !
 --------------------------                            --------------------------
 ! Name  Definition              Value          Derivative Info.                !
 --------------------------------------------------------------------------------
 ! R1    R(1,2)                  1.8126         -DE/DX =    0.0                 !
 ! R2    R(1,4)                  1.0921         -DE/DX =    0.0                 !
 ! R3    R(1,5)                  1.0936         -DE/DX =    0.0                 !
 ! R4    R(1,6)                  1.0936         -DE/DX =    0.0                 !
 ! R5    R(2,3)                  1.8126         -DE/DX =    0.0                 !
 ! R6    R(3,7)                  1.0921         -DE/DX =    0.0                 !
 ! R7    R(3,8)                  1.0936         -DE/DX =    0.0                 !
 ! R8    R(3,9)                  1.0936         -DE/DX =    0.0                 !
 ! A1    A(2,1,4)              107.5307         -DE/DX =    0.0                 !
 ! A2    A(2,1,5)              111.0588         -DE/DX =    0.0                 !
 ! A3    A(2,1,6)              111.06           -DE/DX =    0.0                 !
 ! A4    A(4,1,5)              108.7412         -DE/DX =    0.0                 !
 ! A5    A(4,1,6)              108.7417         -DE/DX =    0.0                 !
 ! A6    A(5,1,6)              109.6293         -DE/DX =    0.0                 !
 ! A7    A(1,2,3)               98.4218         -DE/DX =    0.0                 !
 ! A8    A(2,3,7)              107.5312         -DE/DX =    0.0                 !
 ! A9    A(2,3,8)              111.0585         -DE/DX =    0.0                 !
 ! A10   A(2,3,9)              111.0592         -DE/DX =    0.0                 !
 ! A11   A(7,3,8)              108.7415         -DE/DX =    0.0                 !
 ! A12   A(7,3,9)              108.7419         -DE/DX =    0.0                 !
 ! A13   A(8,3,9)              109.6294         -DE/DX =    0.0                 !
 ! D1    D(4,1,2,3)            180.0305         -DE/DX =    0.0                 !
 ! D2    D(5,1,2,3)             61.1695         -DE/DX =    0.0                 !
 ! D3    D(6,1,2,3)            -61.1071         -DE/DX =    0.0                 !
 ! D4    D(1,2,3,7)            180.0231         -DE/DX =    0.0                 !
 ! D5    D(1,2,3,8)             61.1616         -DE/DX =    0.0                 !
 ! D6    D(1,2,3,9)            -61.1145         -DE/DX =    0.0                 !
 --------------------------------------------------------------------------------
 GradGradGradGradGradGradGradGradGradGradGradGradGradGradGradGradGradGrad

                          Input orientation:                          
 ---------------------------------------------------------------------
 Center     Atomic      Atomic             Coordinates (Angstroms)
 Number     Number       Type             X           Y           Z
 ---------------------------------------------------------------------
      1          6           0        0.989248   -0.333530    0.332430
      2         16           0        1.225804    0.180413    2.054450
      3          6           0        2.890727   -0.490767    2.305485
      4          1           0       -0.000298    0.007202    0.020419
      5          1           0        1.031984   -1.422194    0.237851
      6          1           0        1.739530    0.121656   -0.320136
      7          1           0        3.188492   -0.257363    3.329938
      8          1           0        3.607082   -0.032051    1.618191
      9          1           0        2.900430   -1.576566    2.175471
 ---------------------------------------------------------------------
                    Distance matrix (angstroms):
                    1          2          3          4          5
     1  C    0.000000
     2  S    1.812581   0.000000
     3  C    2.744684   1.812587   0.000000
     4  H    1.092086   2.381304   3.718538   0.000000
     5  H    1.093600   2.430216   2.932165   1.776530   0.000000
     6  H    1.093600   2.430232   2.931587   1.776535   1.787581
     7  H    3.718538   2.381315   1.092083   4.603400   3.945676
     8  H    2.932085   2.430216   1.093599   3.945581   3.235578
     9  H    2.931647   2.430225   1.093599   3.945477   2.696162
                    6          7          8          9
     6  H    0.000000
     7  H    3.945401   0.000000
     8  H    2.696014   1.776530   0.000000
     9  H    3.234146   1.776534   1.787581   0.000000
 Stoichiometry    C2H6S
 Framework group  C1[X(C2H6S)]
 Deg. of freedom    21
 Full point group                 C1      NOp   1
 Largest Abelian subgroup         C1      NOp   1
 Largest concise Abelian subgroup C1      NOp   1
                         Standard orientation:                         
 ---------------------------------------------------------------------
 Center     Atomic      Atomic             Coordinates (Angstroms)
 Number     Number       Type             X           Y           Z
 ---------------------------------------------------------------------
      1          6           0        1.372339    0.516890    0.000000
      2         16           0        0.000002   -0.667230    0.000000
      3          6           0       -1.372345    0.516887    0.000001
      4          1           0        2.301697   -0.056647   -0.000556
      5          1           0        1.348354    1.146206    0.894062
      6          1           0        1.347737    1.146954   -0.893518
      7          1           0       -2.301703   -0.056645    0.000421
      8          1           0       -1.348277    1.146293   -0.893994
      9          1           0       -1.347808    1.146855    0.893586
 ---------------------------------------------------------------------
 Rotational constants (GHZ):     17.5127858      7.6083205      5.6885572

 **********************************************************************

            Population analysis using the SCF density.

 **********************************************************************

 Orbital symmetries:
       Occupied  (A) (A) (A) (A) (A) (A) (A) (A) (A) (A) (A) (A)
                 (A) (A) (A) (A) (A)
       Virtual   (A) (A) (A) (A) (A) (A) (A) (A) (A) (A) (A) (A)
                 (A) (A) (A) (A) (A) (A) (A) (A) (A) (A) (A) (A)
                 (A) (A) (A) (A) (A) (A) (A) (A) (A) (A) (A) (A)
                 (A) (A) (A) (A) (A) (A) (A) (A) (A) (A) (A) (A)
                 (A) (A) (A) (A) (A) (A) (A) (A)
 The electronic state is 1-A.
 Alpha  occ. eigenvalues --  -89.91352 -10.57039 -10.57038  -8.25868  -6.17960
 Alpha  occ. eigenvalues --   -6.17717  -6.17246  -0.89377  -0.79775  -0.68033
 Alpha  occ. eigenvalues --   -0.51203  -0.51052  -0.49032  -0.47577  -0.42091
 Alpha  occ. eigenvalues --   -0.36993  -0.27473
 Alpha virt. eigenvalues --    0.02454   0.02536   0.05045   0.06049   0.07618
 Alpha virt. eigenvalues --    0.08124   0.08727   0.08738   0.09342   0.10700
 Alpha virt. eigenvalues --    0.13249   0.14897   0.16223   0.17607   0.21449
 Alpha virt. eigenvalues --    0.21763   0.23515   0.28049   0.34644   0.34881
 Alpha virt. eigenvalues --    0.52388   0.52901   0.55719   0.56645   0.58772
 Alpha virt. eigenvalues --    0.65636   0.65820   0.70559   0.70890   0.86615
 Alpha virt. eigenvalues --    0.88880   0.89444   0.94039   0.98657   1.00175
 Alpha virt. eigenvalues --    1.02281   1.02753   1.06142   1.06655   1.17191
 Alpha virt. eigenvalues --    1.19075   1.30023   1.38087   1.73069   1.73203
 Alpha virt. eigenvalues --    1.77677   1.80723   2.15543   2.25789   2.27643
 Alpha virt. eigenvalues --    2.31332   2.32685   2.33693   3.98602   4.26768
 Alpha virt. eigenvalues --    4.27244
          Condensed to atoms (all electrons):
               1          2          3          4          5          6
     1  C    5.627430   0.122883  -0.080679   0.375098   0.381503   0.381501
     2  S    0.122883  15.843857   0.122884  -0.048059  -0.050842  -0.050832
     3  C   -0.080679   0.122884   5.627428   0.015475  -0.006526  -0.006516
     4  H    0.375098  -0.048059   0.015475   0.460785  -0.022051  -0.022043
     5  H    0.381503  -0.050842  -0.006526  -0.022051   0.499935  -0.038071
     6  H    0.381501  -0.050832  -0.006516  -0.022043  -0.038071   0.499936
     7  H    0.015475  -0.048058   0.375098  -0.000055  -0.000031  -0.000031
     8  H   -0.006527  -0.050838   0.381501  -0.000031  -0.001268   0.005171
     9  H   -0.006514  -0.050837   0.381503  -0.000031   0.005170  -0.001272
               7          8          9
     1  C    0.015475  -0.006527  -0.006514
     2  S   -0.048058  -0.050838  -0.050837
     3  C    0.375098   0.381501   0.381503
     4  H   -0.000055  -0.000031  -0.000031
     5  H   -0.000031  -0.001268   0.005170
     6  H   -0.000031   0.005171  -0.001272
     7  H    0.460783  -0.022049  -0.022044
     8  H   -0.022049   0.499935  -0.038071
     9  H   -0.022044  -0.038071   0.499935
 Mulliken charges:
               1
     1  C   -0.810171
     2  S    0.209843
     3  C   -0.810169
     4  H    0.240911
     5  H    0.232181
     6  H    0.232156
     7  H    0.240912
     8  H    0.232178
     9  H    0.232159
 Sum of Mulliken charges =   0.00000
 Mulliken charges with hydrogens summed into heavy atoms:
               1
     1  C   -0.104922
     2  S    0.209843
     3  C   -0.104920
 Electronic spatial extent (au):  <R**2>=            272.7037
 Charge=              0.0000 electrons
 Dipole moment (field-independent basis, Debye):
    X=              0.0000    Y=              1.7441    Z=              0.0000  Tot=              1.7441
 Quadrupole moment (field-independent basis, Debye-Ang):
   XX=            -24.2517   YY=            -28.8647   ZZ=            -29.0701
   XY=              0.0000   XZ=             -0.0002   YZ=              0.0000
 Traceless Quadrupole moment (field-independent basis, Debye-Ang):
   XX=              3.1438   YY=             -1.4692   ZZ=             -1.6746
   XY=              0.0000   XZ=             -0.0002   YZ=              0.0000
 Octapole moment (field-independent basis, Debye-Ang**2):
  XXX=             -0.0001  YYY=              1.5567  ZZZ=              0.0003  XYY=              0.0000
  XXY=             -2.3333  XXZ=             -0.0002  XZZ=              0.0000  YZZ=              3.6851
  YYZ=             -0.0002  XYZ=              0.0009
 Hexadecapole moment (field-independent basis, Debye-Ang**3):
 XXXX=           -218.1886 YYYY=           -114.7748 ZZZZ=            -51.3008 XXXY=              0.0000
 XXXZ=             -0.0053 YYYX=              0.0001 YYYZ=             -0.0004 ZZZX=              0.0032
 ZZZY=              0.0002 XXYY=            -56.4117 XXZZ=            -47.3383 YYZZ=            -26.8955
 XXYZ=              0.0003 YYXZ=             -0.0009 ZZXY=              0.0000
 N-N= 1.106636378069D+02 E-N=-1.351688631996D+03  KE= 4.760353125435D+02
 1\1\GINC-KATANA2\FOpt\RM062X\6-31+G(d)\C2H6S1\Z5358697\20-Mar-2025\0\\
 #m062X/6-31+G(d) OPT Freq=noraman\\methylsulfanylmethane\\0,1\C,0.9892
 482656,-0.3335302727,0.3324303735\S,1.2258037925,0.1804131398,2.054450
 2656\C,2.8907269666,-0.4907671471,2.3054852017\H,-0.0002976535,0.00720
 24198,0.0204189201\H,1.0319844426,-1.4221944066,0.2378513055\H,1.73952
 97908,0.1216563184,-0.3201361183\H,3.1884924236,-0.2573627892,3.329938
 0144\H,3.6070820711,-0.0320509369,1.618191252\H,2.9004299006,-1.576566
 3255,2.1754707855\\Version=ES64L-G09RevD.01\State=1-A\HF=-477.9245122\
 RMSD=9.012e-09\RMSF=8.386e-06\Dipole=0.4138513,-0.3433746,-0.4261997\Q
 uadrupole=0.5297932,-1.1950159,0.6652228,-0.1883681,1.726838,-0.100170
 6\PG=C01 [X(C2H6S1)]\\@


 The impersonal hand of government can
 never replace the helping hand of a neighbor.
                        -- Hubert H. Humphrey
 Job cpu time:       0 days  0 hours  0 minutes 33.3 seconds.
 File lengths (MBytes):  RWF=    132 Int=      0 D2E=      0 Chk=      2 Scr=      2
 Normal termination of Gaussian 09 at Thu Mar 20 15:35:25 2025.
 Link1:  Proceeding to internal job step number  2.
 ---------------------------------------------------------------------
 #N Geom=AllCheck Guess=TCheck SCRF=Check GenChk RM062X/6-31+G(d) Freq
 ---------------------------------------------------------------------
 1/10=4,29=7,30=1,38=1,40=1/1,3;
 2/12=2,40=1/2;
 3/5=1,6=6,7=11,11=2,14=-4,16=1,25=1,30=1,70=2,71=2,74=-55,116=1,140=1/1,2,3;
 4/5=101/1;
 5/5=2,98=1/2;
 8/6=4,10=90,11=11/1;
 11/6=1,8=1,9=11,15=111,16=1/1,2,10;
 10/6=1/2;
 6/7=2,8=2,9=2,10=2,18=1,28=1/1;
 7/8=1,10=1,25=1/1,2,3,16;
 1/10=4,30=1/3;
 99//99;
 Structure from the checkpoint file:  "/srv/scratch/z5358697/gauss/Gau-1692998.chk"
 ---------------------
 methylsulfanylmethane
 ---------------------
 Charge =  0 Multiplicity = 1
 Redundant internal coordinates found in file.
 C,0,0.9892482656,-0.3335302727,0.3324303735
 S,0,1.2258037925,0.1804131398,2.0544502656
 C,0,2.8907269666,-0.4907671471,2.3054852017
 H,0,-0.0002976535,0.0072024198,0.0204189201
 H,0,1.0319844426,-1.4221944066,0.2378513055
 H,0,1.7395297908,0.1216563184,-0.3201361183
 H,0,3.1884924236,-0.2573627892,3.3299380144
 H,0,3.6070820711,-0.0320509369,1.618191252
 H,0,2.9004299006,-1.5765663255,2.1754707855
 Recover connectivity data from disk.

 GradGradGradGradGradGradGradGradGradGradGradGradGradGradGradGradGradGrad
 Berny optimization.
 Initialization pass.
                           ----------------------------
                           !    Initial Parameters    !
                           ! (Angstroms and Degrees)  !
 --------------------------                            --------------------------
 ! Name  Definition              Value          Derivative Info.                !
 --------------------------------------------------------------------------------
 ! R1    R(1,2)                  1.8126         calculate D2E/DX2 analytically  !
 ! R2    R(1,4)                  1.0921         calculate D2E/DX2 analytically  !
 ! R3    R(1,5)                  1.0936         calculate D2E/DX2 analytically  !
 ! R4    R(1,6)                  1.0936         calculate D2E/DX2 analytically  !
 ! R5    R(2,3)                  1.8126         calculate D2E/DX2 analytically  !
 ! R6    R(3,7)                  1.0921         calculate D2E/DX2 analytically  !
 ! R7    R(3,8)                  1.0936         calculate D2E/DX2 analytically  !
 ! R8    R(3,9)                  1.0936         calculate D2E/DX2 analytically  !
 ! A1    A(2,1,4)              107.5307         calculate D2E/DX2 analytically  !
 ! A2    A(2,1,5)              111.0588         calculate D2E/DX2 analytically  !
 ! A3    A(2,1,6)              111.06           calculate D2E/DX2 analytically  !
 ! A4    A(4,1,5)              108.7412         calculate D2E/DX2 analytically  !
 ! A5    A(4,1,6)              108.7417         calculate D2E/DX2 analytically  !
 ! A6    A(5,1,6)              109.6293         calculate D2E/DX2 analytically  !
 ! A7    A(1,2,3)               98.4218         calculate D2E/DX2 analytically  !
 ! A8    A(2,3,7)              107.5312         calculate D2E/DX2 analytically  !
 ! A9    A(2,3,8)              111.0585         calculate D2E/DX2 analytically  !
 ! A10   A(2,3,9)              111.0592         calculate D2E/DX2 analytically  !
 ! A11   A(7,3,8)              108.7415         calculate D2E/DX2 analytically  !
 ! A12   A(7,3,9)              108.7419         calculate D2E/DX2 analytically  !
 ! A13   A(8,3,9)              109.6294         calculate D2E/DX2 analytically  !
 ! D1    D(4,1,2,3)           -179.9695         calculate D2E/DX2 analytically  !
 ! D2    D(5,1,2,3)             61.1695         calculate D2E/DX2 analytically  !
 ! D3    D(6,1,2,3)            -61.1071         calculate D2E/DX2 analytically  !
 ! D4    D(1,2,3,7)           -179.9769         calculate D2E/DX2 analytically  !
 ! D5    D(1,2,3,8)             61.1616         calculate D2E/DX2 analytically  !
 ! D6    D(1,2,3,9)            -61.1145         calculate D2E/DX2 analytically  !
 --------------------------------------------------------------------------------
 Trust Radius=3.00D-01 FncErr=1.00D-07 GrdErr=1.00D-07
 Number of steps in this run=      2 maximum allowed number of steps=      2.
 GradGradGradGradGradGradGradGradGradGradGradGradGradGradGradGradGradGrad

                          Input orientation:                          
 ---------------------------------------------------------------------
 Center     Atomic      Atomic             Coordinates (Angstroms)
 Number     Number       Type             X           Y           Z
 ---------------------------------------------------------------------
      1          6           0        0.989248   -0.333530    0.332430
      2         16           0        1.225804    0.180413    2.054450
      3          6           0        2.890727   -0.490767    2.305485
      4          1           0       -0.000298    0.007202    0.020419
      5          1           0        1.031984   -1.422194    0.237851
      6          1           0        1.739530    0.121656   -0.320136
      7          1           0        3.188492   -0.257363    3.329938
      8          1           0        3.607082   -0.032051    1.618191
      9          1           0        2.900430   -1.576566    2.175471
 ---------------------------------------------------------------------
                    Distance matrix (angstroms):
                    1          2          3          4          5
     1  C    0.000000
     2  S    1.812581   0.000000
     3  C    2.744684   1.812587   0.000000
     4  H    1.092086   2.381304   3.718538   0.000000
     5  H    1.093600   2.430216   2.932165   1.776530   0.000000
     6  H    1.093600   2.430232   2.931587   1.776535   1.787581
     7  H    3.718538   2.381315   1.092083   4.603400   3.945676
     8  H    2.932085   2.430216   1.093599   3.945581   3.235578
     9  H    2.931647   2.430225   1.093599   3.945477   2.696162
                    6          7          8          9
     6  H    0.000000
     7  H    3.945401   0.000000
     8  H    2.696014   1.776530   0.000000
     9  H    3.234146   1.776534   1.787581   0.000000
 Stoichiometry    C2H6S
 Framework group  C1[X(C2H6S)]
[...]
  Atom  AN      X      Y      Z        X      Y      Z        X      Y      Z
     1   6     0.02   0.03   0.00    -0.02  -0.03   0.00     0.00   0.00   0.07
     2  16     0.00   0.00   0.00     0.00   0.00   0.00     0.00   0.00   0.00
     3   6    -0.02   0.03   0.00    -0.02   0.03   0.00     0.00   0.00   0.07
     4   1    -0.29   0.19   0.00     0.29  -0.19   0.00     0.00   0.00   0.01
     5   1     0.02  -0.24  -0.36    -0.02   0.24   0.36     0.02  -0.29  -0.41
     6   1     0.02  -0.24   0.36    -0.02   0.24  -0.36    -0.02   0.29  -0.41
     7   1     0.28   0.18   0.00     0.29   0.19   0.00     0.00   0.00   0.01
     8   1    -0.02  -0.24   0.36    -0.02  -0.24   0.36     0.02   0.29  -0.41
     9   1    -0.02  -0.24  -0.36    -0.02  -0.24  -0.36    -0.02  -0.29  -0.40
                     19                     20                     21
                      A                      A                      A
 Frequencies --   3168.7652              3182.0199              3183.6399
 Red. masses --      1.1075                 1.1035                 1.1033
 Frc consts  --      6.5520                 6.5833                 6.5886
 IR Inten    --      0.0000                 8.1165                 2.5729
  Atom  AN      X      Y      Z        X      Y      Z        X      Y      Z
     1   6     0.00   0.00  -0.07    -0.04   0.05   0.00    -0.04   0.05   0.00
     2  16     0.00   0.00   0.00     0.00   0.00   0.00     0.00   0.00   0.00
     3   6     0.00   0.00   0.07     0.04   0.05   0.00    -0.04  -0.05   0.00
     4   1     0.00   0.00  -0.01     0.53  -0.33   0.00     0.52  -0.33   0.00
     5   1    -0.02   0.29   0.41     0.00  -0.13  -0.20     0.00  -0.13  -0.20
     6   1     0.02  -0.29   0.41     0.00  -0.13   0.20     0.00  -0.13   0.20
     7   1     0.00   0.00   0.01    -0.52  -0.33   0.00     0.53   0.33   0.00
     8   1     0.02   0.29  -0.41     0.00  -0.13   0.20     0.00   0.13  -0.20
     9   1    -0.02  -0.29  -0.41     0.00  -0.13  -0.20     0.00   0.13   0.20

 -------------------
 - Thermochemistry -
 -------------------
 Temperature   298.150 Kelvin.  Pressure   1.00000 Atm.
 Atom     1 has atomic number  6 and mass  12.00000
 Atom     2 has atomic number 16 and mass  31.97207
 Atom     3 has atomic number  6 and mass  12.00000
 Atom     4 has atomic number  1 and mass   1.00783
 Atom     5 has atomic number  1 and mass   1.00783
 Atom     6 has atomic number  1 and mass   1.00783
 Atom     7 has atomic number  1 and mass   1.00783
 Atom     8 has atomic number  1 and mass   1.00783
 Atom     9 has atomic number  1 and mass   1.00783
 Molecular mass:    62.01902 amu.
 Principal axes and moments of inertia in atomic units:
                           1         2         3
     Eigenvalues --   103.05278 237.20626 317.25816
           X            1.00000   0.00000   0.00000
           Y            0.00000   1.00000   0.00000
           Z            0.00000   0.00000   1.00000
 This molecule is an asymmetric top.
 Rotational symmetry number  1.
 Rotational temperatures (Kelvin)      0.84048     0.36514     0.27301
 Rotational constants (GHZ):          17.51279     7.60832     5.68856
 Zero-point vibrational energy     202105.8 (Joules/Mol)
                                   48.30444 (Kcal/Mol)
 Warning -- explicit consideration of   3 degrees of freedom as
           vibrations may cause significant error
 Vibrational temperatures:    272.49   282.05   379.82  1045.38  1122.16
          (Kelvin)           1338.27  1392.38  1442.54  1541.20  1982.84
                             2022.38  2147.78  2161.66  2166.72  2179.07
                             4433.97  4439.44  4547.37  4559.14  4578.21
                             4580.54
 
 Zero-point correction=                           0.076978 (Hartree/Particle)
 Thermal correction to Energy=                    0.081798
 Thermal correction to Enthalpy=                  0.082742
 Thermal correction to Gibbs Free Energy=         0.050017
 Sum of electronic and zero-point Energies=           -477.847534
 Sum of electronic and thermal Energies=              -477.842714
 Sum of electronic and thermal Enthalpies=            -477.841770
 Sum of electronic and thermal Free Energies=         -477.874495
 
                     E (Thermal)             CV                S
                      KCal/Mol        Cal/Mol-Kelvin    Cal/Mol-Kelvin
 Total                   51.329             14.932             68.875
 Electronic               0.000              0.000              0.000
 Translational            0.889              2.981             38.294
 Rotational               0.889              2.981             23.565
 Vibrational             49.552              8.971              7.016
 Vibration     1          0.633              1.854              2.234
 Vibration     2          0.636              1.845              2.170
 Vibration     3          0.671              1.739              1.635
                       Q            Log10(Q)             Ln(Q)
 Total Bot       0.985506D-23        -23.006341        -52.974058
 Total V=0       0.251777D+13         12.401016         28.554394
 Vib (Bot)       0.162844D-34        -34.788229        -80.102858
 Vib (Bot)    1  0.105699D+01          0.024070          0.055423
 Vib (Bot)    2  0.101868D+01          0.008037          0.018506
 Vib (Bot)    3  0.734306D+00         -0.134123         -0.308829
 Vib (V=0)       0.416033D+01          0.619128          1.425594
 Vib (V=0)    1  0.166928D+01          0.222530          0.512394
 Vib (V=0)    2  0.163477D+01          0.213457          0.491503
 Vib (V=0)    3  0.138837D+01          0.142506          0.328132
 Electronic      0.100000D+01          0.000000          0.000000
 Translational   0.191974D+08          7.283243         16.770286
 Rotational      0.315243D+05          4.498646         10.358515
 ***** Axes restored to original set *****
 -------------------------------------------------------------------
 Center     Atomic                   Forces (Hartrees/Bohr)
 Number     Number              X              Y              Z
 -------------------------------------------------------------------
      1        6          -0.000008965    0.000006464    0.000023193
      2       16           0.000009109   -0.000004660   -0.000006535
      3        6          -0.000023257    0.000014741    0.000003976
      4        1           0.000001417   -0.000000817   -0.000000923
      5        1           0.000005596   -0.000004127   -0.000007101
      6        1           0.000003661    0.000000218   -0.000005887
      7        1           0.000000719   -0.000000514    0.000000132
      8        1           0.000006935   -0.000004809   -0.000005219
      9        1           0.000004785   -0.000006496   -0.000001635
 -------------------------------------------------------------------
 Cartesian Forces:  Max     0.000023257 RMS     0.000008386
 FormGI is forming the generalized inverse of G from B-inverse, IUseBI=4.

 GradGradGradGradGradGradGradGradGradGradGradGradGradGradGradGradGradGrad
 Berny optimization.
 Internal  Forces:  Max     0.000011395 RMS     0.000005110
 Search for a local minimum.
 Step number   1 out of a maximum of    2
 All quantities printed in internal units (Hartrees-Bohrs-Radians)
 Second derivative matrix not updated -- analytic derivatives used.
 ITU=  0
     Eigenvalues ---    0.00357   0.00488   0.07975   0.08120   0.08279
     Eigenvalues ---    0.08387   0.11337   0.11634   0.12245   0.13263
     Eigenvalues ---    0.14512   0.14629   0.23194   0.24884   0.29216
     Eigenvalues ---    0.34516   0.34669   0.35026   0.35104   0.35695
     Eigenvalues ---    0.35706
 Angle between quadratic step and forces=  67.84 degrees.
 Linear search not attempted -- first point.
 Iteration  1 RMS(Cart)=  0.00047424 RMS(Int)=  0.00000011
 Iteration  2 RMS(Cart)=  0.00000012 RMS(Int)=  0.00000000
 Variable       Old X    -DE/DX   Delta X   Delta X   Delta X     New X
                                 (Linear)    (Quad)   (Total)
    R1        3.42528  -0.00001   0.00000  -0.00006  -0.00006   3.42522
    R2        2.06374   0.00000   0.00000   0.00000   0.00000   2.06374
    R3        2.06660   0.00000   0.00000   0.00002   0.00002   2.06662
    R4        2.06660   0.00001   0.00000   0.00002   0.00002   2.06663
    R5        3.42529  -0.00001   0.00000  -0.00007  -0.00007   3.42522
    R6        2.06374   0.00000   0.00000   0.00000   0.00000   2.06374
    R7        2.06660   0.00001   0.00000   0.00002   0.00002   2.06662
    R8        2.06660   0.00001   0.00000   0.00002   0.00002   2.06663
    A1        1.87676   0.00000   0.00000   0.00003   0.00003   1.87679
    A2        1.93834   0.00001   0.00000   0.00004   0.00004   1.93838
    A3        1.93836   0.00000   0.00000   0.00003   0.00003   1.93839
    A4        1.89789   0.00000   0.00000  -0.00001  -0.00001   1.89789
    A5        1.89790   0.00000   0.00000  -0.00001  -0.00001   1.89789
    A6        1.91339  -0.00001   0.00000  -0.00008  -0.00008   1.91331
    A7        1.71778   0.00000   0.00000   0.00001   0.00001   1.71779
    A8        1.87677   0.00000   0.00000   0.00002   0.00002   1.87679
    A9        1.93834   0.00001   0.00000   0.00005   0.00005   1.93839
   A10        1.93835   0.00000   0.00000   0.00004   0.00004   1.93839
   A11        1.89790   0.00000   0.00000  -0.00001  -0.00001   1.89789
   A12        1.89790   0.00000   0.00000  -0.00002  -0.00002   1.89789
   A13        1.91339  -0.00001   0.00000  -0.00009  -0.00009   1.91331
    D1       -3.14106   0.00000   0.00000  -0.00064  -0.00064   3.14149
    D2        1.06761  -0.00001   0.00000  -0.00067  -0.00067   1.06694
    D3       -1.06652   0.00000   0.00000  -0.00062  -0.00062  -1.06714
    D4       -3.14119   0.00000   0.00000  -0.00044  -0.00044   3.14156
    D5        1.06747   0.00000   0.00000  -0.00047  -0.00047   1.06700
    D6       -1.06665   0.00000   0.00000  -0.00042  -0.00042  -1.06707
         Item               Value     Threshold  Converged?
 Maximum Force            0.000011     0.000450     YES
 RMS     Force            0.000005     0.000300     YES
 Maximum Displacement     0.001141     0.001800     YES
 RMS     Displacement     0.000474     0.001200     YES
 Predicted change in Energy=-6.842946D-09
 Optimization completed.
    -- Stationary point found.
                           ----------------------------
                           !   Optimized Parameters   !
                           ! (Angstroms and Degrees)  !
 --------------------------                            --------------------------
 ! Name  Definition              Value          Derivative Info.                !
 --------------------------------------------------------------------------------
 ! R1    R(1,2)                  1.8126         -DE/DX =    0.0                 !
 ! R2    R(1,4)                  1.0921         -DE/DX =    0.0                 !
 ! R3    R(1,5)                  1.0936         -DE/DX =    0.0                 !
 ! R4    R(1,6)                  1.0936         -DE/DX =    0.0                 !
 ! R5    R(2,3)                  1.8126         -DE/DX =    0.0                 !
 ! R6    R(3,7)                  1.0921         -DE/DX =    0.0                 !
 ! R7    R(3,8)                  1.0936         -DE/DX =    0.0                 !
 ! R8    R(3,9)                  1.0936         -DE/DX =    0.0                 !
 ! A1    A(2,1,4)              107.5307         -DE/DX =    0.0                 !
 ! A2    A(2,1,5)              111.0588         -DE/DX =    0.0                 !
 ! A3    A(2,1,6)              111.06           -DE/DX =    0.0                 !
 ! A4    A(4,1,5)              108.7412         -DE/DX =    0.0                 !
 ! A5    A(4,1,6)              108.7417         -DE/DX =    0.0                 !
 ! A6    A(5,1,6)              109.6293         -DE/DX =    0.0                 !
 ! A7    A(1,2,3)               98.4218         -DE/DX =    0.0                 !
 ! A8    A(2,3,7)              107.5312         -DE/DX =    0.0                 !
 ! A9    A(2,3,8)              111.0585         -DE/DX =    0.0                 !
 ! A10   A(2,3,9)              111.0592         -DE/DX =    0.0                 !
 ! A11   A(7,3,8)              108.7415         -DE/DX =    0.0                 !
 ! A12   A(7,3,9)              108.7419         -DE/DX =    0.0                 !
 ! A13   A(8,3,9)              109.6294         -DE/DX =    0.0                 !
 ! D1    D(4,1,2,3)            180.0305         -DE/DX =    0.0                 !
 ! D2    D(5,1,2,3)             61.1695         -DE/DX =    0.0                 !
 ! D3    D(6,1,2,3)            -61.1071         -DE/DX =    0.0                 !
 ! D4    D(1,2,3,7)            180.0231         -DE/DX =    0.0                 !
 ! D5    D(1,2,3,8)             61.1616         -DE/DX =    0.0                 !
 ! D6    D(1,2,3,9)            -61.1145         -DE/DX =    0.0                 !
 --------------------------------------------------------------------------------
 GradGradGradGradGradGradGradGradGradGradGradGradGradGradGradGradGradGrad

 1\1\GINC-KATANA2\Freq\RM062X\6-31+G(d)\C2H6S1\Z5358697\20-Mar-2025\0\\
 #N Geom=AllCheck Guess=TCheck SCRF=Check GenChk RM062X/6-31+G(d) Freq\
 \methylsulfanylmethane\\0,1\C,0.9892482656,-0.3335302727,0.3324303735\
 S,1.2258037925,0.1804131398,2.0544502656\C,2.8907269666,-0.4907671471,
 2.3054852017\H,-0.0002976535,0.0072024198,0.0204189201\H,1.0319844426,
 -1.4221944066,0.2378513055\H,1.7395297908,0.1216563184,-0.3201361183\H
 ,3.1884924236,-0.2573627892,3.3299380144\H,3.6070820711,-0.0320509369,
 1.618191252\H,2.9004299006,-1.5765663255,2.1754707855\\Version=ES64L-G
 09RevD.01\State=1-A\HF=-477.9245122\RMSD=4.046e-09\RMSF=8.386e-06\Zero
 Point=0.076978\Thermal=0.0817981\Dipole=0.413851,-0.3433746,-0.4262001
 \DipoleDeriv=-0.031401,0.0810526,0.08513,0.0376129,0.0637854,0.0069946
 ,-0.0350754,0.0620197,0.2055274,-0.0734123,-0.0810102,-0.0300005,-0.08
 09664,-0.1633315,0.0728906,-0.0300424,0.0728246,-0.0631484,0.1972297,-
 0.0666674,-0.0342074,-0.0232452,0.0794341,-0.0266985,0.0860103,-0.0816
 911,-0.0387561,-0.0370631,0.0398749,-0.0687418,0.0429496,0.0849995,0.0
 013585,-0.0602299,-0.0025427,0.0208643,0.087006,0.02124,0.0061534,-0.0
 05166,-0.1114717,-0.080732,-0.0274038,-0.0380557,-0.0539291,-0.0054478
 ,-0.0538346,0.0949608,-0.0612071,0.0427366,-0.0018622,0.0350475,-0.001
 7224,-0.1156617,0.02669,0.0138116,-0.0599471,0.010737,0.0894487,-0.027
 2642,-0.068458,-0.0233666,-0.0473359,-0.1198387,0.0094842,0.0360268,0.
 0044067,0.0327775,0.0613956,0.094958,0.049295,0.0086692,-0.0437627,0.0
 360488,-0.0293742,0.0748785,-0.1183786,-0.0060825,0.0051936,-0.0367609
 ,0.0837703\Polar=44.9478756,-1.9977305,38.4319064,4.3532642,1.0332091,
 45.516812\PG=C01 [X(C2H6S1)]\NImag=0\\0.56892866,-0.01560459,0.5476441
 9,-0.02700227,-0.04328172,0.40210799,-0.04579578,-0.00147506,-0.019423
 94,0.23045973,0.01048749,-0.05057272,-0.03347306,-0.07427274,0.1012871
 1,0.01369080,-0.04863177,-0.15089198,0.02782905,0.05851378,0.24331064,
 -0.00730464,0.00383630,-0.00186858,-0.14335204,0.04302801,-0.01980155,
 0.41220720,-0.00673329,0.00454344,-0.00299046,0.05498868,-0.05725881,0
 .00437054,0.05589862,0.53688194,-0.03112949,0.01040281,-0.00811807,0.0
 1331581,-0.01078449,-0.04664582,-0.02761768,0.01750199,0.56959652,-0.2
 8133234,0.08160750,-0.07034240,-0.00110301,-0.00001455,-0.00024601,0.0
 0020836,-0.00055385,-0.00081060,0.29932622,0.08082008,-0.07557073,0.02
 556000,-0.00836314,0.00217910,-0.00196862,-0.00032386,-0.00105982,-0.0
 0234567,-0.08826933,0.07712700,-0.07252748,0.02656229,-0.06622139,-0.0
 2334245,0.00861087,-0.00669877,-0.00017142,-0.00263217,-0.00787272,0.0
 7703085,-0.02569135,0.07251892,-0.05103064,0.00868171,0.00348891,0.000
 26133,-0.00282103,-0.00391353,0.00071761,-0.00208414,0.00062320,0.0005
 3188,0.03016770,0.00302781,0.04757952,0.01073948,-0.32533352,-0.014928
 37,0.00117144,-0.00214497,-0.00451113,-0.00005079,0.00173310,0.0007048
 9,-0.00060693,-0.00801243,-0.00022433,-0.01146759,0.34621802,0.0014404
 7,-0.02213173,-0.04276217,-0.00034652,-0.02839816,-0.01543789,0.002237
 27,-0.00003224,0.00231538,0.00092621,0.00992711,0.00082191,-0.00161530
 ,0.02009842,0.05199551,-0.18073839,-0.07980469,0.11144574,0.00378513,0
 .00232073,-0.00696444,0.00266223,0.00083518,-0.00073149,-0.01828870,-0
 .01346337,0.01765545,0.00184549,0.00157319,-0.00199813,0.19084722,-0.0
 8078639,-0.10042914,0.06956433,0.00693319,0.00485700,-0.00963579,0.000
 24969,-0.00052055,0.00086461,0.00767218,0.00445721,-0.00722437,-0.0232
 7189,-0.01193693,0.01904250,0.08934008,0.10391206,0.11647009,0.0754041
 3,-0.13793525,0.01327674,0.00334051,-0.02596802,0.00166345,-0.00023384
 ,0.00262880,-0.00691275,-0.00515379,0.00717239,-0.00198000,-0.00051076
 ,0.00285493,-0.12089122,-0.07309362,0.15101045,-0.00738634,0.00314411,
 -0.00020346,-0.00623804,-0.00601242,-0.02336924,-0.06448122,-0.0182046
 7,-0.07162776,0.00012558,-0.00073631,-0.00245581,0.00005023,0.00003496
 ,0.00054951,0.00013798,0.00028990,0.00023230,0.07021713,0.00290931,-0.
 00158182,0.00031139,0.00232779,0.00181973,0.01059599,-0.01741680,-0.06
 056620,-0.05754995,0.00019117,0.00072844,0.00099204,0.00017218,0.00022
 756,0.00005773,-0.00004083,-0.00010033,-0.00031705,0.01635838,0.061265
 08,-0.00083848,0.00060293,0.00024399,-0.00026562,0.00002627,-0.0012038
 1,-0.06944229,-0.05855149,-0.29808152,0.00010908,-0.00018126,0.0000941
 7,0.00014948,0.00007828,0.00015661,0.00009426,-0.00009182,0.00039666,0
 .07607545,0.06317325,0.31749345,0.00252203,-0.00011059,0.00162976,-0.0
 2545382,-0.00178961,0.01139278,-0.15889383,-0.08400327,0.11702579,0.00
 041292,0.00025552,0.00024016,-0.00024158,-0.00018973,-0.00033834,0.000
 00692,-0.00025274,-0.00152023,0.00763966,0.00487497,-0.00607698,0.1726
 1777,-0.00102602,-0.00033729,-0.00066720,0.01297599,0.00490657,-0.0073
 9549,-0.07780317,-0.10065533,0.07425266,0.00005356,-0.00010664,-0.0003
 2581,-0.00000465,-0.00029425,0.00019836,-0.00070480,0.00005203,0.00035
 248,0.00560610,0.00292820,-0.00514350,0.08168557,0.10549759,-0.0008859
 9,-0.00101516,0.00258191,-0.00729029,-0.00172434,0.00322421,0.11242049
 ,0.07343740,-0.15957620,0.00011311,0.00002404,0.00012824,0.00008506,0.
 00003792,-0.00024872,0.00130976,0.00058713,0.00007518,0.02023176,0.013
 87937,-0.01722629,-0.12216663,-0.08268813,0.16767697,0.00213745,-0.000
 27469,0.00227624,-0.01256350,0.02907411,0.00138215,-0.04176367,-0.0001
 4327,0.00095221,0.00011908,-0.00008729,0.00054290,0.00028616,-0.001204
 03,-0.00085518,-0.00025789,-0.00017402,-0.00033838,-0.00006497,-0.0093
 7618,0.00019511,0.00138992,-0.02078258,-0.00381725,0.05071741,-0.00080
 607,0.00163759,-0.00009491,0.00571385,-0.00507301,-0.00133751,-0.00741
 801,-0.32309776,-0.03304686,-0.00007975,0.00025787,-0.00006717,0.00062
 771,-0.00045659,0.00123801,-0.00005550,-0.00029135,0.00021193,-0.00048
 005,-0.00472066,0.00008735,-0.00047013,-0.01199089,-0.00253824,0.00296
 796,0.34373480,0.00078237,0.00208823,0.00099497,-0.00375277,0.00388861
 ,0.00031144,0.00258030,-0.03086973,-0.05424636,0.00013251,-0.00017047,
 0.00005725,0.00013438,-0.00074492,0.00030444,0.00008007,-0.00001296,-0
 .00023515,0.00056725,-0.03114278,-0.00187326,-0.00018630,0.02141663,0.
 00336470,-0.00033780,0.03554739,0.05132197\\0.00000896,-0.00000646,-0.
 00002319,-0.00000911,0.00000466,0.00000654,0.00002326,-0.00001474,-0.0
 0000398,-0.00000142,0.00000082,0.00000092,-0.00000560,0.00000413,0.000
 00710,-0.00000366,-0.00000022,0.00000589,-0.00000072,0.00000051,-0.000
 00013,-0.00000694,0.00000481,0.00000522,-0.00000478,0.00000650,0.00000
 163\\\@


 The most important thing in communication is to hear what isn't being said.
 -- Peter F. Drucker
 Job cpu time:       0 days  0 hours  0 minutes 33.8 seconds.
 File lengths (MBytes):  RWF=    132 Int=      0 D2E=      0 Chk=      2 Scr=      2
 Normal termination of Gaussian 09 at Thu Mar 20 15:36:04 2025.
