 Entering Gaussian System, Link 0=g09
 Initial command:
 /apps/z_install_tree/linux-rocky8-ivybridge/gcc-12.2.0/gaussian-09-D.01-wczn3gur5lpur3omlkzwa2l5ecyxp5ef/g09/l1.exe "/srv/scratch/z5358697/gauss/Gau-2591381.inp" -scrdir="/srv/scratch/z5358697/gauss/"
 Entering Link 1 = /apps/z_install_tree/linux-rocky8-ivybridge/gcc-12.2.0/gaussian-09-D.01-wczn3gur5lpur3omlkzwa2l5ecyxp5ef/g09/l1.exe PID=   2591383.
  
 Copyright (c) 1988,1990,1992,1993,1995,1998,2003,2009,2013,
            Gaussian, Inc.  All Rights Reserved.
  
 This is part of the Gaussian(R) 09 program.  It is based on
 the Gaussian(R) 03 system (copyright 2003, Gaussian, Inc.),
 the Gaussian(R) 98 system (copyright 1998, Gaussian, Inc.),
 the Gaussian(R) 94 system (copyright 1995, Gaussian, Inc.),
 the Gaussian 92(TM) system (copyright 1992, Gaussian, Inc.),
 the Gaussian 90(TM) system (copyright 1990, Gaussian, Inc.),
 the Gaussian 88(TM) system (copyright 1988, Gaussian, Inc.),
 the Gaussian 86(TM) system (copyright 1986, Carnegie Mellon
 University), and the Gaussian 82(TM) system (copyright 1983,
 Carnegie Mellon University). Gaussian is a federally registered
 trademark of Gaussian, Inc.
  
 This software contains proprietary and confidential information,
 including trade secrets, belonging to Gaussian, Inc.
  
 This software is provided under written license and may be
 used, copied, transmitted, or stored only in accord with that
 written license.
  
 The following legend is applicable only to US Government
 contracts under FAR:
  
                    RESTRICTED RIGHTS LEGEND
  
 Use, reproduction and disclosure by the US Government is
 subject to restrictions as set forth in subparagraphs (a)
 and (c) of the Commercial Computer Software - Restricted
 Rights clause in FAR 52.227-19.
  
 Gaussian, Inc.
 340 Quinnipiac St., Bldg. 40, Wallingford CT 06492
  
  
 ---------------------------------------------------------------
 Warning -- This program may not be used in any manner that
 competes with the business of Gaussian, Inc. or will provide
 assistance to any competitor of Gaussian, Inc.  The licensee
 of this program is prohibited from giving any competitor of
 Gaussian, Inc. access to this program.  By using this program,
 the user acknowledges that Gaussian, Inc. is engaged in the
 business of creating and licensing software in the field of
 computational chemistry and represents and warrants to the
 licensee that it is not a competitor of Gaussian, Inc. and that
 it will not use this program in any manner prohibited above.
 ---------------------------------------------------------------
  

 Cite this work as:
 Gaussian 09, Revision D.01,
 M. J. Frisch, G. W. Trucks, H. B. Schlegel, G. E. Scuseria, 
 M. A. Robb, J. R. Cheeseman, G. Scalmani, V. Barone, B. Mennucci, 
 G. A. Petersson, H. Nakatsuji, M. Caricato, X. Li, H. P. Hratchian, 
 A. F. Izmaylov, J. Bloino, G. Zheng, J. L. Sonnenberg, M. Hada, 
 M. Ehara, K. Toyota, R. Fukuda, J. Hasegawa, M. Ishida, T. Nakajima, 
 Y. Honda, O. Kitao, H. Nakai, T. Vreven, J. A. Montgomery, Jr., 
 J. E. Peralta, F. Ogliaro, M. Bearpark, J. J. Heyd, E. Brothers, 
 K. N. Kudin, V. N. Staroverov, T. Keith, R. Kobayashi, J. Normand, 
 K. Raghavachari, A. Rendell, J. C. Burant, S. S. Iyengar, J. Tomasi, 
 M. Cossi, N. Rega, J. M. Millam, M. Klene, J. E. Knox, J. B. Cross, 
 V. Bakken, C. Adamo, J. Jaramillo, R. Gomperts, R. E. Stratmann, 
 O. Yazyev, A. J. Austin, R. Cammi, C. Pomelli, J. W. Ochterski, 
 R. L. Martin, K. Morokuma, V. G. Zakrzewski, G. A. Voth, 
 P. Salvador, J. J. Dannenberg, S. Dapprich, A. D. Daniels, 
 O. Farkas, J. B. Foresman, J. V. Ortiz, J. Cioslowski, 
 and D. J. Fox, Gaussian, Inc., Wallingford CT, 2013.
 
 ******************************************
 Gaussian 09:  ES64L-G09RevD.01 24-Apr-2013
                21-Mar-2025 
 ******************************************
 ---------------------------------
 #m062X/6-31+G(d) OPT Freq=noraman
 ---------------------------------
 1/14=-1,18=20,19=15,26=3,38=1/1,3;
 2/9=110,12=2,17=6,18=5,40=1/2;
 3/5=1,6=6,7=11,11=2,16=1,25=1,30=1,71=1,74=-55/1,2,3;
 4//1;
 5/5=2,38=5/2;
 6/7=2,8=2,9=2,10=2,28=1/1;
 7//1,2,3,16;
 1/14=-1,18=20,19=15,26=3/3(2);
 2/9=110/2;
 99//99;
 2/9=110/2;
 3/5=1,6=6,7=11,11=2,16=1,25=1,30=1,71=1,74=-55/1,2,3;
 4/5=5,16=3,69=1/1;
 5/5=2,38=5/2;
 7//1,2,3,16;
 1/14=-1,18=20,19=15,26=3/3(-5);
 2/9=110/2;
 6/7=2,8=2,9=2,10=2,19=2,28=1/1;
 99/9=1/99;
 ------------------
 3,4-dichlorophenol
 ------------------
 Symbolic Z-matrix:
 Charge =  0 Multiplicity = 1
 C                     1.8851   -1.0363   -0.1124 
 C                     2.921    -1.6309    0.6081 
 C                     2.8783   -1.652     2.0022 
 C                     1.7997   -1.0786    2.6757 
 C                     0.7638   -0.4841    1.9551 
 C                     0.8066   -0.463     0.561 
 O                    -0.2037    0.1173   -0.1425 
 Cl                    1.6891   -1.0733    4.4008 
 Cl                    4.1918   -2.4028    2.8381 
 H                     1.924    -1.0229   -1.1984 
 H                     3.7541   -2.0727    0.0674 
 H                    -0.0819   -0.034     2.4702 
 H                    -0.0307    0.0523   -1.0953 
 

 GradGradGradGradGradGradGradGradGradGradGradGradGradGradGradGradGradGrad
 Berny optimization.
 Initialization pass.
                           ----------------------------
                           !    Initial Parameters    !
                           ! (Angstroms and Degrees)  !
 --------------------------                            --------------------------
 ! Name  Definition              Value          Derivative Info.                !
 --------------------------------------------------------------------------------
 ! R1    R(1,2)                  1.3949         estimate D2E/DX2                !
 ! R2    R(1,6)                  1.3947         estimate D2E/DX2                !
 ! R3    R(1,10)                 1.0868         estimate D2E/DX2                !
 ! R4    R(2,3)                  1.3949         estimate D2E/DX2                !
 ! R5    R(2,11)                 1.087          estimate D2E/DX2                !
 ! R6    R(3,4)                  1.3949         estimate D2E/DX2                !
 ! R7    R(3,9)                  1.7285         estimate D2E/DX2                !
 ! R8    R(4,5)                  1.3949         estimate D2E/DX2                !
 ! R9    R(4,8)                  1.7286         estimate D2E/DX2                !
 ! R10   R(5,6)                  1.3949         estimate D2E/DX2                !
 ! R11   R(5,12)                 1.0877         estimate D2E/DX2                !
 ! R12   R(6,7)                  1.361          estimate D2E/DX2                !
 ! R13   R(7,13)                 0.9706         estimate D2E/DX2                !
 ! A1    A(2,1,6)              120.0052         estimate D2E/DX2                !
 ! A2    A(2,1,10)             119.6583         estimate D2E/DX2                !
 ! A3    A(6,1,10)             120.3365         estimate D2E/DX2                !
 ! A4    A(1,2,3)              119.9958         estimate D2E/DX2                !
 ! A5    A(1,2,11)             119.0441         estimate D2E/DX2                !
 ! A6    A(3,2,11)             120.9601         estimate D2E/DX2                !
 ! A7    A(2,3,4)              119.9999         estimate D2E/DX2                !
 ! A8    A(2,3,9)              117.8155         estimate D2E/DX2                !
 ! A9    A(4,3,9)              122.1847         estimate D2E/DX2                !
 ! A10   A(3,4,5)              119.9999         estimate D2E/DX2                !
 ! A11   A(3,4,8)              122.1792         estimate D2E/DX2                !
 ! A12   A(5,4,8)              117.8209         estimate D2E/DX2                !
 ! A13   A(4,5,6)              119.9967         estimate D2E/DX2                !
 ! A14   A(4,5,12)             120.6049         estimate D2E/DX2                !
 ! A15   A(6,5,12)             119.3985         estimate D2E/DX2                !
 ! A16   A(1,6,5)              120.0026         estimate D2E/DX2                !
 ! A17   A(1,6,7)              119.98           estimate D2E/DX2                !
 ! A18   A(5,6,7)              120.0174         estimate D2E/DX2                !
 ! A19   A(6,7,13)             110.2774         estimate D2E/DX2                !
 ! D1    D(6,1,2,3)             -0.0063         estimate D2E/DX2                !
 ! D2    D(6,1,2,11)          -179.9793         estimate D2E/DX2                !
 ! D3    D(10,1,2,3)           179.9961         estimate D2E/DX2                !
 ! D4    D(10,1,2,11)            0.0231         estimate D2E/DX2                !
 ! D5    D(2,1,6,5)              0.004          estimate D2E/DX2                !
 ! D6    D(2,1,6,7)            179.9843         estimate D2E/DX2                !
 ! D7    D(10,1,6,5)          -179.9984         estimate D2E/DX2                !
 ! D8    D(10,1,6,7)            -0.0181         estimate D2E/DX2                !
 ! D9    D(1,2,3,4)              0.0043         estimate D2E/DX2                !
 ! D10   D(1,2,3,9)           -179.9786         estimate D2E/DX2                !
 ! D11   D(11,2,3,4)           179.9768         estimate D2E/DX2                !
 ! D12   D(11,2,3,9)            -0.0061         estimate D2E/DX2                !
 ! D13   D(2,3,4,5)              0.0            estimate D2E/DX2                !
 ! D14   D(2,3,4,8)            179.9845         estimate D2E/DX2                !
 ! D15   D(9,3,4,5)            179.9821         estimate D2E/DX2                !
 ! D16   D(9,3,4,8)             -0.0334         estimate D2E/DX2                !
 ! D17   D(3,4,5,6)             -0.0023         estimate D2E/DX2                !
 ! D18   D(3,4,5,12)          -179.9948         estimate D2E/DX2                !
 ! D19   D(8,4,5,6)           -179.9874         estimate D2E/DX2                !
 ! D20   D(8,4,5,12)             0.0201         estimate D2E/DX2                !
 ! D21   D(4,5,6,1)              0.0003         estimate D2E/DX2                !
 ! D22   D(4,5,6,7)           -179.98           estimate D2E/DX2                !
 ! D23   D(12,5,6,1)           179.9929         estimate D2E/DX2                !
 ! D24   D(12,5,6,7)             0.0125         estimate D2E/DX2                !
 ! D25   D(1,6,7,13)             0.0233         estimate D2E/DX2                !
 ! D26   D(5,6,7,13)          -179.9964         estimate D2E/DX2                !
 --------------------------------------------------------------------------------
 Trust Radius=3.00D-01 FncErr=1.00D-07 GrdErr=1.00D-06
 Number of steps in this run=     68 maximum allowed number of steps=    100.
 GradGradGradGradGradGradGradGradGradGradGradGradGradGradGradGradGradGrad

                          Input orientation:                          
 ---------------------------------------------------------------------
 Center     Atomic      Atomic             Coordinates (Angstroms)
 Number     Number       Type             X           Y           Z
 ---------------------------------------------------------------------
      1          6           0        1.885100   -1.036300   -0.112400
      2          6           0        2.921000   -1.630900    0.608100
      3          6           0        2.878300   -1.652000    2.002200
      4          6           0        1.799700   -1.078600    2.675700
      5          6           0        0.763800   -0.484100    1.955100
      6          6           0        0.806600   -0.463000    0.561000
      7          8           0       -0.203700    0.117300   -0.142500
      8         17           0        1.689100   -1.073300    4.400800
      9         17           0        4.191800   -2.402800    2.838100
     10          1           0        1.924000   -1.022900   -1.198400
     11          1           0        3.754100   -2.072700    0.067400
     12          1           0       -0.081900   -0.034000    2.470200
     13          1           0       -0.030700    0.052300   -1.095300
 ---------------------------------------------------------------------
                    Distance matrix (angstroms):
                    1          2          3          4          5
     1  C    0.000000
     2  C    1.394904   0.000000
     3  C    2.416002   1.394913   0.000000
     4  C    2.789728   2.416054   1.394908   0.000000
     5  C    2.415946   2.789816   2.416054   1.394913   0.000000
     6  C    1.394741   2.415967   2.789753   2.416023   1.394916
     7  O    2.386375   3.658327   4.150769   3.658694   2.386978
     8  Cl   4.517605   4.026545   2.739046   1.728650   2.680445
     9  Cl   3.986683   2.680235   1.728500   2.738982   4.026448
    10  H    1.086779   2.151073   3.398573   3.876494   3.403077
    11  H    2.144671   1.087014   2.165055   3.407513   3.876720
    12  H    3.397575   3.877488   3.405838   2.161906   1.087716
    13  H    2.412764   3.800956   4.578365   4.341629   3.197483
                    6          7          8          9         10
     6  C    0.000000
     7  O    1.361017   0.000000
     8  Cl   3.986896   5.063773   0.000000
     9  Cl   4.517476   5.878376   3.236218   0.000000
    10  H    2.158138   2.634784   5.604352   4.831188   0.000000
    11  H    3.394485   4.528172   4.903201   2.824416   2.460406
    12  H    2.149074   2.619910   2.818475   4.900110   4.296532
    13  H    1.926119   0.970557   5.867862   6.271256   2.233279
                   11         12         13
    11  H    0.000000
    12  H    4.964337   0.000000
    13  H    4.493574   3.566912   0.000000
 Stoichiometry    C6H4Cl2O
 Framework group  C1[X(C6H4Cl2O)]
 Deg. of freedom    33
 Full point group                 C1      NOp   1
 Largest Abelian subgroup         C1      NOp   1
 Largest concise Abelian subgroup C1      NOp   1
                         Standard orientation:                         
 ---------------------------------------------------------------------
 Center     Atomic      Atomic             Coordinates (Angstroms)
 Number     Number       Type             X           Y           Z
 ---------------------------------------------------------------------
      1          6           0       -1.761582   -1.284729    0.000245
      2          6           0       -0.421772   -1.672889    0.000357
      3          6           0        0.584225   -0.706579    0.000174
      4          6           0        0.250373    0.647788   -0.000030
      5          6           0       -1.089476    1.035846   -0.000052
      6          6           0       -2.095414    0.069471    0.000082
      7          8           0       -3.402841    0.447625   -0.000350
      8         17           0        1.450618    1.891831    0.000133
      9         17           0        2.224953   -1.250384   -0.000245
     10          1           0       -2.540907   -2.042186    0.000324
     11          1           0       -0.179333   -2.732522    0.000139
     12          1           0       -1.360942    2.089142   -0.000296
     13          1           0       -3.978912   -0.333479   -0.000131
 ---------------------------------------------------------------------
 Rotational constants (GHZ):      1.8279573      0.8918555      0.5994066
 Standard basis: 6-31+G(d) (6D, 7F)
 There are   187 symmetry adapted cartesian basis functions of A   symmetry.
 There are   187 symmetry adapted basis functions of A   symmetry.
   187 basis functions,   352 primitive gaussians,   187 cartesian basis functions
    41 alpha electrons       41 beta electrons
       nuclear repulsion energy       561.1561747011 Hartrees.
 NAtoms=   13 NActive=   13 NUniq=   13 SFac= 1.00D+00 NAtFMM=   60 NAOKFM=F Big=F
 Integral buffers will be    131072 words long.
 Raffenetti 2 integral format.
 Two-electron integral symmetry is turned on.
 One-electron integrals computed using PRISM.
 NBasis=   187 RedAO= T EigKep=  1.88D-06  NBF=   187
 NBsUse=   187 1.00D-06 EigRej= -1.00D+00 NBFU=   187
 ExpMin= 4.38D-02 ExpMax= 2.52D+04 ExpMxC= 3.78D+03 IAcc=2 IRadAn=         4 AccDes= 0.00D+00
 Harris functional with IExCor= 1009 and IRadAn=       4 diagonalized for initial guess.
 HarFok:  IExCor= 1009 AccDes= 0.00D+00 IRadAn=         4 IDoV= 1 UseB2=F ITyADJ=14
 ICtDFT=  3500011 ScaDFX=  1.000000  1.000000  1.000000  1.000000
 FoFCou: FMM=F IPFlag=           0 FMFlag=      100000 FMFlg1=           0
         NFxFlg=           0 DoJE=T BraDBF=F KetDBF=T FulRan=T
         wScrn=  0.000000 ICntrl=     500 IOpCl=  0 I1Cent=   200000004 NGrid=           0
         NMat0=    1 NMatS0=      1 NMatT0=    0 NMatD0=    1 NMtDS0=    0 NMtDT0=    0
 Petite list used in FoFCou.
 Requested convergence on RMS density matrix=1.00D-08 within 128 cycles.
 Requested convergence on MAX density matrix=1.00D-06.
 Requested convergence on             energy=1.00D-06.
 No special actions if energy rises.
 SCF Done:  E(RM062X) =  -1226.47527447     A.U. after   15 cycles
            NFock= 15  Conv=0.46D-08     -V/T= 2.0042

 **********************************************************************

            Population analysis using the SCF density.

 **********************************************************************

 Orbital symmetries:
       Occupied  (A) (A) (A) (A) (A) (A) (A) (A) (A) (A) (A) (A)
                 (A) (A) (A) (A) (A) (A) (A) (A) (A) (A) (A) (A)
                 (A) (A) (A) (A) (A) (A) (A) (A) (A) (A) (A) (A)
                 (A) (A) (A) (A) (A)
       Virtual   (A) (A) (A) (A) (A) (A) (A) (A) (A) (A) (A) (A)
                 (A) (A) (A) (A) (A) (A) (A) (A) (A) (A) (A) (A)
                 (A) (A) (A) (A) (A) (A) (A) (A) (A) (A) (A) (A)
                 (A) (A) (A) (A) (A) (A) (A) (A) (A) (A) (A) (A)
                 (A) (A) (A) (A) (A) (A) (A) (A) (A) (A) (A) (A)
                 (A) (A) (A) (A) (A) (A) (A) (A) (A) (A) (A) (A)
                 (A) (A) (A) (A) (A) (A) (A) (A) (A) (A) (A) (A)
                 (A) (A) (A) (A) (A) (A) (A) (A) (A) (A) (A) (A)
                 (A) (A) (A) (A) (A) (A) (A) (A) (A) (A) (A) (A)
                 (A) (A) (A) (A) (A) (A) (A) (A) (A) (A) (A) (A)
                 (A) (A) (A) (A) (A) (A) (A) (A) (A) (A) (A) (A)
                 (A) (A) (A) (A) (A) (A) (A) (A) (A) (A) (A) (A)
                 (A) (A)
 The electronic state is 1-A.
 Alpha  occ. eigenvalues -- -102.68349-102.67938 -19.69743 -10.64293 -10.64009
 Alpha  occ. eigenvalues --  -10.63043 -10.58873 -10.58063 -10.58045  -9.82998
 Alpha  occ. eigenvalues --   -9.82594  -7.55421  -7.55015  -7.54734  -7.54704
 Alpha  occ. eigenvalues --   -7.54326  -7.54309  -1.20890  -1.03038  -0.96754
 Alpha  occ. eigenvalues --   -0.94697  -0.86154  -0.83144  -0.72978  -0.71392
 Alpha  occ. eigenvalues --   -0.63767  -0.59387  -0.57413  -0.53760  -0.52082
 Alpha  occ. eigenvalues --   -0.51813  -0.49905  -0.47852  -0.46482  -0.43724
 Alpha  occ. eigenvalues --   -0.42050  -0.39608  -0.38797  -0.37826  -0.32122
 Alpha  occ. eigenvalues --   -0.29079
 Alpha virt. eigenvalues --   -0.00856   0.00076   0.01111   0.01915   0.02130
 Alpha virt. eigenvalues --    0.03309   0.04501   0.06237   0.06459   0.06665
 Alpha virt. eigenvalues --    0.07528   0.08424   0.09459   0.09462   0.10088
 Alpha virt. eigenvalues --    0.11805   0.11818   0.12852   0.13178   0.13630
 Alpha virt. eigenvalues --    0.14477   0.15347   0.15837   0.15867   0.16815
 Alpha virt. eigenvalues --    0.18838   0.19146   0.19661   0.20737   0.20780
 Alpha virt. eigenvalues --    0.21315   0.21523   0.22263   0.23194   0.23332
 Alpha virt. eigenvalues --    0.25019   0.25825   0.26346   0.28100   0.28557
 Alpha virt. eigenvalues --    0.28860   0.31047   0.31124   0.32611   0.34268
 Alpha virt. eigenvalues --    0.36131   0.36809   0.38789   0.40330   0.41504
 Alpha virt. eigenvalues --    0.54474   0.57511   0.58709   0.61862   0.62990
 Alpha virt. eigenvalues --    0.64874   0.66997   0.68158   0.68484   0.70705
 Alpha virt. eigenvalues --    0.73175   0.73474   0.74469   0.74949   0.75767
 Alpha virt. eigenvalues --    0.76705   0.78396   0.79529   0.82621   0.84855
 Alpha virt. eigenvalues --    0.85613   0.86419   0.91203   0.92967   0.93056
 Alpha virt. eigenvalues --    0.93687   0.95901   0.96797   0.97451   0.99273
 Alpha virt. eigenvalues --    1.04167   1.05210   1.06722   1.06800   1.09696
 Alpha virt. eigenvalues --    1.12032   1.14046   1.15466   1.19287   1.19449
 Alpha virt. eigenvalues --    1.23623   1.24877   1.25280   1.26030   1.30964
 Alpha virt. eigenvalues --    1.32679   1.35519   1.40812   1.43902   1.46837
 Alpha virt. eigenvalues --    1.47636   1.50255   1.51088   1.54071   1.57762
 Alpha virt. eigenvalues --    1.58991   1.72758   1.76602   1.81440   1.82678
 Alpha virt. eigenvalues --    1.94472   1.95921   1.97442   1.99955   2.00231
 Alpha virt. eigenvalues --    2.04941   2.12016   2.15635   2.16051   2.17740
 Alpha virt. eigenvalues --    2.24947   2.29640   2.30497   2.30661   2.50945
 Alpha virt. eigenvalues --    2.51793   2.55866   2.60201   2.63577   2.68831
 Alpha virt. eigenvalues --    2.72448   2.74594   2.83597   2.84660   3.04974
 Alpha virt. eigenvalues --    3.10721   3.36818   4.17233   4.24024   4.26468
 Alpha virt. eigenvalues --    4.31762   4.37061   4.42377   4.45161   4.50953
 Alpha virt. eigenvalues --    4.76814
          Condensed to atoms (all electrons):
               1          2          3          4          5          6
     1  C    6.576225  -0.025381  -0.008920  -0.322703  -1.115185   0.467658
     2  C   -0.025381   7.535945  -0.570816   0.319411  -1.249140   0.551374
     3  C   -0.008920  -0.570816   8.872134  -1.812994   0.328096  -0.552897
     4  C   -0.322703   0.319411  -1.812994   8.487835  -0.918129   0.553037
     5  C   -1.115185  -1.249140   0.328096  -0.918129  10.508492  -1.940232
     6  C    0.467658   0.551374  -0.552897   0.553037  -1.940232   6.960680
     7  O   -0.025187   0.061950   0.006920   0.065899  -0.177012   0.049764
     8  Cl   0.006645   0.032088  -0.250084   0.093506  -0.026924  -0.000816
     9  Cl   0.080598  -0.245544   0.130716  -0.222883   0.134866  -0.059025
    10  H    0.329764  -0.007020   0.044464  -0.003705  -0.003941  -0.053132
    11  H    0.014619   0.218446   0.033551   0.045880   0.009049  -0.011613
    12  H    0.000510  -0.004400   0.047779   0.004988   0.277516  -0.018256
    13  H   -0.079405  -0.008736   0.008643  -0.021361   0.157564  -0.057313
               7          8          9         10         11         12
     1  C   -0.025187   0.006645   0.080598   0.329764   0.014619   0.000510
     2  C    0.061950   0.032088  -0.245544  -0.007020   0.218446  -0.004400
     3  C    0.006920  -0.250084   0.130716   0.044464   0.033551   0.047779
     4  C    0.065899   0.093506  -0.222883  -0.003705   0.045880   0.004988
     5  C   -0.177012  -0.026924   0.134866  -0.003941   0.009049   0.277516
     6  C    0.049764  -0.000816  -0.059025  -0.053132  -0.011613  -0.018256
     7  O    8.535224   0.001999  -0.000025  -0.012241  -0.000562  -0.002866
     8  Cl   0.001999  16.896975   0.028414   0.000098   0.000740  -0.000104
     9  Cl  -0.000025   0.028414  16.939905   0.001213   0.000389   0.000907
    10  H   -0.012241   0.000098   0.001213   0.500799  -0.003794  -0.000114
    11  H   -0.000562   0.000740   0.000389  -0.003794   0.455149   0.000009
    12  H   -0.002866  -0.000104   0.000907  -0.000114   0.000009   0.446619
    13  H    0.171506   0.000111   0.000131   0.007249  -0.000005  -0.000051
              13
     1  C   -0.079405
     2  C   -0.008736
     3  C    0.008643
     4  C   -0.021361
     5  C    0.157564
     6  C   -0.057313
     7  O    0.171506
     8  Cl   0.000111
     9  Cl   0.000131
    10  H    0.007249
    11  H   -0.000005
    12  H   -0.000051
    13  H    0.332911
 Mulliken charges:
               1
     1  C    0.100761
     2  C   -0.608177
     3  C   -0.276594
     4  C   -0.268781
     5  C    0.014979
     6  C    0.110772
     7  O   -0.675369
     8  Cl   0.217350
     9  Cl   0.210338
    10  H    0.200359
    11  H    0.238143
    12  H    0.247462
    13  H    0.488756
 Sum of Mulliken charges =   0.00000
 Mulliken charges with hydrogens summed into heavy atoms:
               1
     1  C    0.301120
     2  C   -0.370034
     3  C   -0.276594
     4  C   -0.268781
     5  C    0.262442
     6  C    0.110772
     7  O   -0.186613
     8  Cl   0.217350
     9  Cl   0.210338
 Electronic spatial extent (au):  <R**2>=           1699.2095
 Charge=              0.0000 electrons
 Dipole moment (field-independent basis, Debye):
    X=             -2.9008    Y=             -2.0274    Z=              0.0003  Tot=              3.5390
 Quadrupole moment (field-independent basis, Debye-Ang):
   XX=            -60.3289   YY=            -61.6196   ZZ=            -68.7424
   XY=              6.9124   XZ=             -0.0018   YZ=              0.0001
 Traceless Quadrupole moment (field-independent basis, Debye-Ang):
   XX=              3.2347   YY=              1.9440   ZZ=             -5.1788
   XY=              6.9124   XZ=             -0.0018   YZ=              0.0001
 Octapole moment (field-independent basis, Debye-Ang**2):
  XXX=            -31.4604  YYY=             -1.8676  ZZZ=             -0.0039  XYY=             -4.7386
  XXY=            -24.0551  XXZ=              0.0045  XZZ=              3.6193  YZZ=              2.8385
  YYZ=             -0.0018  XYZ=              0.0008
 Hexadecapole moment (field-independent basis, Debye-Ang**3):
 XXXX=          -1174.5620 YYYY=           -693.1975 ZZZZ=            -77.8503 XXXY=            102.9914
 XXXZ=             -0.0234 YYYX=              8.9167 YYYZ=              0.0024 ZZZX=              0.0042
 ZZZY=              0.0055 XXYY=           -335.5168 XXZZ=           -252.8837 YYZZ=           -144.0459
 XXYZ=              0.0090 YYXZ=              0.0019 ZZXY=             -1.9384
 N-N= 5.611561747011D+02 E-N=-4.021320716980D+03  KE= 1.221399246152D+03
 Calling FoFJK, ICntrl=      2127 FMM=F ISym2X=0 I1Cent= 0 IOpClX= 0 NMat=1 NMatS=1 NMatT=0.
 ***** Axes restored to original set *****
 -------------------------------------------------------------------
 Center     Atomic                   Forces (Hartrees/Bohr)
 Number     Number              X              Y              Z
 -------------------------------------------------------------------
      1        6           0.007635774   -0.004408658    0.005365523
      2        6          -0.009005993    0.005126882   -0.003919206
      3        6           0.004652509   -0.002407683   -0.004407508
      4        6          -0.005223812    0.003042210   -0.006045236
      5        6          -0.005019616    0.002882487   -0.003410194
      6        6           0.004596607   -0.002267185   -0.007196965
      7        8          -0.004035375    0.002015086    0.006025278
      8       17           0.002132804   -0.001226011    0.001906366
      9       17           0.002180297   -0.001367722    0.004863352
     10        1          -0.000048313    0.000044605   -0.000421842
     11        1           0.000119032   -0.000212248    0.004005033
     12        1           0.001963844   -0.001076172   -0.000376140
     13        1           0.000052241   -0.000145590    0.003611539
 -------------------------------------------------------------------
 Cartesian Forces:  Max     0.009005993 RMS     0.003933932

 GradGradGradGradGradGradGradGradGradGradGradGradGradGradGradGradGradGrad
 Berny optimization.
 FormGI is forming the generalized inverse of G from B-inverse, IUseBI=4.
 Internal  Forces:  Max     0.012938134 RMS     0.003194575
 Search for a local minimum.
 Step number   1 out of a maximum of   68
 All quantities printed in internal units (Hartrees-Bohrs-Radians)
 Mixed Optimization -- RFO/linear search
 Second derivative matrix not updated -- first step.
 ITU=  0
     Eigenvalues ---    0.02156   0.02156   0.02156   0.02156   0.02156
     Eigenvalues ---    0.02156   0.02157   0.02157   0.02166   0.02207
     Eigenvalues ---    0.16000   0.16000   0.16000   0.16000   0.22375
     Eigenvalues ---    0.23492   0.24610   0.25000   0.25000   0.25000
     Eigenvalues ---    0.32652   0.32668   0.35078   0.35160   0.35188
     Eigenvalues ---    0.42254   0.42568   0.46474   0.46474   0.46475
     Eigenvalues ---    0.46494   0.52743   0.53263
 RFO step:  Lambda=-2.23482126D-03 EMin= 2.15602121D-02
 Linear search not attempted -- first point.
 Iteration  1 RMS(Cart)=  0.02709014 RMS(Int)=  0.00041510
 Iteration  2 RMS(Cart)=  0.00056820 RMS(Int)=  0.00000555
 Iteration  3 RMS(Cart)=  0.00000002 RMS(Int)=  0.00000555
 Variable       Old X    -DE/DX   Delta X   Delta X   Delta X     New X
                                 (Linear)    (Quad)   (Total)
    R1        2.63599  -0.00450   0.00000  -0.00968  -0.00968   2.62631
    R2        2.63568   0.00291   0.00000   0.00629   0.00628   2.64196
    R3        2.05371   0.00042   0.00000   0.00119   0.00119   2.05490
    R4        2.63600  -0.00241   0.00000  -0.00527  -0.00527   2.63074
    R5        2.05416  -0.00181   0.00000  -0.00512  -0.00512   2.04903
    R6        2.63599   0.00006   0.00000   0.00007   0.00007   2.63607
    R7        3.26639   0.00460   0.00000   0.01400   0.01400   3.28039
    R8        2.63600  -0.00244   0.00000  -0.00517  -0.00517   2.63084
    R9        3.26667   0.00176   0.00000   0.00536   0.00536   3.27203
   R10        2.63601  -0.00508   0.00000  -0.01077  -0.01078   2.62523
   R11        2.05549  -0.00215   0.00000  -0.00610  -0.00610   2.04939
   R12        2.57195  -0.00122   0.00000  -0.00231  -0.00231   2.56964
   R13        1.83409  -0.00354   0.00000  -0.00663  -0.00663   1.82746
    A1        2.09449  -0.00052   0.00000  -0.00240  -0.00241   2.09208
    A2        2.08843   0.00036   0.00000   0.00178   0.00179   2.09022
    A3        2.10027   0.00017   0.00000   0.00062   0.00062   2.10089
    A4        2.09432   0.00204   0.00000   0.00877   0.00878   2.10310
    A5        2.07771   0.00264   0.00000   0.01815   0.01815   2.09586
    A6        2.11115  -0.00467   0.00000  -0.02692  -0.02693   2.08423
    A7        2.09439  -0.00320   0.00000  -0.01302  -0.01300   2.08139
    A8        2.05627   0.00648   0.00000   0.02587   0.02587   2.08213
    A9        2.13252  -0.00329   0.00000  -0.01285  -0.01286   2.11966
   A10        2.09439   0.00275   0.00000   0.01084   0.01084   2.10524
   A11        2.13243  -0.00560   0.00000  -0.02219  -0.02219   2.11024
   A12        2.05636   0.00286   0.00000   0.01135   0.01135   2.06771
   A13        2.09434  -0.00092   0.00000  -0.00388  -0.00389   2.09045
   A14        2.10495  -0.00031   0.00000  -0.00280  -0.00279   2.10216
   A15        2.08390   0.00123   0.00000   0.00668   0.00668   2.09058
   A16        2.09444  -0.00014   0.00000  -0.00031  -0.00032   2.09412
   A17        2.09405   0.01294   0.00000   0.05117   0.05117   2.14522
   A18        2.09470  -0.01280   0.00000  -0.05086  -0.05085   2.04385
   A19        1.92470  -0.00143   0.00000  -0.00883  -0.00883   1.91587
    D1       -0.00011   0.00000   0.00000   0.00016   0.00017   0.00006
    D2       -3.14123  -0.00001   0.00000  -0.00030  -0.00031  -3.14154
    D3        3.14152   0.00000   0.00000   0.00015   0.00016  -3.14150
    D4        0.00040  -0.00001   0.00000  -0.00031  -0.00031   0.00009
    D5        0.00007   0.00000   0.00000  -0.00016  -0.00016  -0.00009
    D6        3.14132   0.00000   0.00000   0.00028   0.00029  -3.14158
    D7       -3.14157   0.00000   0.00000  -0.00015  -0.00015   3.14147
    D8       -0.00032   0.00001   0.00000   0.00029   0.00029  -0.00002
    D9        0.00007   0.00000   0.00000  -0.00003  -0.00003   0.00004
   D10       -3.14122  -0.00001   0.00000  -0.00038  -0.00038   3.14158
   D11        3.14119   0.00001   0.00000   0.00045   0.00045  -3.14155
   D12       -0.00011   0.00000   0.00000   0.00010   0.00010  -0.00001
   D13        0.00000   0.00000   0.00000  -0.00010  -0.00010  -0.00010
   D14        3.14132   0.00000   0.00000   0.00019   0.00019   3.14151
   D15        3.14128   0.00001   0.00000   0.00027   0.00026   3.14154
   D16       -0.00058   0.00001   0.00000   0.00056   0.00055  -0.00003
   D17       -0.00004   0.00000   0.00000   0.00011   0.00011   0.00007
   D18       -3.14150   0.00000   0.00000  -0.00006  -0.00005  -3.14155
   D19       -3.14137   0.00000   0.00000  -0.00017  -0.00017  -3.14155
   D20        0.00035  -0.00001   0.00000  -0.00033  -0.00033   0.00002
   D21        0.00001   0.00000   0.00000   0.00002   0.00002   0.00003
   D22       -3.14124  -0.00001   0.00000  -0.00043  -0.00042   3.14152
   D23        3.14147   0.00001   0.00000   0.00018   0.00018  -3.14154
   D24        0.00022  -0.00001   0.00000  -0.00027  -0.00026  -0.00004
   D25        0.00041   0.00000   0.00000  -0.00019  -0.00019   0.00021
   D26       -3.14153   0.00001   0.00000   0.00025   0.00025  -3.14128
         Item               Value     Threshold  Converged?
 Maximum Force            0.012938     0.000450     NO 
 RMS     Force            0.003195     0.000300     NO 
 Maximum Displacement     0.093544     0.001800     NO 
 RMS     Displacement     0.027048     0.001200     NO 
 Predicted change in Energy=-1.127335D-03
 GradGradGradGradGradGradGradGradGradGradGradGradGradGradGradGradGradGrad

                          Input orientation:                          
 ---------------------------------------------------------------------
 Center     Atomic      Atomic             Coordinates (Angstroms)
 Number     Number       Type             X           Y           Z
 ---------------------------------------------------------------------
      1          6           0        1.899030   -1.043449   -0.122951
      2          6           0        2.925511   -1.633036    0.605208
      3          6           0        2.882955   -1.654257    1.996522
      4          6           0        1.796950   -1.076413    2.654217
      5          6           0        0.764473   -0.483640    1.932570
      6          6           0        0.814389   -0.466533    0.544361
      7          8           0       -0.222520    0.126279   -0.105594
      8         17           0        1.700268   -1.078757    4.382998
      9         17           0        4.181918   -2.398983    2.874844
     10          1           0        1.944486   -1.033722   -1.209365
     11          1           0        3.768415   -2.081463    0.091265
     12          1           0       -0.078474   -0.035200    2.446829
     13          1           0       -0.080201    0.078174   -1.060905
 ---------------------------------------------------------------------
                    Distance matrix (angstroms):
                    1          2          3          4          5
     1  C    0.000000
     2  C    1.389781   0.000000
     3  C    2.415235   1.392126   0.000000
     4  C    2.779239   2.404562   1.394946   0.000000
     5  C    2.413663   2.784437   2.421240   1.392180   0.000000
     6  C    1.398064   2.412730   2.792566   2.406008   1.389212
     7  O    2.422713   3.675667   4.151286   3.625091   2.345265
     8  Cl   4.510469   4.010005   2.724926   1.731484   2.689698
     9  Cl   4.004475   2.704899   1.735906   2.736045   4.029312
    10  H    1.087409   2.148084   3.397573   3.866634   3.400997
    11  H    2.148944   1.084302   2.143956   3.386078   3.868735
    12  H    3.395711   3.868924   3.405024   2.155075   1.084491
    13  H    2.460722   3.839073   4.596681   4.319595   3.160696
                    6          7          8          9         10
     6  C    0.000000
     7  O    1.359797   0.000000
     8  Cl   3.986820   5.029581   0.000000
     9  Cl   4.528329   5.887192   3.190003   0.000000
    10  H    2.162031   2.694407   5.597875   4.852917   0.000000
    11  H    3.396993   4.565133   4.868432   2.831981   2.473079
    12  H    2.145376   2.561579   2.828725   4.890972   4.296181
    13  H    1.916735   0.967051   5.843341   6.308097   2.314673
                   11         12         13
    11  H    0.000000
    12  H    4.953224   0.000000
    13  H    4.561072   3.509566   0.000000
 Stoichiometry    C6H4Cl2O
 Framework group  C1[X(C6H4Cl2O)]
 Deg. of freedom    33
 Full point group                 C1      NOp   1
 Largest Abelian subgroup         C1      NOp   1
 Largest concise Abelian subgroup C1      NOp   1
                         Standard orientation:                         
 ---------------------------------------------------------------------
 Center     Atomic      Atomic             Coordinates (Angstroms)
 Number     Number       Type             X           Y           Z
 ---------------------------------------------------------------------
      1          6           0       -1.752742   -1.314796    0.000048
      2          6           0       -0.412341   -1.681970    0.000031
      3          6           0        0.585994   -0.711743   -0.000022
      4          6           0        0.226666    0.636129   -0.000009
      5          6           0       -1.113614    1.012710   -0.000069
      6          6           0       -2.103923    0.038443   -0.000056
      7          8           0       -3.394470    0.466852   -0.000030
      8         17           0        1.433036    1.878188    0.000045
      9         17           0        2.250238   -1.205365   -0.000027
     10          1           0       -2.522728   -2.082637    0.000177
     11          1           0       -0.136008   -2.730470    0.000059
     12          1           0       -1.389746    2.061458   -0.000098
     13          1           0       -3.991646   -0.293785    0.000264
 ---------------------------------------------------------------------
 Rotational constants (GHZ):      1.8599711      0.8889822      0.6014948
 Standard basis: 6-31+G(d) (6D, 7F)
 There are   187 symmetry adapted cartesian basis functions of A   symmetry.
 There are   187 symmetry adapted basis functions of A   symmetry.
   187 basis functions,   352 primitive gaussians,   187 cartesian basis functions
    41 alpha electrons       41 beta electrons
       nuclear repulsion energy       561.9128922765 Hartrees.
 NAtoms=   13 NActive=   13 NUniq=   13 SFac= 1.00D+00 NAtFMM=   60 NAOKFM=F Big=F
 Integral buffers will be    131072 words long.
 Raffenetti 2 integral format.
 Two-electron integral symmetry is turned on.
 One-electron integrals computed using PRISM.
 NBasis=   187 RedAO= T EigKep=  1.89D-06  NBF=   187
 NBsUse=   187 1.00D-06 EigRej= -1.00D+00 NBFU=   187
 Initial guess from the checkpoint file:  "/srv/scratch/z5358697/gauss/Gau-2591383.chk"
 B after Tr=     0.000000    0.000000    0.000000
         Rot=    0.999993   -0.000001    0.000000   -0.003872 Ang=  -0.44 deg.
 ExpMin= 4.38D-02 ExpMax= 2.52D+04 ExpMxC= 3.78D+03 IAcc=2 IRadAn=         4 AccDes= 0.00D+00
 Harris functional with IExCor= 1009 and IRadAn=       4 diagonalized for initial guess.
 HarFok:  IExCor= 1009 AccDes= 0.00D+00 IRadAn=         4 IDoV= 1 UseB2=F ITyADJ=14
 ICtDFT=  3500011 ScaDFX=  1.000000  1.000000  1.000000  1.000000
 FoFCou: FMM=F IPFlag=           0 FMFlag=      100000 FMFlg1=           0
         NFxFlg=           0 DoJE=T BraDBF=F KetDBF=T FulRan=T
         wScrn=  0.000000 ICntrl=     500 IOpCl=  0 I1Cent=   200000004 NGrid=           0
         NMat0=    1 NMatS0=      1 NMatT0=    0 NMatD0=    1 NMtDS0=    0 NMtDT0=    0
 Petite list used in FoFCou.
 Requested convergence on RMS density matrix=1.00D-08 within 128 cycles.
 Requested convergence on MAX density matrix=1.00D-06.
 Requested convergence on             energy=1.00D-06.
 No special actions if energy rises.
 SCF Done:  E(RM062X) =  -1226.47637918     A.U. after   12 cycles
            NFock= 12  Conv=0.91D-08     -V/T= 2.0041
 Calling FoFJK, ICntrl=      2127 FMM=F ISym2X=0 I1Cent= 0 IOpClX= 0 NMat=1 NMatS=1 NMatT=0.
 ***** Axes restored to original set *****
 -------------------------------------------------------------------
 Center     Atomic                   Forces (Hartrees/Bohr)
 Number     Number              X              Y              Z
 -------------------------------------------------------------------
      1        6          -0.001105137    0.000615731   -0.000153128
      2        6          -0.002027682    0.001119466    0.000009293
      3        6           0.002701168   -0.001476899   -0.000539958
      4        6          -0.002389717    0.001340726   -0.000478066
      5        6           0.000547587   -0.000389017    0.002753190
      6        6           0.002433714   -0.001285006   -0.002192180
      7        8           0.000568256   -0.000318176    0.000208267
      8       17          -0.000372904    0.000157205    0.001528465
      9       17          -0.000162400    0.000105667   -0.000498730
     10        1          -0.000086706    0.000050635    0.000026837
     11        1           0.000599671   -0.000342328    0.000321491
     12        1           0.000027927   -0.000016926    0.000015389
     13        1          -0.000733775    0.000438922   -0.001000869
 -------------------------------------------------------------------
 Cartesian Forces:  Max     0.002753190 RMS     0.001137750

 GradGradGradGradGradGradGradGradGradGradGradGradGradGradGradGradGradGrad
 Berny optimization.
 Using GEDIIS/GDIIS optimizer.
 FormGI is forming the generalized inverse of G from B-inverse, IUseBI=4.
 Internal  Forces:  Max     0.002552170 RMS     0.000736376
 Search for a local minimum.
 Step number   2 out of a maximum of   68
 All quantities printed in internal units (Hartrees-Bohrs-Radians)
 Mixed Optimization -- En-DIIS/RFO-DIIS
 Update second derivatives using D2CorX and points    1    2
 DE= -1.10D-03 DEPred=-1.13D-03 R= 9.80D-01
 TightC=F SS=  1.41D+00  RLast= 9.42D-02 DXNew= 5.0454D-01 2.8266D-01
 Trust test= 9.80D-01 RLast= 9.42D-02 DXMaxT set to 3.00D-01
 ITU=  1  0
 Use linear search instead of GDIIS.
     Eigenvalues ---    0.02156   0.02156   0.02156   0.02156   0.02156
     Eigenvalues ---    0.02156   0.02157   0.02157   0.02166   0.02207
     Eigenvalues ---    0.15202   0.16000   0.16000   0.16289   0.21376
     Eigenvalues ---    0.23454   0.24494   0.24646   0.25000   0.26160
     Eigenvalues ---    0.32434   0.33069   0.35065   0.35187   0.35252
     Eigenvalues ---    0.42324   0.42710   0.46010   0.46475   0.46490
     Eigenvalues ---    0.49427   0.52810   0.53984
 RFO step:  Lambda=-9.49845337D-05 EMin= 2.15602095D-02
 Quartic linear search produced a step of -0.01601.
 Iteration  1 RMS(Cart)=  0.00419284 RMS(Int)=  0.00002289
 Iteration  2 RMS(Cart)=  0.00002257 RMS(Int)=  0.00000016
 Iteration  3 RMS(Cart)=  0.00000000 RMS(Int)=  0.00000016
 Variable       Old X    -DE/DX   Delta X   Delta X   Delta X     New X
                                 (Linear)    (Quad)   (Total)
    R1        2.62631  -0.00032   0.00015  -0.00142  -0.00126   2.62504
    R2        2.64196  -0.00205  -0.00010  -0.00411  -0.00421   2.63775
    R3        2.05490  -0.00003  -0.00002  -0.00001  -0.00003   2.05487
    R4        2.63074   0.00022   0.00008   0.00013   0.00021   2.63095
    R5        2.04903   0.00046   0.00008   0.00098   0.00106   2.05009
    R6        2.63607   0.00236   0.00000   0.00514   0.00514   2.64121
    R7        3.28039  -0.00042  -0.00022  -0.00044  -0.00066   3.27972
    R8        2.63084  -0.00110   0.00008  -0.00246  -0.00238   2.62846
    R9        3.27203   0.00155  -0.00009   0.00497   0.00489   3.27692
   R10        2.62523   0.00255   0.00017   0.00479   0.00496   2.63019
   R11        2.04939  -0.00002   0.00010  -0.00042  -0.00032   2.04907
   R12        2.56964   0.00056   0.00004   0.00091   0.00095   2.57059
   R13        1.82746   0.00085   0.00011   0.00118   0.00128   1.82875
    A1        2.09208  -0.00067   0.00004  -0.00384  -0.00380   2.08828
    A2        2.09022   0.00045  -0.00003   0.00265   0.00262   2.09284
    A3        2.10089   0.00022  -0.00001   0.00119   0.00118   2.10207
    A4        2.10310   0.00114  -0.00014   0.00519   0.00504   2.10815
    A5        2.09586   0.00004  -0.00029   0.00251   0.00222   2.09808
    A6        2.08423  -0.00119   0.00043  -0.00769  -0.00726   2.07696
    A7        2.08139  -0.00044   0.00021  -0.00229  -0.00209   2.07930
    A8        2.08213  -0.00035  -0.00041   0.00004  -0.00037   2.08176
    A9        2.11966   0.00079   0.00021   0.00225   0.00246   2.12212
   A10        2.10524  -0.00083  -0.00017  -0.00210  -0.00228   2.10296
   A11        2.11024   0.00093   0.00036   0.00209   0.00244   2.11268
   A12        2.06771  -0.00010  -0.00018   0.00002  -0.00016   2.06754
   A13        2.09045   0.00015   0.00006   0.00081   0.00087   2.09132
   A14        2.10216  -0.00012   0.00004  -0.00093  -0.00089   2.10127
   A15        2.09058  -0.00004  -0.00011   0.00013   0.00002   2.09059
   A16        2.09412   0.00064   0.00001   0.00224   0.00225   2.09637
   A17        2.14522  -0.00014  -0.00082   0.00259   0.00177   2.14699
   A18        2.04385  -0.00050   0.00081  -0.00483  -0.00401   2.03983
   A19        1.91587   0.00184   0.00014   0.01078   0.01092   1.92679
    D1        0.00006   0.00000   0.00000  -0.00007  -0.00007  -0.00001
    D2       -3.14154   0.00000   0.00000  -0.00007  -0.00007   3.14158
    D3       -3.14150   0.00000   0.00000  -0.00009  -0.00009  -3.14159
    D4        0.00009   0.00000   0.00000  -0.00010  -0.00009   0.00000
    D5       -0.00009   0.00000   0.00000   0.00010   0.00010   0.00001
    D6       -3.14158   0.00000   0.00000  -0.00005  -0.00005   3.14155
    D7        3.14147   0.00000   0.00000   0.00012   0.00013   3.14159
    D8       -0.00002   0.00000   0.00000  -0.00003  -0.00003  -0.00005
    D9        0.00004   0.00000   0.00000  -0.00004  -0.00004   0.00000
   D10        3.14158   0.00000   0.00001   0.00001   0.00001  -3.14159
   D11       -3.14155   0.00000  -0.00001  -0.00003  -0.00004  -3.14159
   D12       -0.00001   0.00000   0.00000   0.00002   0.00002   0.00001
   D13       -0.00010   0.00000   0.00000   0.00011   0.00011   0.00001
   D14        3.14151   0.00000   0.00000   0.00007   0.00007   3.14158
   D15        3.14154   0.00000   0.00000   0.00006   0.00006  -3.14159
   D16       -0.00003   0.00000  -0.00001   0.00003   0.00002  -0.00001
   D17        0.00007   0.00000   0.00000  -0.00008  -0.00008  -0.00001
   D18       -3.14155   0.00000   0.00000  -0.00005  -0.00005   3.14158
   D19       -3.14155   0.00000   0.00000  -0.00004  -0.00004  -3.14158
   D20        0.00002   0.00000   0.00001  -0.00001  -0.00001   0.00001
   D21        0.00003   0.00000   0.00000  -0.00003  -0.00003   0.00000
   D22        3.14152   0.00000   0.00001   0.00011   0.00012  -3.14155
   D23       -3.14154   0.00000   0.00000  -0.00006  -0.00006   3.14159
   D24       -0.00004   0.00000   0.00000   0.00008   0.00009   0.00005
   D25        0.00021   0.00000   0.00000   0.00000   0.00000   0.00022
   D26       -3.14128   0.00000   0.00000  -0.00014  -0.00015  -3.14143
         Item               Value     Threshold  Converged?
 Maximum Force            0.002552     0.000450     NO 
 RMS     Force            0.000736     0.000300     NO 
 Maximum Displacement     0.018749     0.001800     NO 
 RMS     Displacement     0.004195     0.001200     NO 
 Predicted change in Energy=-4.778063D-05
 GradGradGradGradGradGradGradGradGradGradGradGradGradGradGradGradGradGrad

                          Input orientation:                          
 ---------------------------------------------------------------------
 Center     Atomic      Atomic             Coordinates (Angstroms)
 Number     Number       Type             X           Y           Z
 ---------------------------------------------------------------------
      1          6           0        1.900099   -1.043967   -0.125445
      2          6           0        2.924232   -1.632367    0.605698
      3          6           0        2.884376   -1.655092    1.997180
      4          6           0        1.796355   -1.076125    2.656327
      5          6           0        0.766163   -0.484640    1.932788
      6          6           0        0.817702   -0.468384    0.542000
      7          8           0       -0.221163    0.125485   -0.104911
      8         17           0        1.696083   -1.076453    4.387495
      9         17           0        4.185123   -2.400662    2.871441
     10          1           0        1.945791   -1.034266   -1.211834
     11          1           0        3.769764   -2.082394    0.096309
     12          1           0       -0.077200   -0.035937    2.445773
     13          1           0       -0.090123    0.083803   -1.062822
 ---------------------------------------------------------------------
                    Distance matrix (angstroms):
                    1          2          3          4          5
     1  C    0.000000
     2  C    1.389112   0.000000
     3  C    2.418225   1.392238   0.000000
     4  C    2.783892   2.405534   1.397666   0.000000
     5  C    2.415571   2.781314   2.420936   1.390920   0.000000
     6  C    1.395838   2.407568   2.792305   2.407798   1.391838
     7  O    2.422353   3.672672   4.151339   3.624732   2.345056
     8  Cl   4.517666   4.014895   2.731386   1.734069   2.690832
     9  Cl   4.005407   2.704389   1.735555   2.739870   4.030074
    10  H    1.087392   2.149068   3.400608   3.871273   3.403272
    11  H    2.150151   1.084862   2.140049   3.385353   3.866147
    12  H    3.396616   3.865626   3.404972   2.153261   1.084320
    13  H    2.472150   3.849095   4.608147   4.328546   3.167024
                    6          7          8          9         10
     6  C    0.000000
     7  O    1.360300   0.000000
     8  Cl   3.991132   5.030130   0.000000
     9  Cl   4.527640   5.886888   3.201136   0.000000
    10  H    2.160727   2.695550   5.605053   4.853327   0.000000
    11  H    3.393867   4.565382   4.870970   2.824036   2.477233
    12  H    2.147606   2.559839   2.827984   4.892905   4.297353
    13  H    1.924711   0.967731   5.851725   6.318918   2.327494
                   11         12         13
    11  H    0.000000
    12  H    4.950465   0.000000
    13  H    4.575447   3.510662   0.000000
 Stoichiometry    C6H4Cl2O
 Framework group  C1[X(C6H4Cl2O)]
 Deg. of freedom    33
 Full point group                 C1      NOp   1
 Largest Abelian subgroup         C1      NOp   1
 Largest concise Abelian subgroup C1      NOp   1
                         Standard orientation:                         
 ---------------------------------------------------------------------
 Center     Atomic      Atomic             Coordinates (Angstroms)
 Number     Number       Type             X           Y           Z
 ---------------------------------------------------------------------
      1          6           0       -1.754765   -1.316386    0.000003
      2          6           0       -0.414163   -1.680278    0.000004
      3          6           0        0.586896   -0.712699    0.000000
      4          6           0        0.227736    0.638031   -0.000004
      5          6           0       -1.111945    1.012083    0.000006
      6          6           0       -2.103381    0.035217    0.000012
      7          8           0       -3.393006    0.467980   -0.000032
      8         17           0        1.433666    1.884116    0.000004
      9         17           0        2.249265   -1.211376   -0.000005
     10          1           0       -2.524972   -2.083981    0.000008
     11          1           0       -0.132933   -2.728055    0.000009
     12          1           0       -1.388814    2.060459    0.000011
     13          1           0       -4.001327   -0.284647    0.000127
 ---------------------------------------------------------------------
 Rotational constants (GHZ):      1.8511289      0.8891614      0.6006489
 Standard basis: 6-31+G(d) (6D, 7F)
 There are   187 symmetry adapted cartesian basis functions of A   symmetry.
 There are   187 symmetry adapted basis functions of A   symmetry.
   187 basis functions,   352 primitive gaussians,   187 cartesian basis functions
    41 alpha electrons       41 beta electrons
       nuclear repulsion energy       561.5275101098 Hartrees.
 NAtoms=   13 NActive=   13 NUniq=   13 SFac= 1.00D+00 NAtFMM=   60 NAOKFM=F Big=F
 Integral buffers will be    131072 words long.
 Raffenetti 2 integral format.
 Two-electron integral symmetry is turned on.
 One-electron integrals computed using PRISM.
 NBasis=   187 RedAO= T EigKep=  1.90D-06  NBF=   187
 NBsUse=   187 1.00D-06 EigRej= -1.00D+00 NBFU=   187
 Initial guess from the checkpoint file:  "/srv/scratch/z5358697/gauss/Gau-2591383.chk"
 B after Tr=     0.000000    0.000000    0.000000
         Rot=    1.000000    0.000000    0.000000    0.000210 Ang=   0.02 deg.
 Requested convergence on RMS density matrix=1.00D-08 within 128 cycles.
 Requested convergence on MAX density matrix=1.00D-06.
 Requested convergence on             energy=1.00D-06.
 No special actions if energy rises.
 SCF Done:  E(RM062X) =  -1226.47643064     A.U. after   12 cycles
            NFock= 12  Conv=0.42D-08     -V/T= 2.0041
 Calling FoFJK, ICntrl=      2127 FMM=F ISym2X=0 I1Cent= 0 IOpClX= 0 NMat=1 NMatS=1 NMatT=0.
 ***** Axes restored to original set *****
 -------------------------------------------------------------------
 Center     Atomic                   Forces (Hartrees/Bohr)
 Number     Number              X              Y              Z
 -------------------------------------------------------------------
      1        6          -0.000916103    0.000515301   -0.000389707
      2        6           0.000097040   -0.000077897    0.000736887
      3        6           0.000720676   -0.000391425   -0.000166279
      4        6          -0.000633873    0.000360962   -0.000404874
      5        6           0.000401123   -0.000253010    0.000985386
      6        6           0.000450672   -0.000214994   -0.000887758
      7        8           0.000080444   -0.000053003    0.000159560
      8       17           0.000076244   -0.000045137    0.000109426
      9       17          -0.000407207    0.000231068   -0.000203543
     10        1           0.000004659   -0.000005867    0.000125218
     11        1           0.000178675   -0.000099380    0.000035242
     12        1          -0.000135851    0.000078917   -0.000116414
     13        1           0.000083500   -0.000045534    0.000016856
 -------------------------------------------------------------------
 Cartesian Forces:  Max     0.000985386 RMS     0.000387837

 GradGradGradGradGradGradGradGradGradGradGradGradGradGradGradGradGradGrad
 Berny optimization.
 Using GEDIIS/GDIIS optimizer.
 FormGI is forming the generalized inverse of G from B-inverse, IUseBI=4.
 Internal  Forces:  Max     0.000598740 RMS     0.000191157
 Search for a local minimum.
 Step number   3 out of a maximum of   68
 All quantities printed in internal units (Hartrees-Bohrs-Radians)
 Mixed Optimization -- En-DIIS/RFO-DIIS
 Swapping is turned off.
 Update second derivatives using D2CorX and points    1    2    3
 DE= -5.15D-05 DEPred=-4.78D-05 R= 1.08D+00
 TightC=F SS=  1.41D+00  RLast= 1.94D-02 DXNew= 5.0454D-01 5.8238D-02
 Trust test= 1.08D+00 RLast= 1.94D-02 DXMaxT set to 3.00D-01
 ITU=  1  1  0
     Eigenvalues ---    0.02156   0.02156   0.02156   0.02156   0.02156
     Eigenvalues ---    0.02156   0.02157   0.02157   0.02166   0.02207
     Eigenvalues ---    0.14307   0.16000   0.16046   0.16996   0.20281
     Eigenvalues ---    0.23473   0.24574   0.24701   0.25034   0.26552
     Eigenvalues ---    0.32448   0.33183   0.35076   0.35191   0.35217
     Eigenvalues ---    0.42362   0.42871   0.43916   0.46483   0.46838
     Eigenvalues ---    0.48231   0.53027   0.54471
 En-DIIS/RFO-DIIS IScMMF=        0 using points:     3    2
 RFO step:  Lambda=-3.67680566D-06.
 DidBck=F Rises=F RFO-DIIS coefs:    1.09123   -0.09123
 Iteration  1 RMS(Cart)=  0.00072122 RMS(Int)=  0.00000038
 Iteration  2 RMS(Cart)=  0.00000045 RMS(Int)=  0.00000004
 Variable       Old X    -DE/DX   Delta X   Delta X   Delta X     New X
                                 (Linear)    (Quad)   (Total)
    R1        2.62504   0.00060  -0.00012   0.00140   0.00129   2.62633
    R2        2.63775  -0.00059  -0.00038  -0.00122  -0.00160   2.63615
    R3        2.05487  -0.00012   0.00000  -0.00038  -0.00038   2.05449
    R4        2.63095  -0.00036   0.00002  -0.00089  -0.00087   2.63008
    R5        2.05009   0.00016   0.00010   0.00045   0.00055   2.05064
    R6        2.64121   0.00021   0.00047   0.00034   0.00081   2.64201
    R7        3.27972  -0.00051  -0.00006  -0.00159  -0.00165   3.27807
    R8        2.62846  -0.00051  -0.00022  -0.00118  -0.00140   2.62706
    R9        3.27692   0.00010   0.00045   0.00025   0.00069   3.27761
   R10        2.63019   0.00056   0.00045   0.00112   0.00157   2.63176
   R11        2.04907   0.00008  -0.00003   0.00023   0.00020   2.04927
   R12        2.57059  -0.00025   0.00009  -0.00056  -0.00047   2.57013
   R13        1.82875  -0.00001   0.00012  -0.00010   0.00002   1.82876
    A1        2.08828  -0.00018  -0.00035  -0.00072  -0.00107   2.08721
    A2        2.09284   0.00009   0.00024   0.00033   0.00057   2.09341
    A3        2.10207   0.00009   0.00011   0.00039   0.00050   2.10257
    A4        2.10815   0.00007   0.00046   0.00033   0.00079   2.10894
    A5        2.09808   0.00008   0.00020   0.00067   0.00087   2.09895
    A6        2.07696  -0.00016  -0.00066  -0.00100  -0.00166   2.07530
    A7        2.07930  -0.00002  -0.00019  -0.00015  -0.00034   2.07896
    A8        2.08176   0.00009  -0.00003   0.00057   0.00054   2.08230
    A9        2.12212  -0.00007   0.00022  -0.00042  -0.00020   2.12192
   A10        2.10296   0.00006  -0.00021   0.00033   0.00013   2.10308
   A11        2.11268  -0.00020   0.00022  -0.00107  -0.00084   2.11184
   A12        2.06754   0.00014  -0.00002   0.00073   0.00072   2.06826
   A13        2.09132  -0.00006   0.00008  -0.00038  -0.00030   2.09102
   A14        2.10127   0.00020  -0.00008   0.00135   0.00127   2.10254
   A15        2.09059  -0.00014   0.00000  -0.00097  -0.00097   2.08963
   A16        2.09637   0.00013   0.00020   0.00058   0.00079   2.09715
   A17        2.14699  -0.00004   0.00016   0.00007   0.00023   2.14722
   A18        2.03983  -0.00009  -0.00037  -0.00065  -0.00102   2.03881
   A19        1.92679  -0.00016   0.00100  -0.00147  -0.00047   1.92632
    D1       -0.00001   0.00000  -0.00001   0.00001   0.00001  -0.00001
    D2        3.14158   0.00000  -0.00001   0.00002   0.00001   3.14159
    D3       -3.14159   0.00000  -0.00001   0.00000  -0.00001   3.14158
    D4        0.00000   0.00000  -0.00001   0.00000  -0.00001  -0.00001
    D5        0.00001   0.00000   0.00001  -0.00002  -0.00001   0.00000
    D6        3.14155   0.00000   0.00000   0.00004   0.00004   3.14159
    D7        3.14159   0.00000   0.00001  -0.00001   0.00000  -3.14159
    D8       -0.00005   0.00000   0.00000   0.00006   0.00005   0.00000
    D9        0.00000   0.00000   0.00000   0.00001   0.00000   0.00001
   D10       -3.14159   0.00000   0.00000   0.00000   0.00000  -3.14159
   D11       -3.14159   0.00000   0.00000   0.00000   0.00000  -3.14159
   D12        0.00001   0.00000   0.00000  -0.00001  -0.00001   0.00000
   D13        0.00001   0.00000   0.00001  -0.00002  -0.00001   0.00000
   D14        3.14158   0.00000   0.00001   0.00001   0.00001  -3.14159
   D15       -3.14159   0.00000   0.00001  -0.00001   0.00000  -3.14159
   D16       -0.00001   0.00000   0.00000   0.00002   0.00002   0.00001
   D17       -0.00001   0.00000  -0.00001   0.00001   0.00000   0.00000
   D18        3.14158   0.00000   0.00000   0.00001   0.00000   3.14159
   D19       -3.14158   0.00000   0.00000  -0.00002  -0.00002   3.14158
   D20        0.00001   0.00000   0.00000  -0.00002  -0.00002  -0.00001
   D21        0.00000   0.00000   0.00000   0.00001   0.00001   0.00000
   D22       -3.14155   0.00000   0.00001  -0.00005  -0.00004  -3.14159
   D23        3.14159   0.00000  -0.00001   0.00001   0.00001  -3.14159
   D24        0.00005   0.00000   0.00001  -0.00005  -0.00004   0.00001
   D25        0.00022   0.00000   0.00000  -0.00007  -0.00007   0.00015
   D26       -3.14143   0.00000  -0.00001  -0.00001  -0.00002  -3.14145
         Item               Value     Threshold  Converged?
 Maximum Force            0.000599     0.000450     NO 
 RMS     Force            0.000191     0.000300     YES
 Maximum Displacement     0.002634     0.001800     NO 
 RMS     Displacement     0.000721     0.001200     YES
 Predicted change in Energy=-3.344130D-06
 GradGradGradGradGradGradGradGradGradGradGradGradGradGradGradGradGradGrad

                          Input orientation:                          
 ---------------------------------------------------------------------
 Center     Atomic      Atomic             Coordinates (Angstroms)
 Number     Number       Type             X           Y           Z
 ---------------------------------------------------------------------
      1          6           0        1.899676   -1.043707   -0.126210
      2          6           0        2.923970   -1.632231    0.605899
      3          6           0        2.884462   -1.655135    1.996927
      4          6           0        1.796070   -1.075970    2.656196
      5          6           0        0.766390   -0.484773    1.933114
      6          6           0        0.818254   -0.468658    0.541504
      7          8           0       -0.220895    0.125289   -0.104357
      8         17           0        1.696968   -1.076938    4.387799
      9         17           0        4.184342   -2.400233    2.871145
     10          1           0        1.945314   -1.033970   -1.212399
     11          1           0        3.770329   -2.082750    0.097702
     12          1           0       -0.077581   -0.035699    2.444997
     13          1           0       -0.090097    0.083776   -1.062317
 ---------------------------------------------------------------------
                    Distance matrix (angstroms):
                    1          2          3          4          5
     1  C    0.000000
     2  C    1.389792   0.000000
     3  C    2.418958   1.391777   0.000000
     4  C    2.784521   2.405266   1.398093   0.000000
     5  C    2.416104   2.780883   2.420753   1.390181   0.000000
     6  C    1.394990   2.406676   2.791988   2.407670   1.392669
     7  O    2.421539   3.671991   4.150728   3.623786   2.344823
     8  Cl   4.518681   4.014555   2.731433   1.734437   2.691118
     9  Cl   4.005495   2.703646   1.734680   2.739291   4.028807
    10  H    1.087191   2.149858   3.401120   3.871700   3.403781
    11  H    2.151531   1.085152   2.138847   3.384847   3.865994
    12  H    3.396576   3.865295   3.405442   2.153448   1.084425
    13  H    2.471177   3.848666   4.607688   4.327815   3.166927
                    6          7          8          9         10
     6  C    0.000000
     7  O    1.360052   0.000000
     8  Cl   3.992008   5.030211   0.000000
     9  Cl   4.526450   5.885404   3.199747   0.000000
    10  H    2.160096   2.695199   5.605866   4.853375   0.000000
    11  H    3.393670   4.565756   4.869848   2.822089   2.479311
    12  H    2.147850   2.558450   2.829785   4.892505   4.297114
    13  H    1.924195   0.967739   5.851891   6.317694   2.326968
                   11         12         13
    11  H    0.000000
    12  H    4.950416   0.000000
    13  H    4.576283   3.509371   0.000000
 Stoichiometry    C6H4Cl2O
 Framework group  C1[X(C6H4Cl2O)]
 Deg. of freedom    33
 Full point group                 C1      NOp   1
 Largest Abelian subgroup         C1      NOp   1
 Largest concise Abelian subgroup C1      NOp   1
                         Standard orientation:                         
 ---------------------------------------------------------------------
 Center     Atomic      Atomic             Coordinates (Angstroms)
 Number     Number       Type             X           Y           Z
 ---------------------------------------------------------------------
      1          6           0       -1.756227   -1.315769   -0.000007
      2          6           0       -0.414933   -1.679708   -0.000001
      3          6           0        0.586463   -0.713143    0.000000
      4          6           0        0.227670    0.638128    0.000003
      5          6           0       -1.111120    1.012620    0.000004
      6          6           0       -2.103324    0.035350   -0.000004
      7          8           0       -3.392195    0.469578   -0.000010
      8         17           0        1.435348    1.883032   -0.000002
      9         17           0        2.247920   -1.211820    0.000002
     10          1           0       -2.526652   -2.082859   -0.000017
     11          1           0       -0.132611   -2.727491   -0.000001
     12          1           0       -1.388842    2.060880    0.000012
     13          1           0       -4.001067   -0.282615    0.000117
 ---------------------------------------------------------------------
 Rotational constants (GHZ):      1.8518624      0.8892976      0.6007883
 Standard basis: 6-31+G(d) (6D, 7F)
 There are   187 symmetry adapted cartesian basis functions of A   symmetry.
 There are   187 symmetry adapted basis functions of A   symmetry.
   187 basis functions,   352 primitive gaussians,   187 cartesian basis functions
    41 alpha electrons       41 beta electrons
       nuclear repulsion energy       561.5856117399 Hartrees.
 NAtoms=   13 NActive=   13 NUniq=   13 SFac= 1.00D+00 NAtFMM=   60 NAOKFM=F Big=F
 Integral buffers will be    131072 words long.
 Raffenetti 2 integral format.
 Two-electron integral symmetry is turned on.
 One-electron integrals computed using PRISM.
 NBasis=   187 RedAO= T EigKep=  1.89D-06  NBF=   187
 NBsUse=   187 1.00D-06 EigRej= -1.00D+00 NBFU=   187
 Initial guess from the checkpoint file:  "/srv/scratch/z5358697/gauss/Gau-2591383.chk"
 B after Tr=     0.000000    0.000000    0.000000
         Rot=    1.000000    0.000000    0.000000    0.000260 Ang=   0.03 deg.
 Requested convergence on RMS density matrix=1.00D-08 within 128 cycles.
 Requested convergence on MAX density matrix=1.00D-06.
 Requested convergence on             energy=1.00D-06.
 No special actions if energy rises.
 SCF Done:  E(RM062X) =  -1226.47643439     A.U. after   10 cycles
            NFock= 10  Conv=0.91D-08     -V/T= 2.0041
 Calling FoFJK, ICntrl=      2127 FMM=F ISym2X=0 I1Cent= 0 IOpClX= 0 NMat=1 NMatS=1 NMatT=0.
 ***** Axes restored to original set *****
 -------------------------------------------------------------------
 Center     Atomic                   Forces (Hartrees/Bohr)
 Number     Number              X              Y              Z
 -------------------------------------------------------------------
      1        6          -0.000246899    0.000137732   -0.000052196
      2        6           0.000227480   -0.000134221    0.000274115
      3        6           0.000227475   -0.000120869   -0.000154729
      4        6          -0.000292500    0.000164128   -0.000061099
      5        6           0.000165027   -0.000100931    0.000323891
      6        6           0.000062262   -0.000031053   -0.000133003
      7        8          -0.000055318    0.000030748   -0.000033622
      8       17           0.000000216    0.000000537   -0.000030197
      9       17          -0.000083265    0.000047021   -0.000033114
     10        1           0.000042344   -0.000023754    0.000010906
     11        1          -0.000032013    0.000018626   -0.000026489
     12        1          -0.000041101    0.000025667   -0.000089278
     13        1           0.000026291   -0.000013630    0.000004816
 -------------------------------------------------------------------
 Cartesian Forces:  Max     0.000323891 RMS     0.000127198

 GradGradGradGradGradGradGradGradGradGradGradGradGradGradGradGradGradGrad
 Berny optimization.
 Using GEDIIS/GDIIS optimizer.
 FormGI is forming the generalized inverse of G from B-inverse, IUseBI=4.
 Internal  Forces:  Max     0.000208457 RMS     0.000059178
 Search for a local minimum.
 Step number   4 out of a maximum of   68
 All quantities printed in internal units (Hartrees-Bohrs-Radians)
 Mixed Optimization -- En-DIIS/RFO-DIIS
 Swapping is turned off.
 Update second derivatives using D2CorX and points    1    2    3    4
 DE= -3.75D-06 DEPred=-3.34D-06 R= 1.12D+00
 TightC=F SS=  1.41D+00  RLast= 5.11D-03 DXNew= 5.0454D-01 1.5322D-02
 Trust test= 1.12D+00 RLast= 5.11D-03 DXMaxT set to 3.00D-01
 ITU=  1  1  1  0
     Eigenvalues ---    0.02156   0.02156   0.02156   0.02156   0.02156
     Eigenvalues ---    0.02156   0.02157   0.02157   0.02166   0.02207
     Eigenvalues ---    0.13819   0.15989   0.16343   0.16921   0.20462
     Eigenvalues ---    0.23341   0.24542   0.24833   0.25111   0.25979
     Eigenvalues ---    0.31173   0.33016   0.35073   0.35146   0.35340
     Eigenvalues ---    0.37748   0.42472   0.43572   0.46384   0.47765
     Eigenvalues ---    0.48652   0.53509   0.54645
 En-DIIS/RFO-DIIS IScMMF=        0 using points:     4    3    2
 RFO step:  Lambda=-3.90691159D-07.
 DidBck=F Rises=F RFO-DIIS coefs:    1.24049   -0.25145    0.01096
 Iteration  1 RMS(Cart)=  0.00020263 RMS(Int)=  0.00000007
 Iteration  2 RMS(Cart)=  0.00000007 RMS(Int)=  0.00000000
 Variable       Old X    -DE/DX   Delta X   Delta X   Delta X     New X
                                 (Linear)    (Quad)   (Total)
    R1        2.62633   0.00021   0.00032   0.00030   0.00062   2.62695
    R2        2.63615  -0.00007  -0.00034  -0.00002  -0.00036   2.63579
    R3        2.05449  -0.00001  -0.00009   0.00003  -0.00006   2.05444
    R4        2.63008  -0.00015  -0.00021  -0.00024  -0.00045   2.62963
    R5        2.05064  -0.00002   0.00012  -0.00014  -0.00002   2.05062
    R6        2.64201   0.00020   0.00014   0.00054   0.00068   2.64269
    R7        3.27807  -0.00010  -0.00039  -0.00010  -0.00049   3.27758
    R8        2.62706  -0.00018  -0.00031  -0.00031  -0.00062   2.62644
    R9        3.27761  -0.00003   0.00011  -0.00009   0.00002   3.27763
   R10        2.63176   0.00010   0.00032   0.00012   0.00045   2.63221
   R11        2.04927   0.00000   0.00005  -0.00005   0.00000   2.04927
   R12        2.57013   0.00005  -0.00012   0.00022   0.00009   2.57022
   R13        1.82876  -0.00001  -0.00001   0.00000  -0.00001   1.82875
    A1        2.08721   0.00003  -0.00021   0.00025   0.00004   2.08725
    A2        2.09341  -0.00005   0.00011  -0.00042  -0.00031   2.09310
    A3        2.10257   0.00003   0.00011   0.00017   0.00027   2.10284
    A4        2.10894  -0.00004   0.00013  -0.00016  -0.00003   2.10891
    A5        2.09895  -0.00003   0.00019  -0.00038  -0.00020   2.09875
    A6        2.07530   0.00007  -0.00032   0.00055   0.00023   2.07553
    A7        2.07896  -0.00002  -0.00006  -0.00009  -0.00015   2.07881
    A8        2.08230   0.00002   0.00013   0.00001   0.00014   2.08244
    A9        2.12192   0.00000  -0.00008   0.00009   0.00001   2.12193
   A10        2.10308   0.00005   0.00006   0.00017   0.00022   2.10331
   A11        2.11184  -0.00005  -0.00023  -0.00003  -0.00026   2.11158
   A12        2.06826  -0.00001   0.00017  -0.00014   0.00003   2.06830
   A13        2.09102  -0.00001  -0.00008  -0.00002  -0.00010   2.09093
   A14        2.10254   0.00010   0.00031   0.00052   0.00084   2.10337
   A15        2.08963  -0.00009  -0.00023  -0.00051  -0.00074   2.08889
   A16        2.09715  -0.00001   0.00016  -0.00015   0.00002   2.09717
   A17        2.14722   0.00000   0.00004   0.00008   0.00012   2.14733
   A18        2.03881   0.00001  -0.00020   0.00007  -0.00014   2.03868
   A19        1.92632  -0.00004  -0.00023   0.00007  -0.00016   1.92616
    D1       -0.00001   0.00000   0.00000   0.00000   0.00000  -0.00001
    D2        3.14159   0.00000   0.00000   0.00000   0.00000   3.14159
    D3        3.14158   0.00000   0.00000   0.00000   0.00000   3.14158
    D4       -0.00001   0.00000   0.00000   0.00000   0.00000  -0.00001
    D5        0.00000   0.00000   0.00000   0.00001   0.00001   0.00001
    D6        3.14159   0.00000   0.00001  -0.00002  -0.00001   3.14158
    D7       -3.14159   0.00000   0.00000   0.00001   0.00001  -3.14158
    D8        0.00000   0.00000   0.00001  -0.00002  -0.00001  -0.00001
    D9        0.00001   0.00000   0.00000  -0.00001  -0.00001   0.00000
   D10       -3.14159   0.00000   0.00000   0.00000   0.00000  -3.14159
   D11       -3.14159   0.00000   0.00000  -0.00001  -0.00001   3.14159
   D12        0.00000   0.00000   0.00000   0.00000   0.00000   0.00000
   D13        0.00000   0.00000   0.00000   0.00001   0.00001   0.00001
   D14       -3.14159   0.00000   0.00000  -0.00001   0.00000  -3.14159
   D15       -3.14159   0.00000   0.00000   0.00000   0.00000  -3.14159
   D16        0.00001   0.00000   0.00000  -0.00001  -0.00001   0.00000
   D17        0.00000   0.00000   0.00000   0.00000   0.00000  -0.00001
   D18        3.14159   0.00000   0.00000   0.00000   0.00000   3.14159
   D19        3.14158   0.00000   0.00000   0.00002   0.00001  -3.14159
   D20       -0.00001   0.00000   0.00000   0.00002   0.00001   0.00000
   D21        0.00000   0.00000   0.00000  -0.00001  -0.00001   0.00000
   D22       -3.14159   0.00000  -0.00001   0.00002   0.00001  -3.14158
   D23       -3.14159   0.00000   0.00000  -0.00001  -0.00001   3.14159
   D24        0.00001   0.00000  -0.00001   0.00002   0.00001   0.00002
   D25        0.00015   0.00000  -0.00002  -0.00002  -0.00004   0.00011
   D26       -3.14145   0.00000   0.00000  -0.00005  -0.00006  -3.14150
         Item               Value     Threshold  Converged?
 Maximum Force            0.000208     0.000450     YES
 RMS     Force            0.000059     0.000300     YES
 Maximum Displacement     0.000877     0.001800     YES
 RMS     Displacement     0.000203     0.001200     YES
 Predicted change in Energy=-3.929897D-07
 Optimization completed.
    -- Stationary point found.
                           ----------------------------
                           !   Optimized Parameters   !
                           ! (Angstroms and Degrees)  !
 --------------------------                            --------------------------
 ! Name  Definition              Value          Derivative Info.                !
 --------------------------------------------------------------------------------
 ! R1    R(1,2)                  1.3898         -DE/DX =    0.0002              !
 ! R2    R(1,6)                  1.395          -DE/DX =   -0.0001              !
 ! R3    R(1,10)                 1.0872         -DE/DX =    0.0                 !
 ! R4    R(2,3)                  1.3918         -DE/DX =   -0.0002              !
 ! R5    R(2,11)                 1.0852         -DE/DX =    0.0                 !
 ! R6    R(3,4)                  1.3981         -DE/DX =    0.0002              !
 ! R7    R(3,9)                  1.7347         -DE/DX =   -0.0001              !
 ! R8    R(4,5)                  1.3902         -DE/DX =   -0.0002              !
 ! R9    R(4,8)                  1.7344         -DE/DX =    0.0                 !
 ! R10   R(5,6)                  1.3927         -DE/DX =    0.0001              !
 ! R11   R(5,12)                 1.0844         -DE/DX =    0.0                 !
 ! R12   R(6,7)                  1.3601         -DE/DX =    0.0                 !
 ! R13   R(7,13)                 0.9677         -DE/DX =    0.0                 !
 ! A1    A(2,1,6)              119.5883         -DE/DX =    0.0                 !
 ! A2    A(2,1,10)             119.9435         -DE/DX =   -0.0001              !
 ! A3    A(6,1,10)             120.4682         -DE/DX =    0.0                 !
 ! A4    A(1,2,3)              120.8331         -DE/DX =    0.0                 !
 ! A5    A(1,2,11)             120.2609         -DE/DX =    0.0                 !
 ! A6    A(3,2,11)             118.906          -DE/DX =    0.0001              !
 ! A7    A(2,3,4)              119.1158         -DE/DX =    0.0                 !
 ! A8    A(2,3,9)              119.3071         -DE/DX =    0.0                 !
 ! A9    A(4,3,9)              121.5771         -DE/DX =    0.0                 !
 ! A10   A(3,4,5)              120.4978         -DE/DX =    0.0001              !
 ! A11   A(3,4,8)              120.9994         -DE/DX =    0.0                 !
 ! A12   A(5,4,8)              118.5028         -DE/DX =    0.0                 !
 ! A13   A(4,5,6)              119.8068         -DE/DX =    0.0                 !
 ! A14   A(4,5,12)             120.4664         -DE/DX =    0.0001              !
 ! A15   A(6,5,12)             119.7268         -DE/DX =   -0.0001              !
 ! A16   A(1,6,5)              120.1581         -DE/DX =    0.0                 !
 ! A17   A(1,6,7)              123.0265         -DE/DX =    0.0                 !
 ! A18   A(5,6,7)              116.8155         -DE/DX =    0.0                 !
 ! A19   A(6,7,13)             110.3699         -DE/DX =    0.0                 !
 ! D1    D(6,1,2,3)             -0.0004         -DE/DX =    0.0                 !
 ! D2    D(6,1,2,11)           179.9998         -DE/DX =    0.0                 !
 ! D3    D(10,1,2,3)           179.9995         -DE/DX =    0.0                 !
 ! D4    D(10,1,2,11)           -0.0003         -DE/DX =    0.0                 !
 ! D5    D(2,1,6,5)              0.0            -DE/DX =    0.0                 !
 ! D6    D(2,1,6,7)            180.0            -DE/DX =    0.0                 !
 ! D7    D(10,1,6,5)          -179.9998         -DE/DX =    0.0                 !
 ! D8    D(10,1,6,7)             0.0001         -DE/DX =    0.0                 !
 ! D9    D(1,2,3,4)              0.0003         -DE/DX =    0.0                 !
 ! D10   D(1,2,3,9)           -179.9998         -DE/DX =    0.0                 !
 ! D11   D(11,2,3,4)           180.0002         -DE/DX =    0.0                 !
 ! D12   D(11,2,3,9)             0.0            -DE/DX =    0.0                 !
 ! D13   D(2,3,4,5)              0.0            -DE/DX =    0.0                 !
 ! D14   D(2,3,4,8)           -179.9997         -DE/DX =    0.0                 !
 ! D15   D(9,3,4,5)           -179.9999         -DE/DX =    0.0                 !
 ! D16   D(9,3,4,8)              0.0004         -DE/DX =    0.0                 !
 ! D17   D(3,4,5,6)             -0.0003         -DE/DX =    0.0                 !
 ! D18   D(3,4,5,12)           179.9996         -DE/DX =    0.0                 !
 ! D19   D(8,4,5,6)           -180.0005         -DE/DX =    0.0                 !
 ! D20   D(8,4,5,12)            -0.0006         -DE/DX =    0.0                 !
 ! D21   D(4,5,6,1)              0.0003         -DE/DX =    0.0                 !
 ! D22   D(4,5,6,7)           -179.9997         -DE/DX =    0.0                 !
 ! D23   D(12,5,6,1)           180.0003         -DE/DX =    0.0                 !
 ! D24   D(12,5,6,7)             0.0004         -DE/DX =    0.0                 !
 ! D25   D(1,6,7,13)             0.0085         -DE/DX =    0.0                 !
 ! D26   D(5,6,7,13)          -179.9916         -DE/DX =    0.0                 !
 --------------------------------------------------------------------------------
 GradGradGradGradGradGradGradGradGradGradGradGradGradGradGradGradGradGrad

                          Input orientation:                          
 ---------------------------------------------------------------------
 Center     Atomic      Atomic             Coordinates (Angstroms)
 Number     Number       Type             X           Y           Z
 ---------------------------------------------------------------------
      1          6           0        1.899676   -1.043707   -0.126210
[...]
   A18        2.03881   0.00001   0.00000  -0.00014  -0.00014   2.03868
   A19        1.92632  -0.00004   0.00000  -0.00027  -0.00027   1.92604
    D1       -0.00001   0.00000   0.00000   0.00001   0.00001   0.00000
    D2        3.14159   0.00000   0.00000   0.00000   0.00000  -3.14159
    D3        3.14158   0.00000   0.00000   0.00001   0.00001   3.14159
    D4       -0.00001   0.00000   0.00000   0.00001   0.00001   0.00000
    D5        0.00000   0.00000   0.00000   0.00000   0.00000   0.00000
    D6        3.14159   0.00000   0.00000   0.00000   0.00000   3.14159
    D7       -3.14159   0.00000   0.00000   0.00000   0.00000  -3.14159
    D8        0.00000   0.00000   0.00000   0.00000   0.00000   0.00000
    D9        0.00001   0.00000   0.00000  -0.00001  -0.00001   0.00000
   D10       -3.14159   0.00000   0.00000   0.00000   0.00000  -3.14159
   D11       -3.14159   0.00000   0.00000   0.00000   0.00000   3.14159
   D12        0.00000   0.00000   0.00000   0.00000   0.00000   0.00000
   D13        0.00000   0.00000   0.00000   0.00000   0.00000   0.00000
   D14       -3.14159   0.00000   0.00000  -0.00001  -0.00001   3.14159
   D15       -3.14159   0.00000   0.00000   0.00000   0.00000   3.14159
   D16        0.00001   0.00000   0.00000  -0.00001  -0.00001   0.00000
   D17        0.00000   0.00000   0.00000   0.00000   0.00000   0.00000
   D18        3.14159   0.00000   0.00000   0.00001   0.00001   3.14159
   D19        3.14158   0.00000   0.00000   0.00001   0.00001  -3.14159
   D20       -0.00001   0.00000   0.00000   0.00001   0.00001   0.00000
   D21        0.00000   0.00000   0.00000   0.00000   0.00000   0.00000
   D22       -3.14159   0.00000   0.00000  -0.00001  -0.00001  -3.14159
   D23       -3.14159   0.00000   0.00000  -0.00001  -0.00001  -3.14159
   D24        0.00001   0.00000   0.00000  -0.00001  -0.00001   0.00000
   D25        0.00015   0.00000   0.00000  -0.00013  -0.00013   0.00002
   D26       -3.14145   0.00000   0.00000  -0.00013  -0.00013  -3.14158
         Item               Value     Threshold  Converged?
 Maximum Force            0.000208     0.000450     YES
 RMS     Force            0.000059     0.000300     YES
 Maximum Displacement     0.001063     0.001800     YES
 RMS     Displacement     0.000277     0.001200     YES
 Predicted change in Energy=-4.904887D-07
 Optimization completed.
    -- Stationary point found.
                           ----------------------------
                           !   Optimized Parameters   !
                           ! (Angstroms and Degrees)  !
 --------------------------                            --------------------------
 ! Name  Definition              Value          Derivative Info.                !
 --------------------------------------------------------------------------------
 ! R1    R(1,2)                  1.3898         -DE/DX =    0.0002              !
 ! R2    R(1,6)                  1.395          -DE/DX =   -0.0001              !
 ! R3    R(1,10)                 1.0872         -DE/DX =    0.0                 !
 ! R4    R(2,3)                  1.3918         -DE/DX =   -0.0002              !
 ! R5    R(2,11)                 1.0852         -DE/DX =    0.0                 !
 ! R6    R(3,4)                  1.3981         -DE/DX =    0.0002              !
 ! R7    R(3,9)                  1.7347         -DE/DX =   -0.0001              !
 ! R8    R(4,5)                  1.3902         -DE/DX =   -0.0002              !
 ! R9    R(4,8)                  1.7344         -DE/DX =    0.0                 !
 ! R10   R(5,6)                  1.3927         -DE/DX =    0.0001              !
 ! R11   R(5,12)                 1.0844         -DE/DX =    0.0                 !
 ! R12   R(6,7)                  1.3601         -DE/DX =    0.0                 !
 ! R13   R(7,13)                 0.9677         -DE/DX =    0.0                 !
 ! A1    A(2,1,6)              119.5883         -DE/DX =    0.0                 !
 ! A2    A(2,1,10)             119.9435         -DE/DX =   -0.0001              !
 ! A3    A(6,1,10)             120.4682         -DE/DX =    0.0                 !
 ! A4    A(1,2,3)              120.8331         -DE/DX =    0.0                 !
 ! A5    A(1,2,11)             120.2609         -DE/DX =    0.0                 !
 ! A6    A(3,2,11)             118.906          -DE/DX =    0.0001              !
 ! A7    A(2,3,4)              119.1158         -DE/DX =    0.0                 !
 ! A8    A(2,3,9)              119.3071         -DE/DX =    0.0                 !
 ! A9    A(4,3,9)              121.5771         -DE/DX =    0.0                 !
 ! A10   A(3,4,5)              120.4978         -DE/DX =    0.0001              !
 ! A11   A(3,4,8)              120.9994         -DE/DX =    0.0                 !
 ! A12   A(5,4,8)              118.5028         -DE/DX =    0.0                 !
 ! A13   A(4,5,6)              119.8068         -DE/DX =    0.0                 !
 ! A14   A(4,5,12)             120.4664         -DE/DX =    0.0001              !
 ! A15   A(6,5,12)             119.7268         -DE/DX =   -0.0001              !
 ! A16   A(1,6,5)              120.1581         -DE/DX =    0.0                 !
 ! A17   A(1,6,7)              123.0265         -DE/DX =    0.0                 !
 ! A18   A(5,6,7)              116.8155         -DE/DX =    0.0                 !
 ! A19   A(6,7,13)             110.3699         -DE/DX =    0.0                 !
 ! D1    D(6,1,2,3)             -0.0004         -DE/DX =    0.0                 !
 ! D2    D(6,1,2,11)          -180.0002         -DE/DX =    0.0                 !
 ! D3    D(10,1,2,3)           179.9995         -DE/DX =    0.0                 !
 ! D4    D(10,1,2,11)           -0.0003         -DE/DX =    0.0                 !
 ! D5    D(2,1,6,5)              0.0            -DE/DX =    0.0                 !
 ! D6    D(2,1,6,7)            180.0            -DE/DX =    0.0                 !
 ! D7    D(10,1,6,5)          -179.9998         -DE/DX =    0.0                 !
 ! D8    D(10,1,6,7)             0.0001         -DE/DX =    0.0                 !
 ! D9    D(1,2,3,4)              0.0003         -DE/DX =    0.0                 !
 ! D10   D(1,2,3,9)           -179.9998         -DE/DX =    0.0                 !
 ! D11   D(11,2,3,4)           180.0002         -DE/DX =    0.0                 !
 ! D12   D(11,2,3,9)             0.0            -DE/DX =    0.0                 !
 ! D13   D(2,3,4,5)              0.0            -DE/DX =    0.0                 !
 ! D14   D(2,3,4,8)            180.0003         -DE/DX =    0.0                 !
 ! D15   D(9,3,4,5)            180.0001         -DE/DX =    0.0                 !
 ! D16   D(9,3,4,8)              0.0004         -DE/DX =    0.0                 !
 ! D17   D(3,4,5,6)             -0.0003         -DE/DX =    0.0                 !
 ! D18   D(3,4,5,12)           179.9996         -DE/DX =    0.0                 !
 ! D19   D(8,4,5,6)           -180.0005         -DE/DX =    0.0                 !
 ! D20   D(8,4,5,12)            -0.0006         -DE/DX =    0.0                 !
 ! D21   D(4,5,6,1)              0.0003         -DE/DX =    0.0                 !
 ! D22   D(4,5,6,7)           -179.9997         -DE/DX =    0.0                 !
 ! D23   D(12,5,6,1)          -179.9997         -DE/DX =    0.0                 !
 ! D24   D(12,5,6,7)             0.0004         -DE/DX =    0.0                 !
 ! D25   D(1,6,7,13)             0.0085         -DE/DX =    0.0                 !
 ! D26   D(5,6,7,13)          -179.9916         -DE/DX =    0.0                 !
 --------------------------------------------------------------------------------
 GradGradGradGradGradGradGradGradGradGradGradGradGradGradGradGradGradGrad

 1\1\GINC-KATANA2\Freq\RM062X\6-31+G(d)\C6H4Cl2O1\Z5358697\21-Mar-2025\
 0\\#N Geom=AllCheck Guess=TCheck SCRF=Check GenChk RM062X/6-31+G(d) Fr
 eq\\3,4-dichlorophenol\\0,1\C,1.8996761222,-1.0437071495,-0.1262099245
 \C,2.9239697063,-1.6322313112,0.6058989062\C,2.8844616776,-1.655135000
 7,1.9969266881\C,1.7960700152,-1.0759704383,2.6561961305\C,0.766390094
 ,-0.4847726266,1.933113782\C,0.8182538655,-0.4686582831,0.5415040788\O
 ,-0.220895017,0.1252891822,-0.1043573921\Cl,1.6969678096,-1.076938236,
 4.3877993582\Cl,4.1843417789,-2.4002327645,2.8711447396\H,1.9453136017
 ,-1.0339699398,-1.2123985928\H,3.7703285781,-2.082750034,0.0977023241\
 H,-0.0775808629,-0.0356993139,2.4449971109\H,-0.0900973693,0.083775915
 3,-1.0623172091\\Version=ES64L-G09RevD.01\State=1-A\HF=-1226.4764344\R
 MSD=5.919e-09\RMSF=1.272e-04\ZeroPoint=0.0864076\Thermal=0.0942454\Dip
 ole=-0.1737696,0.1414342,-1.4217475\DipoleDeriv=-0.2740958,0.0597957,-
 0.2480927,0.0499634,-0.2119313,0.1317543,0.0580736,-0.0371354,-0.02154
 61,-0.0551543,-0.0220372,0.0785869,-0.0155568,-0.0802978,-0.0513145,-0
 .1230726,0.0599243,0.1573229,0.4782864,-0.2983774,0.4127831,-0.3016307
 ,0.1349654,-0.2238765,0.5139387,-0.2796748,-0.1572304,0.1025706,-0.049
 6919,-0.1654069,-0.0504779,0.0289021,0.055717,-0.1409403,0.0422187,1.1
 085135,-0.1484383,0.0018832,-0.0273945,0.0099799,-0.152863,0.0230108,-
 0.279685,0.1621805,-0.3927576,0.9483464,-0.4729596,0.6200201,-0.473351
 9,0.3995861,-0.3572234,0.6321369,-0.3639014,0.6003368,-1.0480019,0.379
 6633,-0.646999,0.3784864,-0.6178808,0.3663237,-0.6093558,0.3455364,-0.
 6895275,-0.0476849,0.0007294,0.07191,0.0013394,-0.042356,-0.0173076,0.
 0529663,-0.0068567,-0.738103,-0.441665,0.2278411,-0.2420113,0.2275495,
 -0.1726583,0.1381883,-0.2328839,0.1331539,-0.188869,0.0761967,0.044435
 1,-0.0329963,0.0442709,0.1295885,0.0257296,-0.0278421,0.0228857,-0.079
 435,0.0363779,0.056728,0.0290991,0.0566427,0.1100997,-0.0132847,0.0317
 504,-0.0147459,0.0547857,0.064011,0.0501511,0.0167904,0.0500119,0.1285
 318,-0.0064791,0.02108,-0.0088445,0.0693336,0.3092512,0.0218392,0.1337
 111,0.0227733,0.3463136,-0.0712379,0.1038339,-0.0547408,0.2771761\Pola
 r=96.8052129,-25.2289852,65.7674331,9.4092746,-7.3584027,119.1048099\P
 G=C01 [X(C6H4Cl2O1)]\NImag=0\\0.56659702,-0.24872085,0.25374876,0.0027
 4142,-0.02207724,0.75572494,-0.24101015,0.10769193,-0.12442774,0.61338
 715,0.10554163,-0.11358987,0.07315273,-0.26634573,0.27600384,-0.057511
 89,0.03624292,-0.19364534,-0.02672077,-0.00375409,0.70448387,0.0339226
 7,-0.01607960,-0.01851149,-0.10250775,0.02563356,-0.01934482,0.4696151
 1,-0.01422011,0.01117461,0.01126280,0.02337332,-0.07069523,0.01990017,
 -0.19856183,0.21681015,-0.07637883,0.04318196,-0.02904237,0.05098846,-
 0.01889515,-0.34441703,-0.03815474,0.00401977,0.63729747,-0.06213323,0
 .03499379,-0.00256173,0.02687193,-0.01592902,0.08174460,-0.22522517,0.
 09188239,0.04569160,0.53794928,0.03485033,-0.01811140,0.00146911,-0.01
 393050,0.01186064,-0.04420577,0.08966572,-0.10472960,-0.02229728,-0.23
 392998,0.24362484,0.00189949,-0.00099185,-0.00058443,0.01956000,-0.009
 90537,-0.02474807,0.11467765,-0.06034932,-0.14642211,0.00381592,-0.016
 12467,0.55041014,0.02646531,-0.01298122,0.02327509,-0.01288536,0.00914
 129,-0.02653230,-0.03993893,0.02314428,0.02261201,-0.24073529,0.108018
 85,-0.11843759,0.61509638,-0.01443619,0.01263972,-0.01211886,0.0090248
 6,-0.00337154,0.01664798,0.02494306,-0.00995112,-0.01462476,0.10590209
 ,-0.11243913,0.06909287,-0.27328829,0.26897728,0.06855219,-0.03709326,
 -0.01809162,-0.02290507,0.01464758,-0.06050894,-0.03337399,0.01625654,
 0.07031342,-0.05256172,0.03275594,-0.16891245,-0.02671423,-0.00471458,
 0.72332570,-0.22593604,0.08715608,0.12006224,-0.04720547,0.02609763,-0
 .03314085,-0.02032508,0.01038233,0.03822632,0.03712252,-0.02187225,-0.
 02386976,-0.11475810,0.02913089,-0.01042507,0.58925318,0.08963045,-0.1
 0838244,-0.06194161,0.02431659,-0.01573517,0.01554752,0.01039164,-0.00
 440171,-0.01885718,-0.01989498,0.00660375,0.01396341,0.02676296,-0.077
 78646,0.01464581,-0.24068064,0.28577315,0.04307656,-0.01947711,-0.1942
 5581,0.02228597,-0.01502511,0.08320596,0.03792966,-0.01869386,-0.06860
 504,-0.08539828,0.04790195,-0.02872197,0.06325898,-0.02599695,-0.33939
 208,-0.00676708,-0.01529989,0.74500667,-0.03856483,0.02676309,-0.02402
 870,0.00323837,0.00217585,0.00722856,0.00057182,-0.00113459,-0.0031565
 3,-0.00077485,0.00316843,0.00563228,0.00134191,0.00334751,-0.01490433,
 -0.22683872,0.10382679,-0.05664314,0.31008061,0.02567246,-0.00602831,0
 .01309611,0.00239757,0.00639295,-0.00347230,-0.00111001,-0.00110504,0.
 00150102,0.00302327,0.00372476,-0.00291465,0.00442124,0.00379283,0.009
 70939,0.10531874,-0.10113936,0.03497544,-0.15771882,0.11480255,0.00988
 204,-0.00560827,0.01345551,0.00032551,0.00033427,-0.00839648,-0.003906
 70,0.00191536,0.00578520,0.01013940,-0.00540011,-0.00070503,-0.0483274
 6,0.02814453,-0.03974770,-0.10330245,0.06071832,-0.15832982,0.03892165
 ,-0.04257413,0.68611578,0.00086705,-0.00093079,-0.00015032,-0.00259321
 ,0.00366277,-0.00092000,0.00034532,0.00102799,0.02227020,-0.03615936,0
 .00721836,0.00668711,0.00454890,0.00052926,-0.02152680,-0.00140025,0.0
 0387824,0.00081756,0.00043285,-0.00024155,-0.00099201,0.03839030,-0.00
 096585,-0.00030082,0.00013849,0.00350607,0.00204110,0.00057474,0.00173
 339,0.00290448,-0.01103148,0.00710006,-0.02664963,0.00155308,-0.000148
 91,0.00390819,0.01333402,0.00400870,0.00348185,-0.00045690,-0.00025699
 ,0.00005894,0.00062526,-0.01477342,0.01904850,0.00094069,-0.00046334,-
 0.00255981,0.00395643,-0.00211511,0.00190189,0.00031639,0.00107813,-0.
 03548206,0.01036662,-0.00047634,-0.18584706,-0.00042008,0.00169165,-0.
 04118297,-0.00324349,0.00178306,0.00586131,-0.00050846,0.00035835,-0.0
 0249065,-0.01268863,-0.00098332,0.25932932,0.00214122,0.00137380,-0.00
 009508,-0.00983688,0.00756816,-0.00977329,-0.11725960,0.05541996,-0.05
 653579,-0.02555444,0.01598255,-0.02002545,-0.00060151,0.00230061,0.004
 02442,0.00168761,-0.00133958,0.00116494,-0.00267603,0.00133958,-0.0019
 7944,-0.00421889,0.00162682,0.00075501,0.15700245,0.00125223,0.0039260
 5,0.00029188,0.00830719,-0.00146545,0.00614898,0.05554349,-0.05178082,
 0.03307484,0.01524558,-0.00651219,0.01111243,0.00241778,0.00253564,-0.
 00203424,-0.00130726,0.00007128,-0.00072143,0.00133461,-0.00113512,0.0
 0111462,0.00143913,-0.00200372,-0.00048996,-0.08345980,0.05813745,0.00
 368667,-0.00179411,-0.00282453,-0.03277246,0.01883518,-0.02027747,-0.0
 6037846,0.03519449,-0.07890305,0.00290927,-0.00153828,0.00018465,0.000
 37871,-0.00002330,-0.00197292,0.00016193,-0.00016817,0.00177983,-0.001
 83016,0.00103231,-0.00106945,0.00659606,-0.00371182,0.00106126,0.08307
 344,-0.04874665,0.10152903,-0.05336105,0.01156642,0.01462383,0.0051430
 2,-0.00072187,-0.02450026,-0.00086927,0.00437324,-0.00174926,-0.001519
 60,0.00056146,-0.00030094,-0.00270600,0.00421919,0.00211569,0.00338261
 ,-0.00041938,0.02401881,0.00151470,-0.00300472,0.00055334,0.00004483,-
 0.00027985,-0.00003443,-0.00039176,0.00037425,-0.00114634,0.04959824,0
 .01157815,-0.03798560,0.00184566,-0.00158230,0.00283024,0.01398349,0.0
 0438219,0.00450304,0.00114740,0.00054258,-0.00082242,0.00012279,0.0041
 9816,0.00278313,-0.00101432,0.00048523,0.00416296,-0.01271892,-0.00298
 277,-0.00223891,-0.00051688,-0.00028022,-0.00031018,0.00000728,0.00034
 741,0.00000710,0.00066122,-0.01501201,0.02992344,0.01426671,0.00204223
 ,-0.33992157,0.00227150,-0.00078355,-0.01219817,-0.00203031,0.00130245
 ,0.00127875,0.00028960,-0.00020292,0.00082464,0.00276991,-0.00137511,0
 .00031306,-0.00413604,0.00281143,-0.01246864,-0.00013292,-0.00013880,0
 .00270182,-0.00002293,0.00000092,-0.00009970,-0.00031077,0.00020034,-0
 .00067970,-0.01433216,-0.00297988,0.36022294,-0.01210592,0.00847215,0.
 01149314,-0.23217844,0.10390502,0.11051993,0.00196332,0.00090160,-0.00
 178622,0.00199353,0.00193838,-0.00005894,-0.00005668,-0.00055629,-0.00
 064811,0.00032444,0.00375992,-0.00318123,-0.00109549,0.00053004,0.0004
 6012,0.00024522,-0.00011618,-0.00026138,0.00027641,-0.00160571,-0.0009
 5982,-0.00034679,-0.00219538,-0.00004776,0.24093792,0.00928555,-0.0009
 8662,-0.00660399,0.10397392,-0.09285011,-0.05820122,0.00004617,0.00342
 170,0.00145064,0.00196356,0.00440977,0.00035444,-0.00055216,-0.0008095
 8,0.00034760,0.00374728,0.00482336,0.00202667,0.00057511,-0.00041618,-
 0.00027123,-0.00015451,0.00009861,0.00018660,-0.00165148,-0.00179304,0
 .00041848,-0.00220465,-0.00310908,-0.00013713,-0.11493483,0.08727566,-
 0.01381910,0.00735803,0.01215389,0.10837654,-0.05701897,-0.12329685,0.
 02483615,-0.01323404,-0.01099147,-0.00084337,0.00078709,-0.00451408,-0
 .00077777,0.00041913,-0.00079518,-0.00278940,0.00181055,-0.00150589,-0
 .00094132,0.00050171,0.00043626,0.00093147,-0.00047137,-0.00130096,0.0
 0046452,-0.00036717,0.00076233,0.00024137,-0.00029657,0.00075570,-0.11
 579251,0.06058456,0.12809274,0.00180288,0.00172570,-0.00040358,0.00011
 816,-0.00058139,-0.00056368,0.00022785,0.00307629,-0.00277056,-0.01366
 716,0.00835813,0.01150246,-0.23135253,0.10504756,0.11072381,0.00371601
 ,0.00109975,-0.00059170,-0.00064357,-0.00154090,-0.00012381,-0.0002305
 4,-0.00150580,0.00078286,-0.00066132,0.00053048,0.00010402,0.00019927,
 -0.00015539,-0.00014071,-0.00004746,-0.00005552,0.00005076,0.24070814,
 0.00173867,0.00393085,0.00056262,-0.00056551,-0.00066679,0.00031148,0.
 00304939,0.00390547,0.00174715,0.00918536,-0.00269867,-0.00660195,0.10
 500688,-0.09050654,-0.05816623,0.00026216,0.00550571,0.00077740,-0.001
 54481,-0.00258848,-0.00011751,-0.00145239,-0.00209608,-0.00055035,0.00
 056908,-0.00000574,-0.00005251,-0.00020038,0.00001684,0.00009361,-0.00
 005594,-0.00011317,-0.00003506,-0.11568659,0.08587950,-0.00080354,0.00
 078330,-0.00567505,-0.00105990,0.00058535,-0.00099047,-0.00193502,0.00
 128616,-0.00116560,-0.01423482,0.00759440,0.01016387,0.11198390,-0.058
 86091,-0.12494163,0.02547526,-0.01360117,-0.00834803,-0.00000165,-0.00
 018496,0.00234058,-0.00087952,0.00036655,0.00077518,-0.00109717,0.0006
 1008,0.00015488,0.00125920,-0.00067856,-0.00058902,0.00006378,-0.00004
 224,0.00007459,-0.11861141,0.06208887,0.12785782,0.00131506,-0.0010305
 0,-0.00201707,-0.00054139,-0.00014790,-0.00048526,-0.00052030,0.000335
 13,0.00074333,0.00183184,-0.00002947,-0.00108223,-0.00441811,0.0038357
 5,-0.00235679,0.00097728,-0.00133175,-0.03997105,-0.04658677,0.0209131
 2,0.09834980,-0.00027222,0.00007197,0.00003848,0.00009274,-0.00007195,
 0.00017714,-0.00068820,0.00067436,0.00155589,0.00008993,-0.00003843,0.
 00006265,-0.00016972,-0.00030591,-0.00015912,0.04888987,-0.00120645,-0
 .00003494,0.00092230,-0.00016740,-0.00075462,0.00027610,0.00036282,-0.
 00005594,-0.00041692,-0.00008469,0.00173928,0.00068878,0.00385914,0.00
 022760,0.00132575,-0.00272887,-0.00297692,0.02270871,0.02244661,-0.014
 12064,-0.03836424,0.00007715,-0.00018125,-0.00002666,-0.00007710,0.000
 01856,-0.00010683,0.00074831,0.00023943,-0.00083359,-0.00004278,0.0000
 4868,-0.00003790,-0.00031231,-0.00056291,0.00005316,-0.02287441,0.0164
 1367,0.00346759,-0.00210327,0.00526621,0.00012152,-0.00005774,-0.00111
 290,-0.00012431,0.00006134,0.00035389,0.00064291,-0.00026313,-0.001128
 11,-0.00306918,0.00171832,0.00159331,0.00374839,-0.00141208,-0.0242265
 0,0.05036472,-0.01188947,-0.50009604,-0.00012220,0.00006181,0.00003424
 ,0.00033467,-0.00019372,0.00025514,-0.00074886,0.00043730,-0.00014011,
 0.00019899,-0.00011317,0.00012891,0.00004152,-0.00005753,0.00034289,-0
 .05485577,0.01381134,0.51872907\\0.00024689,-0.00013773,0.00005219,-0.
 00022748,0.00013422,-0.00027411,-0.00022751,0.00012089,0.00015474,0.00
 029250,-0.00016413,0.00006106,-0.00016501,0.00010092,-0.00032391,-0.00
 006226,0.00003105,0.00013306,0.00005533,-0.00003075,0.00003361,-0.0000
 0021,-0.00000054,0.00003021,0.00008327,-0.00004702,0.00003312,-0.00004
 234,0.00002375,-0.00001091,0.00003201,-0.00001863,0.00002649,0.0000411
 1,-0.00002567,0.00008928,-0.00002630,0.00001363,-0.00000481\\\@


 THE LENGTH OF A MEETING IS PROPORTIONAL TO THE
 SQUARE OF THE PARTICIPANTS.
 Job cpu time:       0 days  0 hours  6 minutes 10.3 seconds.
 File lengths (MBytes):  RWF=    134 Int=      0 D2E=      0 Chk=      4 Scr=      2
 Normal termination of Gaussian 09 at Fri Mar 21 11:48:26 2025.
