 Entering Gaussian System, Link 0=g09
 Initial command:
 /apps/z_install_tree/linux-rocky8-ivybridge/gcc-12.2.0/gaussian-09-D.01-wczn3gur5lpur3omlkzwa2l5ecyxp5ef/g09/l1.exe "/srv/scratch/z5358697/gauss/Gau-4063446.inp" -scrdir="/srv/scratch/z5358697/gauss/"
 Entering Link 1 = /apps/z_install_tree/linux-rocky8-ivybridge/gcc-12.2.0/gaussian-09-D.01-wczn3gur5lpur3omlkzwa2l5ecyxp5ef/g09/l1.exe PID=   4063448.
  
 Copyright (c) 1988,1990,1992,1993,1995,1998,2003,2009,2013,
            Gaussian, Inc.  All Rights Reserved.
  
 This is part of the Gaussian(R) 09 program.  It is based on
 the Gaussian(R) 03 system (copyright 2003, Gaussian, Inc.),
 the Gaussian(R) 98 system (copyright 1998, Gaussian, Inc.),
 the Gaussian(R) 94 system (copyright 1995, Gaussian, Inc.),
 the Gaussian 92(TM) system (copyright 1992, Gaussian, Inc.),
 the Gaussian 90(TM) system (copyright 1990, Gaussian, Inc.),
 the Gaussian 88(TM) system (copyright 1988, Gaussian, Inc.),
 the Gaussian 86(TM) system (copyright 1986, Carnegie Mellon
 University), and the Gaussian 82(TM) system (copyright 1983,
 Carnegie Mellon University). Gaussian is a federally registered
 trademark of Gaussian, Inc.
  
 This software contains proprietary and confidential information,
 including trade secrets, belonging to Gaussian, Inc.
  
 This software is provided under written license and may be
 used, copied, transmitted, or stored only in accord with that
 written license.
  
 The following legend is applicable only to US Government
 contracts under FAR:
  
                    RESTRICTED RIGHTS LEGEND
  
 Use, reproduction and disclosure by the US Government is
 subject to restrictions as set forth in subparagraphs (a)
 and (c) of the Commercial Computer Software - Restricted
 Rights clause in FAR 52.227-19.
  
 Gaussian, Inc.
 340 Quinnipiac St., Bldg. 40, Wallingford CT 06492
  
  
 ---------------------------------------------------------------
 Warning -- This program may not be used in any manner that
 competes with the business of Gaussian, Inc. or will provide
 assistance to any competitor of Gaussian, Inc.  The licensee
 of this program is prohibited from giving any competitor of
 Gaussian, Inc. access to this program.  By using this program,
 the user acknowledges that Gaussian, Inc. is engaged in the
 business of creating and licensing software in the field of
 computational chemistry and represents and warrants to the
 licensee that it is not a competitor of Gaussian, Inc. and that
 it will not use this program in any manner prohibited above.
 ---------------------------------------------------------------
  

 Cite this work as:
 Gaussian 09, Revision D.01,
 M. J. Frisch, G. W. Trucks, H. B. Schlegel, G. E. Scuseria, 
 M. A. Robb, J. R. Cheeseman, G. Scalmani, V. Barone, B. Mennucci, 
 G. A. Petersson, H. Nakatsuji, M. Caricato, X. Li, H. P. Hratchian, 
 A. F. Izmaylov, J. Bloino, G. Zheng, J. L. Sonnenberg, M. Hada, 
 M. Ehara, K. Toyota, R. Fukuda, J. Hasegawa, M. Ishida, T. Nakajima, 
 Y. Honda, O. Kitao, H. Nakai, T. Vreven, J. A. Montgomery, Jr., 
 J. E. Peralta, F. Ogliaro, M. Bearpark, J. J. Heyd, E. Brothers, 
 K. N. Kudin, V. N. Staroverov, T. Keith, R. Kobayashi, J. Normand, 
 K. Raghavachari, A. Rendell, J. C. Burant, S. S. Iyengar, J. Tomasi, 
 M. Cossi, N. Rega, J. M. Millam, M. Klene, J. E. Knox, J. B. Cross, 
 V. Bakken, C. Adamo, J. Jaramillo, R. Gomperts, R. E. Stratmann, 
 O. Yazyev, A. J. Austin, R. Cammi, C. Pomelli, J. W. Ochterski, 
 R. L. Martin, K. Morokuma, V. G. Zakrzewski, G. A. Voth, 
 P. Salvador, J. J. Dannenberg, S. Dapprich, A. D. Daniels, 
 O. Farkas, J. B. Foresman, J. V. Ortiz, J. Cioslowski, 
 and D. J. Fox, Gaussian, Inc., Wallingford CT, 2013.
 
 ******************************************
 Gaussian 09:  ES64L-G09RevD.01 24-Apr-2013
                21-Mar-2025 
 ******************************************
 ---------------------------------
 #m062X/6-31+G(d) OPT Freq=noraman
 ---------------------------------
 1/14=-1,18=20,19=15,26=3,38=1/1,3;
 2/9=110,12=2,17=6,18=5,40=1/2;
 3/5=1,6=6,7=11,11=2,16=1,25=1,30=1,71=1,74=-55/1,2,3;
 4//1;
 5/5=2,38=5/2;
 6/7=2,8=2,9=2,10=2,28=1/1;
 7//1,2,3,16;
 1/14=-1,18=20,19=15,26=3/3(2);
 2/9=110/2;
 99//99;
 2/9=110/2;
 3/5=1,6=6,7=11,11=2,16=1,25=1,30=1,71=1,74=-55/1,2,3;
 4/5=5,16=3,69=1/1;
 5/5=2,38=5/2;
 7//1,2,3,16;
 1/14=-1,18=20,19=15,26=3/3(-5);
 2/9=110/2;
 6/7=2,8=2,9=2,10=2,19=2,28=1/1;
 99/9=1/99;
 -----------------
 2-methylthiophene
 -----------------
 Symbolic Z-matrix:
 Charge =  0 Multiplicity = 1
 C                    -1.8295   -2.2094   -0.4535 
 C                    -1.3504   -1.0945   -1.299 
 C                    -0.4682   -0.0882   -0.9718 
 C                    -0.2528    0.8087   -2.0577 
 C                    -0.9783    0.4538   -3.1737 
 S                    -1.9146   -0.9556   -2.9098 
 H                    -1.1678   -3.074    -0.5638 
 H                    -1.8564   -1.9166    0.6013 
 H                    -2.8464   -2.5036   -0.7339 
 H                     0.0016    0.0052   -0.0008 
 H                     0.4002    1.6709   -2.0228 
 H                    -1.0031    0.9544   -4.1313 
 

 GradGradGradGradGradGradGradGradGradGradGradGradGradGradGradGradGradGrad
 Berny optimization.
 Initialization pass.
                           ----------------------------
                           !    Initial Parameters    !
                           ! (Angstroms and Degrees)  !
 --------------------------                            --------------------------
 ! Name  Definition              Value          Derivative Info.                !
 --------------------------------------------------------------------------------
 ! R1    R(1,2)                  1.479          estimate D2E/DX2                !
 ! R2    R(1,7)                  1.0943         estimate D2E/DX2                !
 ! R3    R(1,8)                  1.095          estimate D2E/DX2                !
 ! R4    R(1,9)                  1.0951         estimate D2E/DX2                !
 ! R5    R(2,3)                  1.3777         estimate D2E/DX2                !
 ! R6    R(2,6)                  1.7124         estimate D2E/DX2                !
 ! R7    R(3,4)                  1.4248         estimate D2E/DX2                !
 ! R8    R(3,10)                 1.0827         estimate D2E/DX2                !
 ! R9    R(4,5)                  1.3776         estimate D2E/DX2                !
 ! R10   R(4,11)                 1.0821         estimate D2E/DX2                !
 ! R11   R(5,6)                  1.7125         estimate D2E/DX2                !
 ! R12   R(5,12)                 1.0808         estimate D2E/DX2                !
 ! A1    A(2,1,7)              110.004          estimate D2E/DX2                !
 ! A2    A(2,1,8)              110.9203         estimate D2E/DX2                !
 ! A3    A(2,1,9)              110.9125         estimate D2E/DX2                !
 ! A4    A(7,1,8)              108.857          estimate D2E/DX2                !
 ! A5    A(7,1,9)              108.8699         estimate D2E/DX2                !
 ! A6    A(8,1,9)              107.1976         estimate D2E/DX2                !
 ! A7    A(1,2,3)              128.483          estimate D2E/DX2                !
 ! A8    A(1,2,6)              119.4835         estimate D2E/DX2                !
 ! A9    A(3,2,6)              112.0334         estimate D2E/DX2                !
 ! A10   A(2,3,4)              112.0618         estimate D2E/DX2                !
 ! A11   A(2,3,10)             123.6324         estimate D2E/DX2                !
 ! A12   A(4,3,10)             124.3057         estimate D2E/DX2                !
 ! A13   A(3,4,5)              112.0635         estimate D2E/DX2                !
 ! A14   A(3,4,11)             124.6253         estimate D2E/DX2                !
 ! A15   A(5,4,11)             123.3112         estimate D2E/DX2                !
 ! A16   A(4,5,6)              112.0319         estimate D2E/DX2                !
 ! A17   A(4,5,12)             127.6258         estimate D2E/DX2                !
 ! A18   A(6,5,12)             120.3423         estimate D2E/DX2                !
 ! A19   A(2,6,5)               91.8094         estimate D2E/DX2                !
 ! D1    D(7,1,2,3)            -90.0751         estimate D2E/DX2                !
 ! D2    D(7,1,2,6)             90.0094         estimate D2E/DX2                !
 ! D3    D(8,1,2,3)             30.4155         estimate D2E/DX2                !
 ! D4    D(8,1,2,6)           -149.5            estimate D2E/DX2                !
 ! D5    D(9,1,2,3)            149.4231         estimate D2E/DX2                !
 ! D6    D(9,1,2,6)            -30.4924         estimate D2E/DX2                !
 ! D7    D(1,2,3,4)           -179.9121         estimate D2E/DX2                !
 ! D8    D(1,2,3,10)            -0.0045         estimate D2E/DX2                !
 ! D9    D(6,2,3,4)              0.0086         estimate D2E/DX2                !
 ! D10   D(6,2,3,10)           179.9162         estimate D2E/DX2                !
 ! D11   D(1,2,6,5)            179.9252         estimate D2E/DX2                !
 ! D12   D(3,2,6,5)             -0.0035         estimate D2E/DX2                !
 ! D13   D(2,3,4,5)             -0.0108         estimate D2E/DX2                !
 ! D14   D(2,3,4,11)           179.9436         estimate D2E/DX2                !
 ! D15   D(10,3,4,5)          -179.9176         estimate D2E/DX2                !
 ! D16   D(10,3,4,11)            0.0368         estimate D2E/DX2                !
 ! D17   D(3,4,5,6)              0.0081         estimate D2E/DX2                !
 ! D18   D(3,4,5,12)          -179.9704         estimate D2E/DX2                !
 ! D19   D(11,4,5,6)          -179.9469         estimate D2E/DX2                !
 ! D20   D(11,4,5,12)            0.0746         estimate D2E/DX2                !
 ! D21   D(4,5,6,2)             -0.0028         estimate D2E/DX2                !
 ! D22   D(12,5,6,2)           179.9775         estimate D2E/DX2                !
 --------------------------------------------------------------------------------
 Trust Radius=3.00D-01 FncErr=1.00D-07 GrdErr=1.00D-06
 Number of steps in this run=     63 maximum allowed number of steps=    100.
 GradGradGradGradGradGradGradGradGradGradGradGradGradGradGradGradGradGrad

                          Input orientation:                          
 ---------------------------------------------------------------------
 Center     Atomic      Atomic             Coordinates (Angstroms)
 Number     Number       Type             X           Y           Z
 ---------------------------------------------------------------------
      1          6           0       -1.829500   -2.209400   -0.453500
      2          6           0       -1.350400   -1.094500   -1.299000
      3          6           0       -0.468200   -0.088200   -0.971800
      4          6           0       -0.252800    0.808700   -2.057700
      5          6           0       -0.978300    0.453800   -3.173700
      6         16           0       -1.914600   -0.955600   -2.909800
      7          1           0       -1.167800   -3.074000   -0.563800
      8          1           0       -1.856400   -1.916600    0.601300
      9          1           0       -2.846400   -2.503600   -0.733900
     10          1           0        0.001600    0.005200   -0.000800
     11          1           0        0.400200    1.670900   -2.022800
     12          1           0       -1.003100    0.954400   -4.131300
 ---------------------------------------------------------------------
                    Distance matrix (angstroms):
                    1          2          3          4          5
     1  C    0.000000
     2  C    1.478989   0.000000
     3  C    2.573181   1.377671   0.000000
     4  C    3.764089   2.324333   1.424783   0.000000
     5  C    3.900854   2.459714   2.324291   1.377592   0.000000
     6  S    2.759106   1.712393   2.569105   2.569126   1.712515
     7  H    1.094325   2.119500   3.093688   4.259615   4.392364
     8  H    1.095015   2.131437   2.782946   4.131474   4.543180
     9  H    1.095109   2.131412   3.398027   4.410276   4.264814
    10  H    2.909006   2.173147   1.082717   2.222874   3.350931
    11  H    4.742467   3.352003   2.225568   1.082135   2.169370
    12  H    4.921258   3.512909   3.369803   2.209976   1.080839
                    6          7          8          9         10
     6  S    0.000000
     7  H    3.247929   0.000000
     8  H    3.640705   1.780787   0.000000
     9  H    2.828267   1.781008   1.762790   0.000000
    10  H    3.613480   3.341547   2.740074   3.865568   0.000000
    11  H    3.611588   5.205899   4.984807   5.443172   2.649891
    12  H    2.443562   5.383511   5.600738   5.186313   4.355621
                   11         12
    11  H    0.000000
    12  H    2.632185   0.000000
 Stoichiometry    C5H6S
 Framework group  C1[X(C5H6S)]
 Deg. of freedom    30
 Full point group                 C1      NOp   1
 Largest Abelian subgroup         C1      NOp   1
 Largest concise Abelian subgroup C1      NOp   1
                         Standard orientation:                         
 ---------------------------------------------------------------------
 Center     Atomic      Atomic             Coordinates (Angstroms)
 Number     Number       Type             X           Y           Z
 ---------------------------------------------------------------------
      1          6           0       -2.235170    0.136403    0.000784
      2          6           0       -0.759888    0.241066    0.001218
      3          6           0        0.018947    1.377460    0.000774
      4          6           0        1.410687    1.072402   -0.000592
      5          6           0        1.642802   -0.285495   -0.000900
      6         16           0        0.186279   -1.186189    0.000230
      7          1           0       -2.608836    0.109208    1.028976
      8          1           0       -2.687430    0.988264   -0.517725
      9          1           0       -2.562578   -0.770098   -0.519141
     10          1           0       -0.385640    2.381744   -0.000060
     11          1           0        2.201962    1.810574   -0.002021
     12          1           0        2.597784   -0.791679   -0.001412
 ---------------------------------------------------------------------
 Rotational constants (GHZ):      5.2549266      3.1916329      2.0110615
 Standard basis: 6-31+G(d) (6D, 7F)
 There are   130 symmetry adapted cartesian basis functions of A   symmetry.
 There are   130 symmetry adapted basis functions of A   symmetry.
   130 basis functions,   240 primitive gaussians,   130 cartesian basis functions
    26 alpha electrons       26 beta electrons
       nuclear repulsion energy       274.1143526710 Hartrees.
 NAtoms=   12 NActive=   12 NUniq=   12 SFac= 1.00D+00 NAtFMM=   60 NAOKFM=F Big=F
 Integral buffers will be    131072 words long.
 Raffenetti 2 integral format.
 Two-electron integral symmetry is turned on.
 One-electron integrals computed using PRISM.
 NBasis=   130 RedAO= T EigKep=  1.33D-05  NBF=   130
 NBsUse=   130 1.00D-06 EigRej= -1.00D+00 NBFU=   130
 ExpMin= 4.05D-02 ExpMax= 2.19D+04 ExpMxC= 3.30D+03 IAcc=2 IRadAn=         4 AccDes= 0.00D+00
 Harris functional with IExCor= 1009 and IRadAn=       4 diagonalized for initial guess.
 HarFok:  IExCor= 1009 AccDes= 0.00D+00 IRadAn=         4 IDoV= 1 UseB2=F ITyADJ=14
 ICtDFT=  3500011 ScaDFX=  1.000000  1.000000  1.000000  1.000000
 FoFCou: FMM=F IPFlag=           0 FMFlag=      100000 FMFlg1=           0
         NFxFlg=           0 DoJE=T BraDBF=F KetDBF=T FulRan=T
         wScrn=  0.000000 ICntrl=     500 IOpCl=  0 I1Cent=   200000004 NGrid=           0
         NMat0=    1 NMatS0=      1 NMatT0=    0 NMatD0=    1 NMtDS0=    0 NMtDT0=    0
 Petite list used in FoFCou.
 Requested convergence on RMS density matrix=1.00D-08 within 128 cycles.
 Requested convergence on MAX density matrix=1.00D-06.
 Requested convergence on             energy=1.00D-06.
 No special actions if energy rises.
 SCF Done:  E(RM062X) =  -592.197367204     A.U. after   14 cycles
            NFock= 14  Conv=0.45D-08     -V/T= 2.0048

 **********************************************************************

            Population analysis using the SCF density.

 **********************************************************************

 Orbital symmetries:
       Occupied  (A) (A) (A) (A) (A) (A) (A) (A) (A) (A) (A) (A)
                 (A) (A) (A) (A) (A) (A) (A) (A) (A) (A) (A) (A)
                 (A) (A)
       Virtual   (A) (A) (A) (A) (A) (A) (A) (A) (A) (A) (A) (A)
                 (A) (A) (A) (A) (A) (A) (A) (A) (A) (A) (A) (A)
                 (A) (A) (A) (A) (A) (A) (A) (A) (A) (A) (A) (A)
                 (A) (A) (A) (A) (A) (A) (A) (A) (A) (A) (A) (A)
                 (A) (A) (A) (A) (A) (A) (A) (A) (A) (A) (A) (A)
                 (A) (A) (A) (A) (A) (A) (A) (A) (A) (A) (A) (A)
                 (A) (A) (A) (A) (A) (A) (A) (A) (A) (A) (A) (A)
                 (A) (A) (A) (A) (A) (A) (A) (A) (A) (A) (A) (A)
                 (A) (A) (A) (A) (A) (A) (A) (A)
 The electronic state is 1-A.
 Alpha  occ. eigenvalues --  -89.95014 -10.58205 -10.57337 -10.55425 -10.55414
 Alpha  occ. eigenvalues --  -10.55020  -8.29591  -6.21590  -6.21365  -6.21164
 Alpha  occ. eigenvalues --   -0.98540  -0.86325  -0.82535  -0.76292  -0.63717
 Alpha  occ. eigenvalues --   -0.60964  -0.57295  -0.50362  -0.49607  -0.46379
 Alpha  occ. eigenvalues --   -0.44184  -0.43177  -0.42246  -0.40119  -0.30286
 Alpha  occ. eigenvalues --   -0.27665
 Alpha virt. eigenvalues --    0.01502   0.02295   0.02550   0.03795   0.04215
 Alpha virt. eigenvalues --    0.05308   0.05770   0.05922   0.07326   0.08018
 Alpha virt. eigenvalues --    0.09059   0.09366   0.09936   0.10934   0.13073
 Alpha virt. eigenvalues --    0.13299   0.14545   0.16068   0.16412   0.16766
 Alpha virt. eigenvalues --    0.17136   0.17804   0.19418   0.19700   0.21783
 Alpha virt. eigenvalues --    0.22173   0.22699   0.23340   0.25863   0.26714
 Alpha virt. eigenvalues --    0.29292   0.30979   0.31907   0.33460   0.35305
 Alpha virt. eigenvalues --    0.36503   0.42223   0.52510   0.53410   0.54058
 Alpha virt. eigenvalues --    0.59405   0.62415   0.65771   0.69742   0.71240
 Alpha virt. eigenvalues --    0.72465   0.72959   0.75781   0.78107   0.78716
 Alpha virt. eigenvalues --    0.79608   0.80745   0.82997   0.87985   0.92891
 Alpha virt. eigenvalues --    0.94887   0.96724   0.97737   1.02008   1.02146
 Alpha virt. eigenvalues --    1.03110   1.06241   1.08727   1.09767   1.13313
 Alpha virt. eigenvalues --    1.14688   1.17847   1.19561   1.20979   1.28297
 Alpha virt. eigenvalues --    1.37962   1.40759   1.46857   1.51350   1.52114
 Alpha virt. eigenvalues --    1.54660   1.69546   1.84473   1.88294   1.92631
 Alpha virt. eigenvalues --    1.97177   2.02301   2.06107   2.06870   2.21222
 Alpha virt. eigenvalues --    2.25868   2.28573   2.30037   2.31784   2.37539
 Alpha virt. eigenvalues --    2.40668   2.43008   2.51008   2.64072   2.70793
 Alpha virt. eigenvalues --    2.77012   2.92692   3.06294   4.02380   4.23383
 Alpha virt. eigenvalues --    4.26943   4.32205   4.45898   4.54651
          Condensed to atoms (all electrons):
               1          2          3          4          5          6
     1  C    5.906272  -0.296508   0.052614  -0.063217   0.034878  -0.065919
     2  C   -0.296508   6.042813   0.169366   0.055260  -0.172457   0.451513
     3  C    0.052614   0.169366   5.494999   0.396081  -0.091271  -0.277898
     4  C   -0.063217   0.055260   0.396081   5.009657   0.565121   0.010389
     5  C    0.034878  -0.172457  -0.091271   0.565121   5.320741   0.284598
     6  S   -0.065919   0.451513  -0.277898   0.010389   0.284598  15.517976
     7  H    0.405323  -0.031837  -0.037512   0.002723  -0.002767  -0.002800
     8  H    0.441924  -0.130149   0.030797   0.003934  -0.001332   0.001691
     9  H    0.429087  -0.091242   0.004248  -0.006250   0.003581   0.007649
    10  H   -0.019444   0.045892   0.256823   0.004970  -0.001853   0.013526
    11  H   -0.001244   0.007453  -0.023898   0.320491  -0.004034   0.005901
    12  H    0.000497   0.005010   0.012579   0.002334   0.331204  -0.033918
               7          8          9         10         11         12
     1  C    0.405323   0.441924   0.429087  -0.019444  -0.001244   0.000497
     2  C   -0.031837  -0.130149  -0.091242   0.045892   0.007453   0.005010
     3  C   -0.037512   0.030797   0.004248   0.256823  -0.023898   0.012579
     4  C    0.002723   0.003934  -0.006250   0.004970   0.320491   0.002334
     5  C   -0.002767  -0.001332   0.003581  -0.001853  -0.004034   0.331204
     6  S   -0.002800   0.001691   0.007649   0.013526   0.005901  -0.033918
     7  H    0.479134  -0.025756  -0.027034   0.000133   0.000002   0.000001
     8  H   -0.025756   0.477155  -0.025469   0.000985  -0.000003   0.000002
     9  H   -0.027034  -0.025469   0.487764   0.000017   0.000002  -0.000003
    10  H    0.000133   0.000985   0.000017   0.490927  -0.002019  -0.000073
    11  H    0.000002  -0.000003   0.000002  -0.002019   0.485541  -0.002312
    12  H    0.000001   0.000002  -0.000003  -0.000073  -0.002312   0.446258
 Mulliken charges:
               1
     1  C   -0.824262
     2  C   -0.055114
     3  C    0.013072
     4  C   -0.301494
     5  C   -0.266409
     6  S    0.087292
     7  H    0.240390
     8  H    0.226221
     9  H    0.217649
    10  H    0.210115
    11  H    0.214121
    12  H    0.238421
 Sum of Mulliken charges =   0.00000
 Mulliken charges with hydrogens summed into heavy atoms:
               1
     1  C   -0.140002
     2  C   -0.055114
     3  C    0.223187
     4  C   -0.087373
     5  C   -0.027989
     6  S    0.087292
 Electronic spatial extent (au):  <R**2>=            626.2551
 Charge=              0.0000 electrons
 Dipole moment (field-independent basis, Debye):
    X=             -0.4503    Y=              0.4615    Z=              0.0060  Tot=              0.6448
 Quadrupole moment (field-independent basis, Debye-Ang):
   XX=            -38.2267   YY=            -41.4845   ZZ=            -47.0699
   XY=             -0.5814   XZ=              0.0412   YZ=              0.0066
 Traceless Quadrupole moment (field-independent basis, Debye-Ang):
   XX=              4.0337   YY=              0.7758   ZZ=             -4.8095
   XY=             -0.5814   XZ=              0.0412   YZ=              0.0066
 Octapole moment (field-independent basis, Debye-Ang**2):
  XXX=              3.6628  YYY=              4.4775  ZZZ=              0.7080  XYY=              1.8872
  XXY=             -1.6923  XXZ=             -0.2930  XZZ=             -4.3515  YZZ=             -2.1772
  YYZ=             -0.6806  XYZ=              0.0459
 Hexadecapole moment (field-independent basis, Debye-Ang**3):
 XXXX=           -490.5269 YYYY=           -293.8200 ZZZZ=            -66.4867 XXXY=             -4.0403
 XXXZ=              0.9114 YYYX=             -1.1499 YYYZ=             -0.1960 ZZZX=             -1.8024
 ZZZY=              0.0984 XXYY=           -124.4131 XXZZ=           -101.7849 YYZZ=            -67.9397
 XXYZ=             -0.2875 YYXZ=              1.8390 ZZXY=             -1.1234
 N-N= 2.741143526710D+02 E-N=-1.943117349353D+03  KE= 5.893689472923D+02
 Calling FoFJK, ICntrl=      2127 FMM=F ISym2X=0 I1Cent= 0 IOpClX= 0 NMat=1 NMatS=1 NMatT=0.
 ***** Axes restored to original set *****
 -------------------------------------------------------------------
 Center     Atomic                   Forces (Hartrees/Bohr)
 Number     Number              X              Y              Z
 -------------------------------------------------------------------
      1        6          -0.003914196   -0.008229543    0.007609649
      2        6           0.007326738    0.011257984    0.008157123
      3        6          -0.007396402   -0.005941138   -0.007208339
      4        6          -0.006274915   -0.003960071   -0.010312408
      5        6           0.009284205    0.009724872    0.003546416
      6       16          -0.000494468    0.001948289   -0.004806605
      7        1          -0.001859603   -0.002843460    0.002063609
      8        1           0.001785551   -0.000761281   -0.000677324
      9        1           0.001238248   -0.002083388    0.000667039
     10        1          -0.000354439   -0.000639397    0.001583208
     11        1           0.000618156    0.001106920   -0.000132428
     12        1           0.000041126    0.000420212   -0.000489939
 -------------------------------------------------------------------
 Cartesian Forces:  Max     0.011257984 RMS     0.005118602

 GradGradGradGradGradGradGradGradGradGradGradGradGradGradGradGradGradGrad
 Berny optimization.
 FormGI is forming the generalized inverse of G from B-inverse, IUseBI=4.
 Internal  Forces:  Max     0.016908264 RMS     0.004151998
 Search for a local minimum.
 Step number   1 out of a maximum of   63
 All quantities printed in internal units (Hartrees-Bohrs-Radians)
 Mixed Optimization -- RFO/linear search
 Second derivative matrix not updated -- first step.
 ITU=  0
     Eigenvalues ---    0.01044   0.01557   0.01821   0.01965   0.02086
     Eigenvalues ---    0.02153   0.02207   0.07461   0.07482   0.16000
     Eigenvalues ---    0.16000   0.16000   0.16000   0.16000   0.16000
     Eigenvalues ---    0.22134   0.23824   0.25000   0.33298   0.33519
     Eigenvalues ---    0.34229   0.34239   0.34318   0.34686   0.35668
     Eigenvalues ---    0.35738   0.35893   0.40604   0.46118   0.49133
 RFO step:  Lambda=-3.07145430D-03 EMin= 1.04387997D-02
 Linear search not attempted -- first point.
 Iteration  1 RMS(Cart)=  0.03561879 RMS(Int)=  0.00039985
 Iteration  2 RMS(Cart)=  0.00048792 RMS(Int)=  0.00013314
 Iteration  3 RMS(Cart)=  0.00000018 RMS(Int)=  0.00013314
 Variable       Old X    -DE/DX   Delta X   Delta X   Delta X     New X
                                 (Linear)    (Quad)   (Total)
    R1        2.79488   0.01691   0.00000   0.04832   0.04832   2.84320
    R2        2.06797   0.00091   0.00000   0.00264   0.00264   2.07061
    R3        2.06928  -0.00089   0.00000  -0.00259  -0.00259   2.06669
    R4        2.06946  -0.00077   0.00000  -0.00222  -0.00222   2.06724
    R5        2.60342  -0.00803   0.00000  -0.01640  -0.01632   2.58710
    R6        3.23595   0.00846   0.00000   0.02535   0.02535   3.26130
    R7        2.69245   0.00504   0.00000   0.01090   0.01096   2.70341
    R8        2.04604   0.00121   0.00000   0.00336   0.00336   2.04940
    R9        2.60327  -0.01147   0.00000  -0.02341  -0.02344   2.57983
   R10        2.04494   0.00125   0.00000   0.00346   0.00346   2.04840
   R11        3.23619   0.00463   0.00000   0.01421   0.01412   3.25031
   R12        2.04249   0.00063   0.00000   0.00174   0.00174   2.04423
    A1        1.91993   0.00479   0.00000   0.02792   0.02784   1.94777
    A2        1.93592  -0.00139   0.00000  -0.00885  -0.00881   1.92712
    A3        1.93579   0.00225   0.00000   0.01557   0.01545   1.95124
    A4        1.89991  -0.00245   0.00000  -0.01845  -0.01838   1.88154
    A5        1.90014  -0.00356   0.00000  -0.02119  -0.02141   1.87872
    A6        1.87095   0.00008   0.00000   0.00331   0.00332   1.87427
    A7        2.24245   0.00098   0.00000   0.00377   0.00363   2.24608
    A8        2.08538   0.00775   0.00000   0.03051   0.03035   2.11573
    A9        1.95535  -0.00873   0.00000  -0.03425  -0.03425   1.92110
   A10        1.95585   0.00591   0.00000   0.02335   0.02349   1.97934
   A11        2.15779  -0.00416   0.00000  -0.01908  -0.01917   2.13862
   A12        2.16954  -0.00175   0.00000  -0.00426  -0.00434   2.16520
   A13        1.95588   0.00298   0.00000   0.00998   0.01002   1.96589
   A14        2.17512  -0.00126   0.00000  -0.00356  -0.00358   2.17154
   A15        2.15219  -0.00172   0.00000  -0.00642  -0.00644   2.14574
   A16        1.95533  -0.00451   0.00000  -0.02037  -0.02048   1.93485
   A17        2.22749   0.00211   0.00000   0.00933   0.00937   2.23687
   A18        2.10037   0.00239   0.00000   0.01105   0.01109   2.11146
   A19        1.60238   0.00434   0.00000   0.02129   0.02114   1.62352
    D1       -1.57211   0.00031   0.00000  -0.00225  -0.00193  -1.57403
    D2        1.57096  -0.00023   0.00000  -0.03114  -0.03124   1.53972
    D3        0.53085  -0.00050   0.00000  -0.01269  -0.01250   0.51835
    D4       -2.60927  -0.00105   0.00000  -0.04158  -0.04181  -2.65108
    D5        2.60793   0.00016   0.00000  -0.00419  -0.00407   2.60385
    D6       -0.53219  -0.00039   0.00000  -0.03308  -0.03338  -0.56557
    D7       -3.14006  -0.00085   0.00000  -0.03901  -0.03863   3.10450
    D8       -0.00008  -0.00067   0.00000  -0.03016  -0.02982  -0.02990
    D9        0.00015  -0.00032   0.00000  -0.01183  -0.01191  -0.01175
   D10        3.14013  -0.00014   0.00000  -0.00298  -0.00309   3.13704
   D11        3.14029   0.00076   0.00000   0.03577   0.03579  -3.10711
   D12       -0.00006   0.00029   0.00000   0.01135   0.01142   0.01136
   D13       -0.00019   0.00018   0.00000   0.00591   0.00612   0.00594
   D14        3.14061   0.00007   0.00000   0.00293   0.00304  -3.13953
   D15       -3.14015   0.00000   0.00000  -0.00299  -0.00283   3.14020
   D16        0.00064  -0.00011   0.00000  -0.00597  -0.00591  -0.00527
   D17        0.00014   0.00004   0.00000   0.00263   0.00269   0.00283
   D18       -3.14108  -0.00011   0.00000  -0.00351  -0.00357   3.13854
   D19       -3.14067   0.00015   0.00000   0.00557   0.00571  -3.13495
   D20        0.00130   0.00000   0.00000  -0.00058  -0.00055   0.00076
   D21       -0.00005  -0.00019   0.00000  -0.00792  -0.00806  -0.00811
   D22        3.14120  -0.00005   0.00000  -0.00228  -0.00232   3.13888
         Item               Value     Threshold  Converged?
 Maximum Force            0.016908     0.000450     NO 
 RMS     Force            0.004152     0.000300     NO 
 Maximum Displacement     0.103436     0.001800     NO 
 RMS     Displacement     0.035594     0.001200     NO 
 Predicted change in Energy=-1.564934D-03
 GradGradGradGradGradGradGradGradGradGradGradGradGradGradGradGradGradGrad

                          Input orientation:                          
 ---------------------------------------------------------------------
 Center     Atomic      Atomic             Coordinates (Angstroms)
 Number     Number       Type             X           Y           Z
 ---------------------------------------------------------------------
      1          6           0       -1.831506   -2.231550   -0.434309
      2          6           0       -1.371435   -1.087353   -1.296193
      3          6           0       -0.495216   -0.081780   -0.987465
      4          6           0       -0.253041    0.814977   -2.075465
      5          6           0       -0.956205    0.482074   -3.197280
      6         16           0       -1.915127   -0.919704   -2.925520
      7          1           0       -1.183699   -3.107939   -0.547860
      8          1           0       -1.821473   -1.942713    0.620457
      9          1           0       -2.852171   -2.539743   -0.679164
     10          1           0       -0.032243    0.009056   -0.010974
     11          1           0        0.410182    1.671049   -2.027894
     12          1           0       -0.963766    0.984726   -4.155134
 ---------------------------------------------------------------------
                    Distance matrix (angstroms):
                    1          2          3          4          5
     1  C    0.000000
     2  C    1.504559   0.000000
     3  C    2.590977   1.369032   0.000000
     4  C    3.803455   2.340284   1.430583   0.000000
     5  C    3.970379   2.499929   2.326741   1.365186   0.000000
     6  S    2.816747   1.725808   2.544468   2.548380   1.719990
     7  H    1.095722   2.162872   3.134470   4.311493   4.467591
     8  H    1.093645   2.146561   2.794180   4.163272   4.604715
     9  H    1.093935   2.163965   3.419338   4.467581   4.366574
    10  H    2.904629   2.155768   1.084496   2.227193   3.351119
    11  H    4.774406   3.364271   2.230391   1.083968   2.155955
    12  H    4.994191   3.554328   3.375070   2.204306   1.081758
                    6          7          8          9         10
     6  S    0.000000
     7  H    3.313099   0.000000
     8  H    3.691784   1.769032   0.000000
     9  H    2.923815   1.767452   1.762895   0.000000
    10  H    3.591994   3.365970   2.722030   3.859384   0.000000
    11  H    3.595107   5.250684   5.005329   5.494796   2.650647
    12  H    2.458433   5.459918   5.666730   5.298144   4.358180
                   11         12
    11  H    0.000000
    12  H    2.623723   0.000000
 Stoichiometry    C5H6S
 Framework group  C1[X(C5H6S)]
 Deg. of freedom    30
 Full point group                 C1      NOp   1
 Largest Abelian subgroup         C1      NOp   1
 Largest concise Abelian subgroup C1      NOp   1
                         Standard orientation:                         
 ---------------------------------------------------------------------
 Center     Atomic      Atomic             Coordinates (Angstroms)
 Number     Number       Type             X           Y           Z
 ---------------------------------------------------------------------
      1          6           0       -2.279227    0.108063    0.014027
      2          6           0       -0.779383    0.224072   -0.012541
      3          6           0       -0.008402    1.355370   -0.013124
      4          6           0        1.396413    1.085752    0.006080
      5          6           0        1.674910   -0.250705    0.013561
      6         16           0        0.226584   -1.178218   -0.007332
      7          1           0       -2.662053    0.061248    1.039628
      8          1           0       -2.737439    0.972434   -0.474813
      9          1           0       -2.626815   -0.786620   -0.510779
     10          1           0       -0.435461    2.352214   -0.020334
     11          1           0        2.166684    1.848412    0.010535
     12          1           0        2.643875   -0.731510    0.025052
 ---------------------------------------------------------------------
 Rotational constants (GHZ):      5.3386042      3.0927595      1.9827358
 Standard basis: 6-31+G(d) (6D, 7F)
 There are   130 symmetry adapted cartesian basis functions of A   symmetry.
 There are   130 symmetry adapted basis functions of A   symmetry.
   130 basis functions,   240 primitive gaussians,   130 cartesian basis functions
    26 alpha electrons       26 beta electrons
       nuclear repulsion energy       272.9453646537 Hartrees.
 NAtoms=   12 NActive=   12 NUniq=   12 SFac= 1.00D+00 NAtFMM=   60 NAOKFM=F Big=F
 Integral buffers will be    131072 words long.
 Raffenetti 2 integral format.
 Two-electron integral symmetry is turned on.
 One-electron integrals computed using PRISM.
 NBasis=   130 RedAO= T EigKep=  1.32D-05  NBF=   130
 NBsUse=   130 1.00D-06 EigRej= -1.00D+00 NBFU=   130
 Initial guess from the checkpoint file:  "/srv/scratch/z5358697/gauss/Gau-4063448.chk"
 B after Tr=     0.000000    0.000000    0.000000
         Rot=    0.999955   -0.000571   -0.000022   -0.009505 Ang=  -1.09 deg.
 ExpMin= 4.05D-02 ExpMax= 2.19D+04 ExpMxC= 3.30D+03 IAcc=2 IRadAn=         4 AccDes= 0.00D+00
 Harris functional with IExCor= 1009 and IRadAn=       4 diagonalized for initial guess.
 HarFok:  IExCor= 1009 AccDes= 0.00D+00 IRadAn=         4 IDoV= 1 UseB2=F ITyADJ=14
 ICtDFT=  3500011 ScaDFX=  1.000000  1.000000  1.000000  1.000000
 FoFCou: FMM=F IPFlag=           0 FMFlag=      100000 FMFlg1=           0
         NFxFlg=           0 DoJE=T BraDBF=F KetDBF=T FulRan=T
         wScrn=  0.000000 ICntrl=     500 IOpCl=  0 I1Cent=   200000004 NGrid=           0
         NMat0=    1 NMatS0=      1 NMatT0=    0 NMatD0=    1 NMtDS0=    0 NMtDT0=    0
 Petite list used in FoFCou.
 Requested convergence on RMS density matrix=1.00D-08 within 128 cycles.
 Requested convergence on MAX density matrix=1.00D-06.
 Requested convergence on             energy=1.00D-06.
 No special actions if energy rises.
 SCF Done:  E(RM062X) =  -592.198643420     A.U. after   12 cycles
            NFock= 12  Conv=0.41D-08     -V/T= 2.0049
 Calling FoFJK, ICntrl=      2127 FMM=F ISym2X=0 I1Cent= 0 IOpClX= 0 NMat=1 NMatS=1 NMatT=0.
 ***** Axes restored to original set *****
 -------------------------------------------------------------------
 Center     Atomic                   Forces (Hartrees/Bohr)
 Number     Number              X              Y              Z
 -------------------------------------------------------------------
      1        6          -0.000220649    0.000721470   -0.000203066
      2        6           0.001091583    0.001164157    0.002649304
      3        6           0.000350147   -0.000454933   -0.000152473
      4        6           0.000054429    0.000154180    0.000177208
      5        6           0.001230104    0.000510131    0.003081904
      6       16          -0.003601084   -0.003807037   -0.005321988
      7        1           0.000100328    0.000531045   -0.000830059
      8        1           0.000938945    0.000886297   -0.000197813
      9        1           0.000049763    0.000479153   -0.000592560
     10        1           0.000338847    0.000374252    0.000448130
     11        1           0.000338154   -0.000014581    0.000866372
     12        1          -0.000670569   -0.000544135    0.000075042
 -------------------------------------------------------------------
 Cartesian Forces:  Max     0.005321988 RMS     0.001518279

 GradGradGradGradGradGradGradGradGradGradGradGradGradGradGradGradGradGrad
 Berny optimization.
 Using GEDIIS/GDIIS optimizer.
 FormGI is forming the generalized inverse of G from B-inverse, IUseBI=4.
 Internal  Forces:  Max     0.004265431 RMS     0.001272084
 Search for a local minimum.
 Step number   2 out of a maximum of   63
 All quantities printed in internal units (Hartrees-Bohrs-Radians)
 Mixed Optimization -- RFO/linear search
 Update second derivatives using D2CorX and points    1    2
 DE= -1.28D-03 DEPred=-1.56D-03 R= 8.16D-01
 TightC=F SS=  1.41D+00  RLast= 1.36D-01 DXNew= 5.0454D-01 4.0812D-01
 Trust test= 8.16D-01 RLast= 1.36D-01 DXMaxT set to 4.08D-01
 ITU=  1  0
 Use linear search instead of GDIIS.
     Eigenvalues ---    0.01026   0.01532   0.01853   0.01963   0.02087
     Eigenvalues ---    0.02161   0.02210   0.07266   0.07390   0.15564
     Eigenvalues ---    0.15999   0.16000   0.16000   0.16000   0.16475
     Eigenvalues ---    0.22084   0.24651   0.27451   0.30379   0.33370
     Eigenvalues ---    0.34228   0.34240   0.34319   0.35639   0.35731
     Eigenvalues ---    0.35886   0.38152   0.42237   0.46461   0.49050
 RFO step:  Lambda=-2.53927786D-04 EMin= 1.02566244D-02
 Quartic linear search produced a step of -0.14026.
 Iteration  1 RMS(Cart)=  0.01259207 RMS(Int)=  0.00011577
 Iteration  2 RMS(Cart)=  0.00013362 RMS(Int)=  0.00003227
 Iteration  3 RMS(Cart)=  0.00000001 RMS(Int)=  0.00003227
 Variable       Old X    -DE/DX   Delta X   Delta X   Delta X     New X
                                 (Linear)    (Quad)   (Total)
    R1        2.84320  -0.00330  -0.00678   0.00248  -0.00429   2.83891
    R2        2.07061  -0.00029  -0.00037  -0.00013  -0.00050   2.07011
    R3        2.06669   0.00005   0.00036  -0.00044  -0.00007   2.06662
    R4        2.06724  -0.00004   0.00031  -0.00060  -0.00029   2.06695
    R5        2.58710  -0.00075   0.00229  -0.00489  -0.00262   2.58448
    R6        3.26130   0.00305  -0.00356   0.01349   0.00993   3.27123
    R7        2.70341  -0.00237  -0.00154  -0.00266  -0.00421   2.69920
    R8        2.04940   0.00058  -0.00047   0.00214   0.00167   2.05107
    R9        2.57983   0.00045   0.00329  -0.00456  -0.00127   2.57856
   R10        2.04840   0.00023  -0.00049   0.00133   0.00084   2.04924
   R11        3.25031   0.00187  -0.00198   0.00787   0.00590   3.25621
   R12        2.04423  -0.00031  -0.00024  -0.00037  -0.00061   2.04361
    A1        1.94777  -0.00090  -0.00390   0.00058  -0.00332   1.94445
    A2        1.92712  -0.00125   0.00123  -0.00836  -0.00714   1.91998
    A3        1.95124  -0.00056  -0.00217   0.00079  -0.00136   1.94988
    A4        1.88154   0.00097   0.00258   0.00037   0.00292   1.88446
    A5        1.87872   0.00069   0.00300  -0.00152   0.00151   1.88023
    A6        1.87427   0.00122  -0.00047   0.00859   0.00812   1.88239
    A7        2.24608  -0.00178  -0.00051  -0.00558  -0.00606   2.24002
    A8        2.11573  -0.00118  -0.00426   0.00239  -0.00184   2.11389
    A9        1.92110   0.00296   0.00480   0.00287   0.00761   1.92871
   A10        1.97934  -0.00079  -0.00329   0.00175  -0.00164   1.97770
   A11        2.13862   0.00074   0.00269  -0.00064   0.00205   2.14068
   A12        2.16520   0.00006   0.00061  -0.00103  -0.00041   2.16479
   A13        1.96589  -0.00067  -0.00141  -0.00120  -0.00265   1.96324
   A14        2.17154  -0.00059   0.00050  -0.00405  -0.00353   2.16801
   A15        2.14574   0.00126   0.00090   0.00523   0.00616   2.15190
   A16        1.93485   0.00278   0.00287   0.00603   0.00888   1.94373
   A17        2.23687  -0.00060  -0.00131   0.00106  -0.00025   2.23662
   A18        2.11146  -0.00218  -0.00156  -0.00707  -0.00862   2.10284
   A19        1.62352  -0.00427  -0.00297  -0.00919  -0.01218   1.61134
    D1       -1.57403  -0.00018   0.00027  -0.01719  -0.01698  -1.59102
    D2        1.53972  -0.00033   0.00438  -0.03326  -0.02886   1.51087
    D3        0.51835  -0.00039   0.00175  -0.02194  -0.02021   0.49814
    D4       -2.65108  -0.00053   0.00586  -0.03800  -0.03209  -2.68317
    D5        2.60385  -0.00005   0.00057  -0.01620  -0.01565   2.58820
    D6       -0.56557  -0.00019   0.00468  -0.03226  -0.02753  -0.59310
    D7        3.10450   0.00025   0.00542   0.00266   0.00807   3.11256
    D8       -0.02990  -0.00006   0.00418  -0.00965  -0.00552  -0.03541
    D9       -0.01175   0.00043   0.00167   0.01728   0.01902   0.00727
   D10        3.13704   0.00012   0.00043   0.00496   0.00544  -3.14071
   D11       -3.10711  -0.00029  -0.00502  -0.00547  -0.01041  -3.11752
   D12        0.01136  -0.00047  -0.00160  -0.01894  -0.02053  -0.00917
   D13        0.00594  -0.00017  -0.00086  -0.00572  -0.00661  -0.00067
   D14       -3.13953  -0.00022  -0.00043  -0.01014  -0.01060   3.13306
   D15        3.14020   0.00014   0.00040   0.00681   0.00720  -3.13578
   D16       -0.00527   0.00009   0.00083   0.00239   0.00321  -0.00205
   D17        0.00283  -0.00018  -0.00038  -0.00871  -0.00915  -0.00632
   D18        3.13854  -0.00006   0.00050  -0.00468  -0.00421   3.13433
   D19       -3.13495  -0.00013  -0.00080  -0.00434  -0.00517  -3.14013
   D20        0.00076  -0.00001   0.00008  -0.00031  -0.00023   0.00052
   D21       -0.00811   0.00038   0.00113   0.01588   0.01700   0.00889
   D22        3.13888   0.00027   0.00033   0.01216   0.01246  -3.13184
         Item               Value     Threshold  Converged?
 Maximum Force            0.004265     0.000450     NO 
 RMS     Force            0.001272     0.000300     NO 
 Maximum Displacement     0.040260     0.001800     NO 
 RMS     Displacement     0.012613     0.001200     NO 
 Predicted change in Energy=-1.635267D-04
 GradGradGradGradGradGradGradGradGradGradGradGradGradGradGradGradGradGrad

                          Input orientation:                          
 ---------------------------------------------------------------------
 Center     Atomic      Atomic             Coordinates (Angstroms)
 Number     Number       Type             X           Y           Z
 ---------------------------------------------------------------------
      1          6           0       -1.831969   -2.226655   -0.435397
      2          6           0       -1.371028   -1.088380   -1.300687
      3          6           0       -0.493997   -0.086465   -0.988541
      4          6           0       -0.254746    0.813239   -2.071815
      5          6           0       -0.956064    0.477969   -3.193266
      6         16           0       -1.903285   -0.939182   -2.941120
      7          1           0       -1.193108   -3.107773   -0.559944
      8          1           0       -1.800168   -1.932924    0.617544
      9          1           0       -2.858251   -2.523522   -0.669865
     10          1           0       -0.037048    0.007579   -0.008543
     11          1           0        0.402976    1.673613   -2.016042
     12          1           0       -0.969013    0.983603   -4.149124
 ---------------------------------------------------------------------
                    Distance matrix (angstroms):
                    1          2          3          4          5
     1  C    0.000000
     2  C    1.502286   0.000000
     3  C    2.583903   1.367645   0.000000
     4  C    3.795584   2.335997   1.428353   0.000000
     5  C    3.960813   2.491485   2.322262   1.364516   0.000000
     6  S    2.818035   1.731062   2.554561   2.558193   1.723114
     7  H    1.095456   2.158310   3.130616   4.305882   4.455123
     8  H    1.093606   2.139399   2.773987   4.142752   4.587721
     9  H    1.093782   2.160879   3.410352   4.458439   4.358304
    10  H    2.897543   2.156448   1.085377   2.225663   3.347883
    11  H    4.765030   3.359677   2.226700   1.084413   2.159261
    12  H    4.984197   3.545183   3.370455   2.203273   1.081433
                    6          7          8          9         10
     6  S    0.000000
     7  H    3.298051   0.000000
     8  H    3.696247   1.770670   0.000000
     9  H    2.929282   1.768087   1.767984   0.000000
    10  H    3.602667   3.368374   2.695576   3.847468   0.000000
    11  H    3.605732   5.246843   4.979631   5.483040   2.645627
    12  H    2.455451   5.447182   5.649608   5.289082   4.354950
                   11         12
    11  H    0.000000
    12  H    2.628403   0.000000
 Stoichiometry    C5H6S
 Framework group  C1[X(C5H6S)]
 Deg. of freedom    30
 Full point group                 C1      NOp   1
 Largest Abelian subgroup         C1      NOp   1
 Largest concise Abelian subgroup C1      NOp   1
                         Standard orientation:                         
 ---------------------------------------------------------------------
 Center     Atomic      Atomic             Coordinates (Angstroms)
 Number     Number       Type             X           Y           Z
 ---------------------------------------------------------------------
      1          6           0       -2.274463    0.109722    0.007138
      2          6           0       -0.776655    0.223534   -0.014839
      3          6           0       -0.011647    1.357156   -0.004015
      4          6           0        1.391832    1.091934    0.005858
      5          6           0        1.670539   -0.243813    0.003198
      6         16           0        0.227932   -1.186144   -0.001186
      7          1           0       -2.655034    0.037977    1.031854
      8          1           0       -2.723569    0.991381   -0.458647
      9          1           0       -2.621487   -0.771798   -0.539537
     10          1           0       -0.441504    2.353771   -0.008974
     11          1           0        2.157548    1.859806    0.007474
     12          1           0        2.639502   -0.724029    0.002768
 ---------------------------------------------------------------------
 Rotational constants (GHZ):      5.2927904      3.1085048      1.9826660
 Standard basis: 6-31+G(d) (6D, 7F)
 There are   130 symmetry adapted cartesian basis functions of A   symmetry.
 There are   130 symmetry adapted basis functions of A   symmetry.
   130 basis functions,   240 primitive gaussians,   130 cartesian basis functions
    26 alpha electrons       26 beta electrons
       nuclear repulsion energy       272.8398652617 Hartrees.
 NAtoms=   12 NActive=   12 NUniq=   12 SFac= 1.00D+00 NAtFMM=   60 NAOKFM=F Big=F
 Integral buffers will be    131072 words long.
 Raffenetti 2 integral format.
 Two-electron integral symmetry is turned on.
 One-electron integrals computed using PRISM.
 NBasis=   130 RedAO= T EigKep=  1.31D-05  NBF=   130
 NBsUse=   130 1.00D-06 EigRej= -1.00D+00 NBFU=   130
 Initial guess from the checkpoint file:  "/srv/scratch/z5358697/gauss/Gau-4063448.chk"
 B after Tr=     0.000000    0.000000    0.000000
         Rot=    1.000000   -0.000731    0.000023   -0.000580 Ang=  -0.11 deg.
 ExpMin= 4.05D-02 ExpMax= 2.19D+04 ExpMxC= 3.30D+03 IAcc=2 IRadAn=         4 AccDes= 0.00D+00
 Harris functional with IExCor= 1009 and IRadAn=       4 diagonalized for initial guess.
 HarFok:  IExCor= 1009 AccDes= 0.00D+00 IRadAn=         4 IDoV= 1 UseB2=F ITyADJ=14
 ICtDFT=  3500011 ScaDFX=  1.000000  1.000000  1.000000  1.000000
 FoFCou: FMM=F IPFlag=           0 FMFlag=      100000 FMFlg1=           0
         NFxFlg=           0 DoJE=T BraDBF=F KetDBF=T FulRan=T
         wScrn=  0.000000 ICntrl=     500 IOpCl=  0 I1Cent=   200000004 NGrid=           0
         NMat0=    1 NMatS0=      1 NMatT0=    0 NMatD0=    1 NMtDS0=    0 NMtDT0=    0
 Petite list used in FoFCou.
 Requested convergence on RMS density matrix=1.00D-08 within 128 cycles.
 Requested convergence on MAX density matrix=1.00D-06.
 Requested convergence on             energy=1.00D-06.
 No special actions if energy rises.
 SCF Done:  E(RM062X) =  -592.198825397     A.U. after   11 cycles
            NFock= 11  Conv=0.98D-08     -V/T= 2.0049
 Calling FoFJK, ICntrl=      2127 FMM=F ISym2X=0 I1Cent= 0 IOpClX= 0 NMat=1 NMatS=1 NMatT=0.
 ***** Axes restored to original set *****
 -------------------------------------------------------------------
 Center     Atomic                   Forces (Hartrees/Bohr)
 Number     Number              X              Y              Z
 -------------------------------------------------------------------
      1        6           0.000147925    0.000322637   -0.000286598
      2        6           0.000855413   -0.001168635    0.001108414
      3        6          -0.000820098   -0.000269469    0.001061080
      4        6          -0.000042508    0.000769117   -0.000862426
      5        6           0.001296876    0.000303351    0.000220888
      6       16          -0.001384719   -0.000299459   -0.000757356
      7        1          -0.000028565    0.000071481   -0.000403541
      8        1           0.000411942    0.000164276   -0.000061063
      9        1          -0.000090726    0.000373563    0.000035787
     10        1          -0.000088343    0.000062082   -0.000036889
     11        1          -0.000068418   -0.000126069    0.000181502
     12        1          -0.000188779   -0.000202875   -0.000199797
 -------------------------------------------------------------------
 Cartesian Forces:  Max     0.001384719 RMS     0.000573663

 GradGradGradGradGradGradGradGradGradGradGradGradGradGradGradGradGradGrad
 Berny optimization.
 Using GEDIIS/GDIIS optimizer.
 FormGI is forming the generalized inverse of G from B-inverse, IUseBI=4.
 Internal  Forces:  Max     0.001255090 RMS     0.000340401
 Search for a local minimum.
 Step number   3 out of a maximum of   63
 All quantities printed in internal units (Hartrees-Bohrs-Radians)
 Mixed Optimization -- En-DIIS/RFO-DIIS
 Update second derivatives using D2CorX and points    1    2    3
 DE= -1.82D-04 DEPred=-1.64D-04 R= 1.11D+00
 TightC=F SS=  1.41D+00  RLast= 7.85D-02 DXNew= 6.8637D-01 2.3539D-01
 Trust test= 1.11D+00 RLast= 7.85D-02 DXMaxT set to 4.08D-01
 ITU=  1  1  0
 Use linear search instead of GDIIS.
     Eigenvalues ---    0.00737   0.01595   0.01963   0.02076   0.02096
     Eigenvalues ---    0.02196   0.02598   0.07302   0.07445   0.14889
     Eigenvalues ---    0.15999   0.16000   0.16000   0.16033   0.16200
     Eigenvalues ---    0.22069   0.24517   0.27385   0.29077   0.33345
     Eigenvalues ---    0.34229   0.34241   0.34323   0.35679   0.35754
     Eigenvalues ---    0.35874   0.36103   0.43599   0.46343   0.49061
 RFO step:  Lambda=-1.47265546D-04 EMin= 7.36722411D-03
 Quartic linear search produced a step of  0.12048.
 Iteration  1 RMS(Cart)=  0.02139875 RMS(Int)=  0.00034493
 Iteration  2 RMS(Cart)=  0.00035953 RMS(Int)=  0.00002384
 Iteration  3 RMS(Cart)=  0.00000008 RMS(Int)=  0.00002384
 Variable       Old X    -DE/DX   Delta X   Delta X   Delta X     New X
                                 (Linear)    (Quad)   (Total)
    R1        2.83891  -0.00126  -0.00052  -0.00325  -0.00377   2.83514
    R2        2.07011  -0.00003  -0.00006  -0.00015  -0.00021   2.06990
    R3        2.06662  -0.00001  -0.00001  -0.00019  -0.00020   2.06642
    R4        2.06695  -0.00002  -0.00004  -0.00030  -0.00033   2.06662
    R5        2.58448  -0.00026  -0.00032  -0.00249  -0.00281   2.58166
    R6        3.27123   0.00087   0.00120   0.00807   0.00926   3.28050
    R7        2.69920   0.00079  -0.00051   0.00108   0.00057   2.69976
    R8        2.05107  -0.00006   0.00020   0.00062   0.00082   2.05189
    R9        2.57856  -0.00008  -0.00015  -0.00191  -0.00206   2.57650
   R10        2.04924  -0.00013   0.00010   0.00009   0.00020   2.04944
   R11        3.25621   0.00075   0.00071   0.00555   0.00627   3.26248
   R12        2.04361   0.00008  -0.00007   0.00012   0.00004   2.04366
    A1        1.94445  -0.00029  -0.00040  -0.00196  -0.00237   1.94208
    A2        1.91998  -0.00031  -0.00086  -0.00551  -0.00637   1.91361
    A3        1.94988  -0.00021  -0.00016  -0.00114  -0.00131   1.94857
    A4        1.88446   0.00029   0.00035   0.00207   0.00240   1.88686
    A5        1.88023   0.00028   0.00018   0.00151   0.00169   1.88193
    A6        1.88239   0.00029   0.00098   0.00551   0.00649   1.88888
    A7        2.24002  -0.00016  -0.00073  -0.00277  -0.00348   2.23653
    A8        2.11389  -0.00006  -0.00022   0.00071   0.00051   2.11441
    A9        1.92871   0.00023   0.00092   0.00229   0.00314   1.93185
   A10        1.97770  -0.00005  -0.00020   0.00033   0.00007   1.97777
   A11        2.14068   0.00004   0.00025   0.00003   0.00030   2.14098
   A12        2.16479   0.00001  -0.00005  -0.00034  -0.00036   2.16443
   A13        1.96324  -0.00004  -0.00032  -0.00071  -0.00107   1.96217
   A14        2.16801  -0.00018  -0.00043  -0.00284  -0.00325   2.16476
   A15        2.15190   0.00022   0.00074   0.00359   0.00435   2.15625
   A16        1.94373   0.00019   0.00107   0.00341   0.00441   1.94814
   A17        2.23662   0.00023  -0.00003   0.00221   0.00216   2.23877
   A18        2.10284  -0.00042  -0.00104  -0.00563  -0.00669   2.09615
   A19        1.61134  -0.00032  -0.00147  -0.00504  -0.00657   1.60477
    D1       -1.59102  -0.00036  -0.00205  -0.04357  -0.04562  -1.63664
    D2        1.51087  -0.00018  -0.00348  -0.03558  -0.03907   1.47180
    D3        0.49814  -0.00040  -0.00244  -0.04587  -0.04830   0.44984
    D4       -2.68317  -0.00021  -0.00387  -0.03788  -0.04175  -2.72491
    D5        2.58820  -0.00038  -0.00189  -0.04336  -0.04524   2.54296
    D6       -0.59310  -0.00019  -0.00332  -0.03537  -0.03869  -0.63179
    D7        3.11256  -0.00019   0.00097  -0.00880  -0.00785   3.10471
    D8       -0.03541  -0.00007  -0.00066  -0.00477  -0.00544  -0.04086
    D9        0.00727  -0.00036   0.00229  -0.01609  -0.01381  -0.00655
   D10       -3.14071  -0.00024   0.00066  -0.01206  -0.01141   3.13107
   D11       -3.11752   0.00031  -0.00125   0.01535   0.01406  -3.10346
   D12       -0.00917   0.00046  -0.00247   0.02194   0.01944   0.01026
   D13       -0.00067   0.00002  -0.00080  -0.00071  -0.00149  -0.00216
   D14        3.13306   0.00011  -0.00128   0.00435   0.00308   3.13613
   D15       -3.13578  -0.00010   0.00087  -0.00480  -0.00394  -3.13972
   D16       -0.00205  -0.00001   0.00039   0.00025   0.00063  -0.00142
   D17       -0.00632   0.00034  -0.00110   0.01733   0.01626   0.00994
   D18        3.13433   0.00001  -0.00051   0.00012  -0.00039   3.13394
   D19       -3.14013   0.00025  -0.00062   0.01236   0.01175  -3.12837
   D20        0.00052  -0.00008  -0.00003  -0.00485  -0.00489  -0.00437
   D21        0.00889  -0.00046   0.00205  -0.02256  -0.02049  -0.01161
   D22       -3.13184  -0.00016   0.00150  -0.00686  -0.00539  -3.13724
         Item               Value     Threshold  Converged?
 Maximum Force            0.001255     0.000450     NO 
 RMS     Force            0.000340     0.000300     NO 
 Maximum Displacement     0.088040     0.001800     NO 
 RMS     Displacement     0.021408     0.001200     NO 
 Predicted change in Energy=-7.764583D-05
 GradGradGradGradGradGradGradGradGradGradGradGradGradGradGradGradGradGrad

                          Input orientation:                          
 ---------------------------------------------------------------------
 Center     Atomic      Atomic             Coordinates (Angstroms)
 Number     Number       Type             X           Y           Z
 ---------------------------------------------------------------------
      1          6           0       -1.828161   -2.227027   -0.437018
      2          6           0       -1.373879   -1.088229   -1.301684
      3          6           0       -0.506562   -0.081559   -0.984259
      4          6           0       -0.259477    0.814985   -2.068791
      5          6           0       -0.944777    0.469440   -3.195686
      6         16           0       -1.909923   -0.940094   -2.946154
      7          1           0       -1.208361   -3.116515   -0.593338
      8          1           0       -1.753579   -1.941547    0.615923
      9          1           0       -2.866239   -2.501680   -0.644224
     10          1           0       -0.059276    0.018085    0.000118
     11          1           0        0.396057    1.676719   -2.006617
     12          1           0       -0.951522    0.968522   -4.155071
 ---------------------------------------------------------------------
                    Distance matrix (angstroms):
                    1          2          3          4          5
     1  C    0.000000
     2  C    1.500293   0.000000
     3  C    2.578591   1.366156   0.000000
     4  C    3.791740   2.335074   1.428654   0.000000
     5  C    3.957468   2.489519   2.320786   1.363427   0.000000
     6  S    2.821107   1.735963   2.560379   2.563989   1.726430
     7  H    1.095343   2.154784   3.139474   4.305118   4.438555
     8  H    1.093502   2.132965   2.752306   4.127772   4.582072
     9  H    1.093607   2.158064   3.397159   4.452513   4.362286
    10  H    2.891465   2.155644   1.085813   2.226098   3.346789
    11  H    4.759204   3.357758   2.225192   1.084516   2.160843
    12  H    4.980356   3.542659   3.369676   2.203422   1.081456
                    6          7          8          9         10
     6  S    0.000000
     7  H    3.280967   0.000000
     8  H    3.703478   1.772040   0.000000
     9  H    2.941424   1.768947   1.771929   0.000000
    10  H    3.608811   3.390915   2.662712   3.826674   0.000000
    11  H    3.612199   5.248486   4.958881   5.473364   2.642987
    12  H    2.454145   5.425813   5.645723   5.294761   4.354886
                   11         12
    11  H    0.000000
    12  H    2.633129   0.000000
 Stoichiometry    C5H6S
 Framework group  C1[X(C5H6S)]
 Deg. of freedom    30
 Full point group                 C1      NOp   1
 Largest Abelian subgroup         C1      NOp   1
 Largest concise Abelian subgroup C1      NOp   1
                         Standard orientation:                         
 ---------------------------------------------------------------------
 Center     Atomic      Atomic             Coordinates (Angstroms)
 Number     Number       Type             X           Y           Z
 ---------------------------------------------------------------------
      1          6           0       -2.272646    0.108734    0.013737
      2          6           0       -0.776917    0.222276   -0.014259
      3          6           0       -0.016656    1.357343   -0.011102
      4          6           0        1.388002    1.097102    0.005074
      5          6           0        1.669703   -0.236855    0.016667
      6         16           0        0.231116   -1.191017   -0.007901
      7          1           0       -2.643474   -0.004726    1.038134
      8          1           0       -2.717906    1.012782   -0.410750
      9          1           0       -2.622943   -0.749765   -0.566132
     10          1           0       -0.449813    2.352936   -0.023742
     11          1           0        2.148562    1.870228    0.004913
     12          1           0        2.638806   -0.716796    0.023285
 ---------------------------------------------------------------------
 Rotational constants (GHZ):      5.2650222      3.1145976      1.9813711
 Standard basis: 6-31+G(d) (6D, 7F)
 There are   130 symmetry adapted cartesian basis functions of A   symmetry.
 There are   130 symmetry adapted basis functions of A   symmetry.
   130 basis functions,   240 primitive gaussians,   130 cartesian basis functions
    26 alpha electrons       26 beta electrons
       nuclear repulsion energy       272.6925029997 Hartrees.
 NAtoms=   12 NActive=   12 NUniq=   12 SFac= 1.00D+00 NAtFMM=   60 NAOKFM=F Big=F
 Integral buffers will be    131072 words long.
 Raffenetti 2 integral format.
 Two-electron integral symmetry is turned on.
 One-electron integrals computed using PRISM.
 NBasis=   130 RedAO= T EigKep=  1.30D-05  NBF=   130
 NBsUse=   130 1.00D-06 EigRej= -1.00D+00 NBFU=   130
 Initial guess from the checkpoint file:  "/srv/scratch/z5358697/gauss/Gau-4063448.chk"
 B after Tr=     0.000000    0.000000    0.000000
         Rot=    0.999999   -0.001190   -0.000105   -0.001025 Ang=  -0.18 deg.
 ExpMin= 4.05D-02 ExpMax= 2.19D+04 ExpMxC= 3.30D+03 IAcc=2 IRadAn=         4 AccDes= 0.00D+00
 Harris functional with IExCor= 1009 and IRadAn=       4 diagonalized for initial guess.
 HarFok:  IExCor= 1009 AccDes= 0.00D+00 IRadAn=         4 IDoV= 1 UseB2=F ITyADJ=14
 ICtDFT=  3500011 ScaDFX=  1.000000  1.000000  1.000000  1.000000
 FoFCou: FMM=F IPFlag=           0 FMFlag=      100000 FMFlg1=           0
         NFxFlg=           0 DoJE=T BraDBF=F KetDBF=T FulRan=T
         wScrn=  0.000000 ICntrl=     500 IOpCl=  0 I1Cent=   200000004 NGrid=           0
         NMat0=    1 NMatS0=      1 NMatT0=    0 NMatD0=    1 NMtDS0=    0 NMtDT0=    0
 Petite list used in FoFCou.
 Requested convergence on RMS density matrix=1.00D-08 within 128 cycles.
 Requested convergence on MAX density matrix=1.00D-06.
 Requested convergence on             energy=1.00D-06.
 No special actions if energy rises.
 SCF Done:  E(RM062X) =  -592.198890773     A.U. after   11 cycles
            NFock= 11  Conv=0.96D-08     -V/T= 2.0049
 Calling FoFJK, ICntrl=      2127 FMM=F ISym2X=0 I1Cent= 0 IOpClX= 0 NMat=1 NMatS=1 NMatT=0.
 ***** Axes restored to original set *****
 -------------------------------------------------------------------
 Center     Atomic                   Forces (Hartrees/Bohr)
 Number     Number              X              Y              Z
 -------------------------------------------------------------------
      1        6           0.000069996    0.000398266   -0.000275037
      2        6          -0.001011483   -0.000912206   -0.000315064
      3        6          -0.000252069    0.000008668    0.000920328
      4        6           0.000533291    0.000296675   -0.000644644
      5        6          -0.001076120    0.000725305   -0.000748234
      6       16           0.002335567    0.000080740    0.001351510
      7        1          -0.000157357   -0.000120243   -0.000170358
      8        1          -0.000021278   -0.000400056    0.000125973
      9        1          -0.000245979    0.000129059    0.000505580
     10        1          -0.000072043   -0.000175514   -0.000355503
     11        1          -0.000084267   -0.000203216   -0.000306606
     12        1          -0.000018258    0.000172521   -0.000087946
 -------------------------------------------------------------------
 Cartesian Forces:  Max     0.002335567 RMS     0.000631228

 GradGradGradGradGradGradGradGradGradGradGradGradGradGradGradGradGradGrad
 Berny optimization.
 Using GEDIIS/GDIIS optimizer.
 FormGI is forming the generalized inverse of G from B-inverse, IUseBI=4.
 Internal  Forces:  Max     0.001545139 RMS     0.000471873
 Search for a local minimum.
 Step number   4 out of a maximum of   63
 All quantities printed in internal units (Hartrees-Bohrs-Radians)
 Mixed Optimization -- En-DIIS/RFO-DIIS
 Swapping is turned off.
 Update second derivatives using D2CorX and points    1    2    3    4
 DE= -6.54D-05 DEPred=-7.76D-05 R= 8.42D-01
 TightC=F SS=  1.41D+00  RLast= 1.16D-01 DXNew= 6.8637D-01 3.4901D-01
 Trust test= 8.42D-01 RLast= 1.16D-01 DXMaxT set to 4.08D-01
 ITU=  1  1  1  0
     Eigenvalues ---    0.00313   0.01604   0.01965   0.02096   0.02117
     Eigenvalues ---    0.02197   0.04046   0.07327   0.07542   0.15723
     Eigenvalues ---    0.15999   0.16000   0.16021   0.16219   0.16321
     Eigenvalues ---    0.22288   0.25045   0.28237   0.33236   0.33495
     Eigenvalues ---    0.34239   0.34255   0.34324   0.35707   0.35827
     Eigenvalues ---    0.36100   0.36487   0.45702   0.48900   0.51732
 En-DIIS/RFO-DIIS IScMMF=        0 using points:     4    3
 RFO step:  Lambda=-2.49137933D-05.
 DidBck=F Rises=F RFO-DIIS coefs:    0.87371    0.12629
 Iteration  1 RMS(Cart)=  0.02559600 RMS(Int)=  0.00053934
 Iteration  2 RMS(Cart)=  0.00055784 RMS(Int)=  0.00000998
 Iteration  3 RMS(Cart)=  0.00000022 RMS(Int)=  0.00000998
 Variable       Old X    -DE/DX   Delta X   Delta X   Delta X     New X
                                 (Linear)    (Quad)   (Total)
    R1        2.83514   0.00021   0.00048  -0.00208  -0.00161   2.83354
    R2        2.06990   0.00003   0.00003  -0.00014  -0.00011   2.06979
    R3        2.06642   0.00001   0.00002  -0.00026  -0.00024   2.06618
    R4        2.06662   0.00011   0.00004  -0.00014  -0.00010   2.06652
    R5        2.58166   0.00046   0.00036  -0.00286  -0.00250   2.57916
    R6        3.28050  -0.00107  -0.00117   0.00855   0.00738   3.28788
    R7        2.69976   0.00149  -0.00007   0.00338   0.00331   2.70307
    R8        2.05189  -0.00037  -0.00010   0.00030   0.00020   2.05209
    R9        2.57650  -0.00002   0.00026  -0.00297  -0.00271   2.57379
   R10        2.04944  -0.00023  -0.00002  -0.00009  -0.00012   2.04932
   R11        3.26248  -0.00040  -0.00079   0.00636   0.00557   3.26805
   R12        2.04366   0.00016  -0.00001   0.00037   0.00036   2.04402
    A1        1.94208  -0.00005   0.00030  -0.00198  -0.00168   1.94039
    A2        1.91361   0.00050   0.00081  -0.00488  -0.00408   1.90953
    A3        1.94857   0.00022   0.00017   0.00014   0.00030   1.94888
    A4        1.88686  -0.00017  -0.00030   0.00150   0.00119   1.88805
    A5        1.88193  -0.00007  -0.00021   0.00083   0.00062   1.88255
    A6        1.88888  -0.00046  -0.00082   0.00473   0.00391   1.89279
    A7        2.23653   0.00076   0.00044  -0.00164  -0.00120   2.23534
    A8        2.11441   0.00017  -0.00006   0.00172   0.00166   2.11606
    A9        1.93185  -0.00093  -0.00040  -0.00021  -0.00062   1.93123
   A10        1.97777   0.00018  -0.00001   0.00163   0.00161   1.97937
   A11        2.14098  -0.00017  -0.00004  -0.00097  -0.00100   2.13998
   A12        2.16443  -0.00001   0.00005  -0.00067  -0.00063   2.16381
   A13        1.96217   0.00016   0.00014  -0.00010   0.00002   1.96219
   A14        2.16476   0.00018   0.00041  -0.00295  -0.00254   2.16223
   A15        2.15625  -0.00034  -0.00055   0.00303   0.00249   2.15873
   A16        1.94814  -0.00094  -0.00056   0.00150   0.00092   1.94905
   A17        2.23877   0.00038  -0.00027   0.00369   0.00343   2.24220
   A18        2.09615   0.00056   0.00085  -0.00511  -0.00426   2.09189
   A19        1.60477   0.00155   0.00083  -0.00264  -0.00184   1.60293
    D1       -1.63664  -0.00023   0.00576  -0.06671  -0.06095  -1.69758
    D2        1.47180  -0.00037   0.00493  -0.07204  -0.06711   1.40469
    D3        0.44984  -0.00016   0.00610  -0.06926  -0.06316   0.38667
    D4       -2.72491  -0.00029   0.00527  -0.07460  -0.06932  -2.79424
    D5        2.54296  -0.00026   0.00571  -0.06650  -0.06078   2.48217
    D6       -0.63179  -0.00040   0.00489  -0.07183  -0.06694  -0.69874
    D7        3.10471   0.00016   0.00099   0.00102   0.00202   3.10674
    D8       -0.04086   0.00015   0.00069  -0.00230  -0.00161  -0.04246
    D9       -0.00655   0.00027   0.00174   0.00586   0.00761   0.00107
   D10        3.13107   0.00026   0.00144   0.00254   0.00398   3.13505
   D11       -3.10346  -0.00037  -0.00178  -0.00569  -0.00744  -3.11090
   D12        0.01026  -0.00046  -0.00245  -0.01020  -0.01264  -0.00238
   D13       -0.00216   0.00014   0.00019   0.00330   0.00348   0.00132
   D14        3.13613  -0.00001  -0.00039  -0.00190  -0.00229   3.13385
   D15       -3.13972   0.00015   0.00050   0.00667   0.00717  -3.13254
   D16       -0.00142   0.00000  -0.00008   0.00147   0.00140  -0.00002
   D17        0.00994  -0.00050  -0.00205  -0.01098  -0.01305  -0.00311
   D18        3.13394  -0.00007   0.00005  -0.00537  -0.00531   3.12863
   D19       -3.12837  -0.00034  -0.00148  -0.00579  -0.00728  -3.13565
   D20       -0.00437   0.00008   0.00062  -0.00018   0.00046  -0.00392
   D21       -0.01161   0.00054   0.00259   0.01218   0.01477   0.00316
   D22       -3.13724   0.00016   0.00068   0.00699   0.00770  -3.12953
         Item               Value     Threshold  Converged?
 Maximum Force            0.001545     0.000450     NO 
 RMS     Force            0.000472     0.000300     NO 
 Maximum Displacement     0.095216     0.001800     NO 
 RMS     Displacement     0.025599     0.001200     NO 
 Predicted change in Energy=-6.388555D-05
 GradGradGradGradGradGradGradGradGradGradGradGradGradGradGradGradGradGrad

                          Input orientation:                          
 ---------------------------------------------------------------------
 Center     Atomic      Atomic             Coordinates (Angstroms)
 Number     Number       Type             X           Y           Z
 ---------------------------------------------------------------------
      1          6           0       -1.827707   -2.227223   -0.436217
      2          6           0       -1.372659   -1.091389   -1.302901
      3          6           0       -0.515810   -0.078671   -0.981995
      4          6           0       -0.263216    0.817582   -2.067804
      5          6           0       -0.937803    0.467616   -3.198058
      6         16           0       -1.885776   -0.959085   -2.960115
      7          1           0       -1.238874   -3.130882   -0.626816
      8          1           0       -1.703193   -1.954440    0.615238
      9          1           0       -2.879965   -2.470002   -0.608485
     10          1           0       -0.081173    0.028830    0.007323
     11          1           0        0.385191    1.684055   -1.998283
     12          1           0       -0.944714    0.964710   -4.158688
 ---------------------------------------------------------------------
                    Distance matrix (angstroms):
                    1          2          3          4          5
     1  C    0.000000
     2  C    1.499443   0.000000
     3  C    2.575893   1.364833   0.000000
     4  C    3.792169   2.336688   1.430404   0.000000
     5  C    3.960031   2.492231   2.321086   1.361990   0.000000
     6  S    2.825174   1.739871   2.562205   2.566216   1.729377
     7  H    1.095286   2.152794   3.156733   4.314942   4.432958
     8  H    1.093377   2.129171   2.734875   4.117810   4.581856
     9  H    1.093556   2.157489   3.383372   4.448056   4.371210
    10  H    2.887366   2.153953   1.085917   2.227426   3.346762
    11  H    4.757633   3.358077   2.225275   1.084454   2.160902
    12  H    4.982459   3.544883   3.371050   2.204059   1.081647
                    6          7          8          9         10
     6  S    0.000000
     7  H    3.252610   0.000000
     8  H    3.715807   1.772655   0.000000
     9  H    2.966723   1.769260   1.774288   0.000000
    10  H    3.610852   3.424351   2.633224   3.802186   0.000000
    11  H    3.615052   5.263281   4.942721   5.463422   2.641917
    12  H    2.454213   5.416135   5.646866   5.305317   4.356285
                   11         12
    11  H    0.000000
    12  H    2.636940   0.000000
 Stoichiometry    C5H6S
 Framework group  C1[X(C5H6S)]
 Deg. of freedom    30
 Full point group                 C1      NOp   1
 Largest Abelian subgroup         C1      NOp   1
 Largest concise Abelian subgroup C1      NOp   1
                         Standard orientation:                         
 ---------------------------------------------------------------------
 Center     Atomic      Atomic             Coordinates (Angstroms)
 Number     Number       Type             X           Y           Z
 ---------------------------------------------------------------------
      1          6           0       -2.273765    0.106618    0.009701
      2          6           0       -0.778908    0.221012   -0.015721
      3          6           0       -0.021375    1.356285   -0.007515
      4          6           0        1.385876    1.100385    0.007198
      5          6           0        1.671827   -0.231248    0.008233
      6         16           0        0.234656   -1.193093   -0.003667
      7          1           0       -2.639669   -0.072134    1.026466
      8          1           0       -2.715694    1.038651   -0.352911
      9          1           0       -2.626728   -0.712748   -0.622693
     10          1           0       -0.457268    2.350813   -0.018823
     11          1           0        2.141839    1.877919    0.008332
     12          1           0        2.641096   -0.711327    0.006921
 ---------------------------------------------------------------------
 Rotational constants (GHZ):      5.2554673      3.1119582      1.9788434
 Standard basis: 6-31+G(d) (6D, 7F)
 There are   130 symmetry adapted cartesian basis functions of A   symmetry.
 There are   130 symmetry adapted basis functions of A   symmetry.
   130 basis functions,   240 primitive gaussians,   130 cartesian basis functions
    26 alpha electrons       26 beta electrons
       nuclear repulsion energy       272.5262873982 Hartrees.
 NAtoms=   12 NActive=   12 NUniq=   12 SFac= 1.00D+00 NAtFMM=   60 NAOKFM=F Big=F
 Integral buffers will be    131072 words long.
 Raffenetti 2 integral format.
 Two-electron integral symmetry is turned on.
 One-electron integrals computed using PRISM.
 NBasis=   130 RedAO= T EigKep=  1.30D-05  NBF=   130
 NBsUse=   130 1.00D-06 EigRej= -1.00D+00 NBFU=   130
 Initial guess from the checkpoint file:  "/srv/scratch/z5358697/gauss/Gau-4063448.chk"
 B after Tr=     0.000000    0.000000    0.000000
         Rot=    0.999998   -0.001847   -0.000057   -0.001023 Ang=  -0.24 deg.
 ExpMin= 4.05D-02 ExpMax= 2.19D+04 ExpMxC= 3.30D+03 IAcc=2 IRadAn=         4 AccDes= 0.00D+00
 Harris functional with IExCor= 1009 and IRadAn=       4 diagonalized for initial guess.
 HarFok:  IExCor= 1009 AccDes= 0.00D+00 IRadAn=         4 IDoV= 1 UseB2=F ITyADJ=14
 ICtDFT=  3500011 ScaDFX=  1.000000  1.000000  1.000000  1.000000
 FoFCou: FMM=F IPFlag=           0 FMFlag=      100000 FMFlg1=           0
         NFxFlg=           0 DoJE=T BraDBF=F KetDBF=T FulRan=T
         wScrn=  0.000000 ICntrl=     500 IOpCl=  0 I1Cent=   200000004 NGrid=           0
         NMat0=    1 NMatS0=      1 NMatT0=    0 NMatD0=    1 NMtDS0=    0 NMtDT0=    0
 Petite list used in FoFCou.
 Requested convergence on RMS density matrix=1.00D-08 within 128 cycles.
 Requested convergence on MAX density matrix=1.00D-06.
 Requested convergence on             energy=1.00D-06.
 No special actions if energy rises.
 SCF Done:  E(RM062X) =  -592.198972449     A.U. after   12 cycles
            NFock= 12  Conv=0.34D-08     -V/T= 2.0049
 Calling FoFJK, ICntrl=      2127 FMM=F ISym2X=0 I1Cent= 0 IOpClX= 0 NMat=1 NMatS=1 NMatT=0.
 ***** Axes restored to original set *****
 -------------------------------------------------------------------
 Center     Atomic                   Forces (Hartrees/Bohr)
 Number     Number              X              Y              Z
 -------------------------------------------------------------------
      1        6           0.000386592    0.000303867   -0.000697725
      2        6          -0.000969425   -0.001353938   -0.002363079
      3        6           0.000202259    0.001099318    0.000622716
      4        6           0.000168360    0.000345333    0.000940635
      5        6          -0.001327852   -0.001108717   -0.001806338
      6       16           0.002238138    0.001484182    0.003150001
      7        1          -0.000198350   -0.000282366    0.000055336
      8        1          -0.000301288   -0.000582728    0.000216051
      9        1          -0.000316494    0.000110821    0.000719222
     10        1          -0.000035043   -0.000140654   -0.000422052
     11        1          -0.000186963   -0.000063742   -0.000458716
     12        1           0.000340065    0.000188624    0.000043949
 -------------------------------------------------------------------
 Cartesian Forces:  Max     0.003150001 RMS     0.001013461

 GradGradGradGradGradGradGradGradGradGradGradGradGradGradGradGradGradGrad
 Berny optimization.
 Using GEDIIS/GDIIS optimizer.
 FormGI is forming the generalized inverse of G from B-inverse, IUseBI=4.
 Internal  Forces:  Max     0.002481638 RMS     0.000614767
 Search for a local minimum.
 Step number   5 out of a maximum of   63
 All quantities printed in internal units (Hartrees-Bohrs-Radians)
 Mixed Optimization -- En-DIIS/RFO-DIIS
 Swapping is turned off.
 Update second derivatives using D2CorX and points    1    2    3    4    5
 DE= -8.17D-05 DEPred=-6.39D-05 R= 1.28D+00
 TightC=F SS=  1.41D+00  RLast= 1.62D-01 DXNew= 6.8637D-01 4.8641D-01
 Trust test= 1.28D+00 RLast= 1.62D-01 DXMaxT set to 4.86D-01
 ITU=  1  1  1  1  0
     Eigenvalues ---    0.00153   0.01602   0.01965   0.02095   0.02197
     Eigenvalues ---    0.02228   0.04649   0.07357   0.07658   0.15962
     Eigenvalues ---    0.15999   0.16013   0.16037   0.16165   0.17220
     Eigenvalues ---    0.22340   0.25300   0.28221   0.33333   0.34222
     Eigenvalues ---    0.34240   0.34320   0.35601   0.35720   0.35918
     Eigenvalues ---    0.36045   0.41761   0.45620   0.49098   0.62947
 En-DIIS/RFO-DIIS IScMMF=        0 using points:     5    4    3
 RFO step:  Lambda=-2.89961009D-05.
 DidBck=F Rises=F RFO-DIIS coefs:    1.43972   -0.27514   -0.16458
 Iteration  1 RMS(Cart)=  0.03642729 RMS(Int)=  0.00110755
 Iteration  2 RMS(Cart)=  0.00114842 RMS(Int)=  0.00000413
 Iteration  3 RMS(Cart)=  0.00000091 RMS(Int)=  0.00000406
 Variable       Old X    -DE/DX   Delta X   Delta X   Delta X     New X
                                 (Linear)    (Quad)   (Total)
    R1        2.83354   0.00064  -0.00133   0.00089  -0.00044   2.83310
    R2        2.06979   0.00011  -0.00008   0.00018   0.00010   2.06989
    R3        2.06618   0.00002  -0.00014  -0.00012  -0.00026   2.06592
    R4        2.06652   0.00018  -0.00010   0.00031   0.00021   2.06673
    R5        2.57916   0.00119  -0.00156   0.00020  -0.00136   2.57780
    R6        3.28788  -0.00248   0.00477  -0.00048   0.00429   3.29217
    R7        2.70307   0.00060   0.00155   0.00071   0.00226   2.70533
    R8        2.05209  -0.00041   0.00022  -0.00024  -0.00001   2.05207
    R9        2.57379   0.00062  -0.00153  -0.00049  -0.00203   2.57176
   R10        2.04932  -0.00019  -0.00002  -0.00006  -0.00008   2.04924
[...]
                                 (Linear)    (Quad)   (Total)
    R1        2.83307   0.00000   0.00000   0.00000   0.00000   2.83307
    R2        2.06905   0.00000   0.00000   0.00000   0.00000   2.06905
    R3        2.06634   0.00000   0.00000   0.00000   0.00000   2.06634
    R4        2.06906   0.00000   0.00000   0.00000   0.00000   2.06905
    R5        2.58222   0.00000   0.00000   0.00000   0.00000   2.58222
    R6        3.27810   0.00000   0.00000  -0.00001  -0.00001   3.27809
    R7        2.70349   0.00000   0.00000   0.00000   0.00000   2.70349
    R8        2.05076   0.00000   0.00000   0.00000   0.00000   2.05076
    R9        2.57605   0.00000   0.00000   0.00000   0.00000   2.57604
   R10        2.04878   0.00000   0.00000   0.00000   0.00000   2.04878
   R11        3.26223   0.00000   0.00000   0.00001   0.00001   3.26224
   R12        2.04398   0.00000   0.00000   0.00000   0.00000   2.04398
    A1        1.94806   0.00000   0.00000   0.00000   0.00000   1.94806
    A2        1.91113   0.00000   0.00000   0.00001   0.00001   1.91114
    A3        1.94807   0.00000   0.00000  -0.00001  -0.00001   1.94806
    A4        1.88587   0.00000   0.00000  -0.00003  -0.00003   1.88584
    A5        1.88275   0.00000   0.00000   0.00001   0.00001   1.88276
    A6        1.88582   0.00000   0.00000   0.00002   0.00002   1.88584
    A7        2.23969   0.00000   0.00000   0.00003   0.00003   2.23971
    A8        2.11412   0.00000   0.00000  -0.00003  -0.00003   2.11410
    A9        1.92938   0.00000   0.00000   0.00000   0.00000   1.92938
   A10        1.97871   0.00000   0.00000   0.00000   0.00000   1.97871
   A11        2.13989   0.00000   0.00000   0.00002   0.00002   2.13991
   A12        2.16459   0.00000   0.00000  -0.00002  -0.00002   2.16457
   A13        1.96238   0.00000   0.00000   0.00000   0.00000   1.96238
   A14        2.16611   0.00000   0.00000  -0.00001  -0.00001   2.16609
   A15        2.15470   0.00000   0.00000   0.00001   0.00001   2.15471
   A16        1.94584   0.00000   0.00000  -0.00001  -0.00001   1.94583
   A17        2.23979   0.00000   0.00000   0.00003   0.00003   2.23982
   A18        2.09756   0.00000   0.00000  -0.00002  -0.00002   2.09754
   A19        1.60847   0.00000   0.00000   0.00000   0.00000   1.60847
    D1       -2.08672   0.00000   0.00000  -0.00046  -0.00046  -2.08718
    D2        1.05481   0.00000   0.00000  -0.00039  -0.00039   1.05441
    D3        0.00068   0.00000   0.00000  -0.00049  -0.00049   0.00019
    D4       -3.14098   0.00000   0.00000  -0.00042  -0.00042  -3.14140
    D5        2.08802   0.00000   0.00000  -0.00047  -0.00047   2.08755
    D6       -1.05364   0.00000   0.00000  -0.00040  -0.00040  -1.05404
    D7        3.14152   0.00000   0.00000   0.00007   0.00007   3.14159
    D8       -0.00007   0.00000   0.00000   0.00006   0.00006  -0.00001
    D9       -0.00001   0.00000   0.00000   0.00001   0.00001   0.00000
   D10        3.14159   0.00000   0.00000   0.00000   0.00000   3.14158
   D11       -3.14153   0.00000   0.00000  -0.00006  -0.00006  -3.14159
   D12        0.00000   0.00000   0.00000   0.00000   0.00000   0.00000
   D13        0.00002   0.00000   0.00000  -0.00001  -0.00001   0.00000
   D14        3.14158   0.00000   0.00000   0.00001   0.00001   3.14159
   D15       -3.14158   0.00000   0.00000  -0.00001  -0.00001  -3.14159
   D16       -0.00002   0.00000   0.00000   0.00002   0.00002   0.00000
   D17       -0.00001   0.00000   0.00000   0.00002   0.00002   0.00000
   D18        3.14154   0.00000   0.00000   0.00005   0.00005   3.14159
   D19       -3.14158   0.00000   0.00000  -0.00001  -0.00001  -3.14158
   D20       -0.00002   0.00000   0.00000   0.00002   0.00002   0.00000
   D21        0.00001   0.00000   0.00000  -0.00001  -0.00001   0.00000
   D22       -3.14155   0.00000   0.00000  -0.00004  -0.00004  -3.14159
         Item               Value     Threshold  Converged?
 Maximum Force            0.000004     0.000450     YES
 RMS     Force            0.000001     0.000300     YES
 Maximum Displacement     0.000557     0.001800     YES
 RMS     Displacement     0.000181     0.001200     YES
 Predicted change in Energy=-6.013924D-10
 Optimization completed.
    -- Stationary point found.
                           ----------------------------
                           !   Optimized Parameters   !
                           ! (Angstroms and Degrees)  !
 --------------------------                            --------------------------
 ! Name  Definition              Value          Derivative Info.                !
 --------------------------------------------------------------------------------
 ! R1    R(1,2)                  1.4992         -DE/DX =    0.0                 !
 ! R2    R(1,7)                  1.0949         -DE/DX =    0.0                 !
 ! R3    R(1,8)                  1.0935         -DE/DX =    0.0                 !
 ! R4    R(1,9)                  1.0949         -DE/DX =    0.0                 !
 ! R5    R(2,3)                  1.3665         -DE/DX =    0.0                 !
 ! R6    R(2,6)                  1.7347         -DE/DX =    0.0                 !
 ! R7    R(3,4)                  1.4306         -DE/DX =    0.0                 !
 ! R8    R(3,10)                 1.0852         -DE/DX =    0.0                 !
 ! R9    R(4,5)                  1.3632         -DE/DX =    0.0                 !
 ! R10   R(4,11)                 1.0842         -DE/DX =    0.0                 !
 ! R11   R(5,6)                  1.7263         -DE/DX =    0.0                 !
 ! R12   R(5,12)                 1.0816         -DE/DX =    0.0                 !
 ! A1    A(2,1,7)              111.6157         -DE/DX =    0.0                 !
 ! A2    A(2,1,8)              109.4999         -DE/DX =    0.0                 !
 ! A3    A(2,1,9)              111.6162         -DE/DX =    0.0                 !
 ! A4    A(7,1,8)              108.0523         -DE/DX =    0.0                 !
 ! A5    A(7,1,9)              107.8735         -DE/DX =    0.0                 !
 ! A6    A(8,1,9)              108.0496         -DE/DX =    0.0                 !
 ! A7    A(1,2,3)              128.3245         -DE/DX =    0.0                 !
 ! A8    A(1,2,6)              121.1303         -DE/DX =    0.0                 !
 ! A9    A(3,2,6)              110.5452         -DE/DX =    0.0                 !
 ! A10   A(2,3,4)              113.3718         -DE/DX =    0.0                 !
 ! A11   A(2,3,10)             122.6065         -DE/DX =    0.0                 !
 ! A12   A(4,3,10)             124.0217         -DE/DX =    0.0                 !
 ! A13   A(3,4,5)              112.4362         -DE/DX =    0.0                 !
 ! A14   A(3,4,11)             124.1088         -DE/DX =    0.0                 !
 ! A15   A(5,4,11)             123.4551         -DE/DX =    0.0                 !
 ! A16   A(4,5,6)              111.4882         -DE/DX =    0.0                 !
 ! A17   A(4,5,12)             128.3305         -DE/DX =    0.0                 !
 ! A18   A(6,5,12)             120.1813         -DE/DX =    0.0                 !
 ! A19   A(2,6,5)               92.1586         -DE/DX =    0.0                 !
 ! D1    D(7,1,2,3)           -119.56           -DE/DX =    0.0                 !
 ! D2    D(7,1,2,6)             60.4359         -DE/DX =    0.0                 !
 ! D3    D(8,1,2,3)              0.039          -DE/DX =    0.0                 !
 ! D4    D(8,1,2,6)           -179.9651         -DE/DX =    0.0                 !
 ! D5    D(9,1,2,3)            119.6348         -DE/DX =    0.0                 !
 ! D6    D(9,1,2,6)            -60.3693         -DE/DX =    0.0                 !
 ! D7    D(1,2,3,4)            179.9956         -DE/DX =    0.0                 !
 ! D8    D(1,2,3,10)            -0.0041         -DE/DX =    0.0                 !
 ! D9    D(6,2,3,4)             -0.0006         -DE/DX =    0.0                 !
 ! D10   D(6,2,3,10)           179.9996         -DE/DX =    0.0                 !
 ! D11   D(1,2,6,5)           -179.9964         -DE/DX =    0.0                 !
 ! D12   D(3,2,6,5)              0.0001         -DE/DX =    0.0                 !
 ! D13   D(2,3,4,5)              0.0009         -DE/DX =    0.0                 !
 ! D14   D(2,3,4,11)           179.9992         -DE/DX =    0.0                 !
 ! D15   D(10,3,4,5)          -179.9993         -DE/DX =    0.0                 !
 ! D16   D(10,3,4,11)           -0.0011         -DE/DX =    0.0                 !
 ! D17   D(3,4,5,6)             -0.0008         -DE/DX =    0.0                 !
 ! D18   D(3,4,5,12)           179.9972         -DE/DX =    0.0                 !
 ! D19   D(11,4,5,6)          -179.9991         -DE/DX =    0.0                 !
 ! D20   D(11,4,5,12)           -0.0011         -DE/DX =    0.0                 !
 ! D21   D(4,5,6,2)              0.0004         -DE/DX =    0.0                 !
 ! D22   D(12,5,6,2)          -179.9978         -DE/DX =    0.0                 !
 --------------------------------------------------------------------------------
 GradGradGradGradGradGradGradGradGradGradGradGradGradGradGradGradGradGrad

 1\1\GINC-KATANA1\Freq\RM062X\6-31+G(d)\C5H6S1\Z5358697\21-Mar-2025\0\\
 #N Geom=AllCheck Guess=TCheck SCRF=Check GenChk RM062X/6-31+G(d) Freq\
 \2-methylthiophene\\0,1\C,-1.8183737109,-2.2355652403,-0.4416875471\C,
 -1.3445051484,-1.1096106045,-1.310744618\C,-0.5645074378,-0.0424056245
 ,-0.9645224123\C,-0.3039012932,0.8472709139,-2.0541287603\C,-0.8934745
 775,0.4374234239,-3.2128783355\S,-1.7703805822,-1.0328604066,-2.990597
 1573\H,-1.4600511092,-3.2041296078,-0.8053927911\H,-1.4418664806,-2.09
 51031589,0.5752546931\H,-2.9115212974,-2.2772712588,-0.3959752304\H,-0
 .1865993363,0.1035361796,0.0422449889\H,0.2943755506,1.7478576858,-1.9
 739371106\H,-0.8648945772,0.9119576982,-4.1844357196\\Version=ES64L-G0
 9RevD.01\State=1-A\HF=-592.1993128\RMSD=2.509e-09\RMSF=3.386e-06\ZeroP
 oint=0.0952914\Thermal=0.1011629\Dipole=0.0576492,-0.0267881,0.2644061
 \DipoleDeriv=0.1151579,-0.026162,-0.0229369,-0.0276358,0.0911388,0.009
 0537,-0.0198737,0.0136659,0.0370812,-0.0612422,0.1839716,0.1418895,0.1
 595547,0.0493606,-0.0420681,0.1972865,0.0446543,0.3778305,-0.2129038,-
 0.0780068,-0.008827,-0.0951481,-0.276437,-0.0746064,0.0299194,-0.01399
 5,-0.0230983,-0.1369692,0.0235249,-0.0240246,0.0658379,-0.020612,-0.04
 87799,-0.1197038,-0.1984759,-0.1198335,-0.0704603,0.2897061,0.1193236,
 0.2931408,0.1108149,0.1321024,0.1115765,0.1199901,-0.1660376,-0.014943
 6,-0.1441308,-0.1251318,-0.1579381,-0.0979551,-0.0827092,-0.0939493,-0
 .0339047,-0.1430693,0.056153,0.0459287,0.035127,0.006042,-0.1020104,0.
 0200956,0.0443754,-0.0429399,0.0212149,0.0558511,-0.0179424,-0.0693001
 ,-0.0364115,0.0420341,-0.027639,-0.0274649,0.0378783,-0.0962165,-0.098
 741,-0.0549843,0.0417965,0.0023711,0.0280181,0.0447368,-0.0069086,0.04
 60858,0.046149,0.124903,-0.04196,-0.069696,-0.0450762,0.1044233,-0.007
 9464,-0.0626462,0.0030932,-0.0571606,0.0969416,-0.1132905,-0.0174619,-
 0.1061077,0.0028021,0.0123766,-0.0337172,-0.0130408,0.0845081,0.146253
 6,-0.0666545,-0.0007585,-0.0586291,0.0684226,0.0653839,-0.018894,0.036
 9886,0.0386321\Polar=59.756338,16.0170516,75.2959216,5.5382973,-5.1572
 988,79.1996894\PG=C01 [X(C5H6S1)]\NImag=0\\0.55920121,-0.00539263,0.53
 464378,0.02004008,0.03144504,0.55685585,-0.08680312,-0.04867645,0.0289
 4787,0.31651316,-0.04693075,-0.17100502,0.07616682,0.27132996,0.586560
 28,0.02500133,0.06998459,-0.13363977,0.04576406,-0.07203931,0.45485207
 ,-0.00043879,-0.00688993,-0.00088802,-0.17757201,-0.16569588,-0.046112
 68,0.32964314,-0.01207238,-0.01326958,-0.00315652,-0.15543402,-0.28287
 064,-0.04285048,0.25075285,0.51805324,0.01081786,0.01515364,0.00820844
 ,-0.06930637,-0.07913283,-0.12486681,0.16397702,-0.00614807,0.71692047
 ,0.00377710,-0.00429298,-0.00239535,-0.00303034,-0.01842467,0.00648374
 ,-0.08299725,-0.04593293,0.02658247,0.35427003,-0.00463300,0.00047025,
 -0.00116738,-0.03008478,-0.04065288,0.00111970,-0.03569749,-0.16452698
 ,0.10743903,0.29763809,0.59107637,-0.00163872,0.00002843,0.00135390,0.
 03284935,0.04235945,0.02732009,0.00344241,0.07123584,-0.21002668,0.141
 17626,-0.00290138,0.63002268,-0.00244638,-0.00154815,-0.00297354,-0.00
 164354,-0.01660628,-0.00209357,0.01539174,0.02016846,-0.02089658,-0.13
 601899,-0.06891943,-0.12343284,0.22998862,-0.00133544,-0.00164359,-0.0
 0243020,-0.01515011,-0.02210691,0.01803056,0.00846659,0.02307146,-0.00
 320621,-0.06007837,-0.12156096,-0.06670746,0.15874974,0.38062811,-0.00
 343608,-0.00315761,-0.00564204,-0.00539693,0.01286426,-0.03860288,0.00
 556327,0.03819114,-0.05825656,-0.14341614,-0.09797669,-0.34283003,0.13
 679731,-0.09586794,0.79037547,0.00325814,0.00328414,0.00759048,-0.0450
 1545,-0.00262342,-0.01876904,-0.01345890,-0.02866374,-0.01090501,-0.01
 551855,-0.02349173,-0.03374578,-0.07203226,-0.06118848,0.00534611,0.13
 763127,0.00793326,0.00304538,0.01896237,0.00618410,-0.04023565,0.02684
 863,-0.01754108,-0.01996433,0.00105506,-0.03443927,-0.02811907,-0.0378
 1205,-0.06936671,-0.14840616,0.01230815,0.11951202,0.24081514,-0.00293
 065,0.00250025,-0.01700739,-0.03867816,-0.00430019,-0.16511462,-0.0360
 5418,-0.03829139,-0.03300974,-0.00899476,0.00091294,-0.02484459,0.0238
 3934,0.04124096,-0.04334434,0.05496669,-0.01838184,0.28167245,-0.07744
 701,0.08056350,0.03080179,0.00366001,-0.01255624,-0.00518702,-0.000259
 69,-0.00107696,0.00139771,-0.00100332,0.00008192,0.00010498,-0.0000220
 7,0.00006578,-0.00012870,0.00046427,0.00036072,-0.00023038,0.08080093,
 0.08107495,-0.25491225,-0.08279065,0.00345750,-0.02272333,-0.00649996,
 0.00119345,-0.00017066,0.00232250,-0.00088351,0.00021925,0.00096513,-0
 .00092852,-0.00102126,0.00009706,0.00038827,0.00013780,-0.00057625,-0.
 08552105,0.27929562,0.03034385,-0.08151349,-0.07992811,-0.00649379,0.0
 2022816,0.00763944,-0.00062267,-0.00027280,-0.00074545,0.00018887,0.00
 043732,-0.00126643,0.00124022,0.00152515,0.00043965,-0.00084192,-0.000
 42999,0.00025287,-0.03568670,0.08672301,0.08363949,-0.08067372,-0.0136
 4644,-0.09025236,0.00290869,0.00189043,0.01092477,0.00019708,0.0002954
 3,0.00062880,-0.00012858,0.00035905,0.00003580,0.00043473,-0.00043543,
 0.00059111,-0.00042757,-0.00131578,0.00122396,0.00371116,0.00093470,0.
 01175911,0.08342863,-0.01417951,-0.05253532,-0.03663989,0.00951684,0.0
 0252361,0.02489662,0.00077137,0.00097098,0.00014654,0.00028890,0.00010
 181,-0.00003664,0.00007715,-0.00004660,0.00161206,-0.00143049,-0.00295
 880,0.00178695,-0.01176178,-0.00253523,-0.02672287,0.01714069,0.056271
 08,-0.08904611,-0.03474963,-0.28359688,-0.00634090,-0.00214111,-0.0190
 0147,-0.00044698,-0.00153586,0.00172635,0.00019170,0.00021004,-0.00016
 107,-0.00056393,-0.00019727,-0.00100352,0.00147878,0.00218198,0.000360
 96,-0.00359393,-0.00088907,-0.00900893,0.09673130,0.03573223,0.3073091
 1,-0.31801339,-0.00565639,0.00808378,-0.00653301,-0.00382007,0.0007282
 2,0.00026761,0.00050867,0.00140398,0.00051588,-0.00022139,0.00006841,-
 0.00005391,-0.00049089,0.00021950,-0.00021505,-0.00012319,-0.00029837,
 -0.01032213,-0.00006704,-0.00038623,-0.00958135,0.00040226,0.00088409,
 0.34402616,-0.00648092,-0.04585308,-0.00026433,-0.02794808,-0.00408877
 ,0.00040921,-0.00004313,-0.00061297,0.00257752,0.00081777,-0.00129627,
 0.00023097,-0.00047616,-0.00094100,-0.00024864,-0.00005529,0.00100998,
 -0.00028250,0.03011151,0.00176374,0.00017300,-0.00485546,-0.00118579,0
 .00027887,0.00919741,0.05099724,0.00925952,-0.00041114,-0.04844590,0.0
 2039665,0.00242723,-0.00080268,-0.00046420,-0.00091256,-0.00083694,-0.
 00018742,0.00048958,-0.00126810,0.00107000,0.00179464,0.00039095,0.000
 09382,-0.00076790,0.00006354,0.01251885,0.00044420,-0.00081680,-0.0313
 0879,-0.00025944,0.00293207,-0.01092347,-0.00320748,0.04874054,-0.0029
 2746,0.00293453,0.00056778,-0.00133206,-0.00196594,-0.01569069,-0.0744
 1954,-0.02480563,-0.09856505,0.00427075,0.00243258,0.00722249,0.000902
 87,-0.00241866,0.00130614,0.00299139,-0.00426587,-0.00285312,0.0004619
 9,0.00053986,0.00015566,0.00017879,-0.00049602,0.00045108,-0.00019005,
 -0.00052446,0.00001580,0.07039816,0.00260947,-0.00021773,-0.00150389,-
 0.00840770,0.00054933,-0.02112362,-0.02481936,-0.05501492,-0.03281442,
 0.00904039,0.00757401,0.01637671,-0.00191318,-0.00273343,0.00411351,-0
 .00503636,-0.00050581,-0.00192017,-0.00020340,-0.00019242,0.00010802,-
 0.00017397,-0.00025058,0.00078671,0.00029999,0.00043337,0.00017359,0.0
 2772614,0.04977239,0.00130669,-0.00035055,0.00045120,-0.00112461,0.001
 66663,-0.00338541,-0.09853561,-0.03276839,-0.30515299,-0.00771685,-0.0
 0699581,-0.01080420,0.00016390,0.00232668,-0.00260061,-0.00111050,0.00
 080520,0.00077604,-0.00012174,-0.00014190,0.00007805,-0.00027936,-0.00
 035460,0.00018100,0.00010625,0.00013141,0.00010536,0.10734137,0.036029
 08,0.32055783,0.00063420,-0.00035725,-0.00021129,0.00142697,-0.0009786
 5,-0.00043836,0.00039050,-0.00033500,-0.00150727,-0.12907128,-0.145512
 09,-0.01622526,-0.00187992,-0.01037131,0.00057683,0.00411902,-0.003434
 14,-0.00227751,-0.00007264,-0.00009529,0.00018360,-0.00004116,0.000028
 14,0.00002607,-0.00000589,0.00008081,-0.00015922,-0.00116837,0.0006420
 4,0.00056595,0.12861728,-0.00066425,0.00002595,-0.00032197,-0.00132833
 ,-0.00098379,0.00244512,-0.00703684,-0.00741209,-0.00580327,-0.1454131
 8,-0.25274309,-0.01412799,-0.00387340,-0.00222815,0.00170383,-0.002642
 10,0.00260982,0.00048442,-0.00006416,-0.00007986,-0.00001870,0.0000481
 1,0.00002106,-0.00002791,-0.00004158,-0.00023426,0.00018218,0.00095489
 ,-0.00024655,0.00000422,0.15800865,0.26236054,0.00048178,0.00076193,0.
 00090335,0.00035277,0.00368326,-0.00490271,0.01364418,0.01790261,0.008
 81925,-0.01645039,-0.01448037,-0.05693261,-0.01411197,-0.02127814,0.00
 277412,-0.00406808,-0.00231692,-0.00219257,0.00010840,0.00027874,-0.00
 022309,-0.00001926,-0.00009883,0.00008875,0.00012284,0.00020816,-0.000
 13583,-0.00014135,-0.00110239,0.00025355,0.01859610,0.01633884,0.05120
 873,0.00187921,-0.00032193,0.00068878,-0.00257932,-0.00361850,-0.00061
 076,0.00325612,-0.00340473,-0.00362757,0.00493454,0.00804826,-0.009857
 11,-0.03262090,-0.01581342,0.00197759,-0.00179630,-0.00350405,0.012287
 13,0.00002850,-0.00009331,0.00015998,-0.00000668,-0.00035755,0.0002288
 3,0.00010512,0.00017600,-0.00031155,0.00083353,0.00023593,-0.00059550,
 -0.00294872,0.00205218,0.00148498,0.02891491,0.00007119,0.00125123,0.0
 0170061,-0.00345892,-0.00496623,-0.00122106,-0.00346057,0.00174648,-0.
 00158950,0.00167977,0.00945755,-0.00961099,-0.01536351,-0.10301152,0.1
 2636087,0.00194718,-0.00742829,0.01682682,0.00000014,0.00021860,-0.000
 23682,-0.00024134,-0.00037623,0.00035100,0.00001223,0.00000782,0.00004
 711,-0.00011141,0.00083234,-0.00035196,0.00232411,-0.00108958,0.000103
 12,0.01660112,0.10335782,-0.00019956,0.00030854,0.00048733,-0.00096995
 ,-0.00178237,0.00050475,-0.00350255,-0.00139351,-0.00277937,0.00453787
 ,0.01291301,-0.01056296,0.00096164,0.12476924,-0.30170021,-0.00003556,
 -0.00245270,0.00238737,0.00001673,0.00006720,-0.00006070,-0.00003508,-
 0.00006213,0.00017363,-0.00000899,-0.00000619,0.00007379,0.00018989,0.
 00087688,-0.00045982,0.00087036,-0.00085877,0.00033906,-0.00182480,-0.
 13237919,0.31159715\\0.00000349,-0.00000287,-0.00000395,-0.00000206,-0
 .00000175,-0.00000096,0.00000003,0.00000099,0.00000181,0.00000424,0.00
 000046,0.00000530,-0.00000036,-0.00000125,0.00000139,0.00000175,0.0000
 0502,-0.00000480,-0.00000391,0.00000027,-0.00000608,-0.00000416,-0.000
 00179,-0.00000109,-0.00000320,-0.00000188,-0.00000431,-0.00000201,-0.0
 0000465,0.00000356,0.00000152,0.00000025,0.00000517,0.00000467,0.00000
 720,0.00000394\\\@


 A MAN THINKING OR WORKING IS ALWAYS ALONE, 
 LET HIM BE WHERE HE WILL.

                                    -- THOREAU
 Job cpu time:       0 days  0 hours  2 minutes 20.7 seconds.
 File lengths (MBytes):  RWF=    133 Int=      0 D2E=      0 Chk=      3 Scr=      2
 Normal termination of Gaussian 09 at Fri Mar 21 00:12:47 2025.
