 Entering Gaussian System, Link 0=g09
 Initial command:
 /apps/z_install_tree/linux-rocky8-ivybridge/gcc-12.2.0/gaussian-09-D.01-wczn3gur5lpur3omlkzwa2l5ecyxp5ef/g09/l1.exe "/srv/scratch/z5358697/gauss/Gau-2208808.inp" -scrdir="/srv/scratch/z5358697/gauss/"
 Entering Link 1 = /apps/z_install_tree/linux-rocky8-ivybridge/gcc-12.2.0/gaussian-09-D.01-wczn3gur5lpur3omlkzwa2l5ecyxp5ef/g09/l1.exe PID=   2208810.
  
 Copyright (c) 1988,1990,1992,1993,1995,1998,2003,2009,2013,
            Gaussian, Inc.  All Rights Reserved.
  
 This is part of the Gaussian(R) 09 program.  It is based on
 the Gaussian(R) 03 system (copyright 2003, Gaussian, Inc.),
 the Gaussian(R) 98 system (copyright 1998, Gaussian, Inc.),
 the Gaussian(R) 94 system (copyright 1995, Gaussian, Inc.),
 the Gaussian 92(TM) system (copyright 1992, Gaussian, Inc.),
 the Gaussian 90(TM) system (copyright 1990, Gaussian, Inc.),
 the Gaussian 88(TM) system (copyright 1988, Gaussian, Inc.),
 the Gaussian 86(TM) system (copyright 1986, Carnegie Mellon
 University), and the Gaussian 82(TM) system (copyright 1983,
 Carnegie Mellon University). Gaussian is a federally registered
 trademark of Gaussian, Inc.
  
 This software contains proprietary and confidential information,
 including trade secrets, belonging to Gaussian, Inc.
  
 This software is provided under written license and may be
 used, copied, transmitted, or stored only in accord with that
 written license.
  
 The following legend is applicable only to US Government
 contracts under FAR:
  
                    RESTRICTED RIGHTS LEGEND
  
 Use, reproduction and disclosure by the US Government is
 subject to restrictions as set forth in subparagraphs (a)
 and (c) of the Commercial Computer Software - Restricted
 Rights clause in FAR 52.227-19.
  
 Gaussian, Inc.
 340 Quinnipiac St., Bldg. 40, Wallingford CT 06492
  
  
 ---------------------------------------------------------------
 Warning -- This program may not be used in any manner that
 competes with the business of Gaussian, Inc. or will provide
 assistance to any competitor of Gaussian, Inc.  The licensee
 of this program is prohibited from giving any competitor of
 Gaussian, Inc. access to this program.  By using this program,
 the user acknowledges that Gaussian, Inc. is engaged in the
 business of creating and licensing software in the field of
 computational chemistry and represents and warrants to the
 licensee that it is not a competitor of Gaussian, Inc. and that
 it will not use this program in any manner prohibited above.
 ---------------------------------------------------------------
  

 Cite this work as:
 Gaussian 09, Revision D.01,
 M. J. Frisch, G. W. Trucks, H. B. Schlegel, G. E. Scuseria, 
 M. A. Robb, J. R. Cheeseman, G. Scalmani, V. Barone, B. Mennucci, 
 G. A. Petersson, H. Nakatsuji, M. Caricato, X. Li, H. P. Hratchian, 
 A. F. Izmaylov, J. Bloino, G. Zheng, J. L. Sonnenberg, M. Hada, 
 M. Ehara, K. Toyota, R. Fukuda, J. Hasegawa, M. Ishida, T. Nakajima, 
 Y. Honda, O. Kitao, H. Nakai, T. Vreven, J. A. Montgomery, Jr., 
 J. E. Peralta, F. Ogliaro, M. Bearpark, J. J. Heyd, E. Brothers, 
 K. N. Kudin, V. N. Staroverov, T. Keith, R. Kobayashi, J. Normand, 
 K. Raghavachari, A. Rendell, J. C. Burant, S. S. Iyengar, J. Tomasi, 
 M. Cossi, N. Rega, J. M. Millam, M. Klene, J. E. Knox, J. B. Cross, 
 V. Bakken, C. Adamo, J. Jaramillo, R. Gomperts, R. E. Stratmann, 
 O. Yazyev, A. J. Austin, R. Cammi, C. Pomelli, J. W. Ochterski, 
 R. L. Martin, K. Morokuma, V. G. Zakrzewski, G. A. Voth, 
 P. Salvador, J. J. Dannenberg, S. Dapprich, A. D. Daniels, 
 O. Farkas, J. B. Foresman, J. V. Ortiz, J. Cioslowski, 
 and D. J. Fox, Gaussian, Inc., Wallingford CT, 2013.
 
 ******************************************
 Gaussian 09:  ES64L-G09RevD.01 24-Apr-2013
                17-Mar-2025 
 ******************************************
 ---------------------------------
 #m062X/6-31+G(d) OPT Freq=noraman
 ---------------------------------
 1/14=-1,18=20,19=15,26=3,38=1/1,3;
 2/9=110,12=2,17=6,18=5,40=1/2;
 3/5=1,6=6,7=11,11=2,16=1,25=1,30=1,71=1,74=-55/1,2,3;
 4//1;
 5/5=2,38=5/2;
 6/7=2,8=2,9=2,10=2,28=1/1;
 7//1,2,3,16;
 1/14=-1,18=20,19=15,26=3/3(2);
 2/9=110/2;
 99//99;
 2/9=110/2;
 3/5=1,6=6,7=11,11=2,16=1,25=1,30=1,71=1,74=-55/1,2,3;
 4/5=5,16=3,69=1/1;
 5/5=2,38=5/2;
 7//1,2,3,16;
 1/14=-1,18=20,19=15,26=3/3(-5);
 2/9=110/2;
 6/7=2,8=2,9=2,10=2,19=2,28=1/1;
 99/9=1/99;
 -----------------------
 cyclohepta-1,3,5-triene
 -----------------------
 Symbolic Z-matrix:
 Charge =  0 Multiplicity = 1
 C                     0.5614    1.5769    0.2583 
 C                     1.5396    0.4464    0.1718 
 C                     1.3583   -0.8473   -0.1189 
 C                     0.1445   -1.5187   -0.4994 
 C                    -1.1162   -1.0896   -0.3789 
 C                    -1.5893    0.156     0.1627 
 C                    -0.8983    1.2763    0.4044 
 H                     0.7033    2.2359   -0.6062 
 H                     0.8459    2.1649    1.1414 
 H                     2.5678    0.7448    0.3795 
 H                     2.2393   -1.4875   -0.1212 
 H                     0.2977   -2.5085   -0.9267 
 H                    -1.9068   -1.757    -0.7182 
 H                    -2.6623    0.1814    0.3458 
 H                    -1.4821    2.1232    0.767 
 

 GradGradGradGradGradGradGradGradGradGradGradGradGradGradGradGradGradGrad
 Berny optimization.
 Initialization pass.
                           ----------------------------
                           !    Initial Parameters    !
                           ! (Angstroms and Degrees)  !
 --------------------------                            --------------------------
 ! Name  Definition              Value          Derivative Info.                !
 --------------------------------------------------------------------------------
 ! R1    R(1,2)                  1.4975         estimate D2E/DX2                !
 ! R2    R(1,7)                  1.4975         estimate D2E/DX2                !
 ! R3    R(1,8)                  1.0963         estimate D2E/DX2                !
 ! R4    R(1,9)                  1.0984         estimate D2E/DX2                !
 ! R5    R(2,3)                  1.3383         estimate D2E/DX2                !
 ! R6    R(2,10)                 1.0906         estimate D2E/DX2                !
 ! R7    R(3,4)                  1.4384         estimate D2E/DX2                !
 ! R8    R(3,11)                 1.089          estimate D2E/DX2                !
 ! R9    R(4,5)                  1.3372         estimate D2E/DX2                !
 ! R10   R(4,12)                 1.0889         estimate D2E/DX2                !
 ! R11   R(5,6)                  1.4383         estimate D2E/DX2                !
 ! R12   R(5,13)                 1.0889         estimate D2E/DX2                !
 ! R13   R(6,7)                  1.3383         estimate D2E/DX2                !
 ! R14   R(6,14)                 1.0888         estimate D2E/DX2                !
 ! R15   R(7,15)                 1.0907         estimate D2E/DX2                !
 ! A1    A(2,1,7)              119.3965         estimate D2E/DX2                !
 ! A2    A(2,1,8)              108.8879         estimate D2E/DX2                !
 ! A3    A(2,1,9)              106.3424         estimate D2E/DX2                !
 ! A4    A(7,1,8)              108.892          estimate D2E/DX2                !
 ! A5    A(7,1,9)              106.3492         estimate D2E/DX2                !
 ! A6    A(8,1,9)              106.1815         estimate D2E/DX2                !
 ! A7    A(1,2,3)              130.8318         estimate D2E/DX2                !
 ! A8    A(1,2,10)             113.4724         estimate D2E/DX2                !
 ! A9    A(3,2,10)             115.6954         estimate D2E/DX2                !
 ! A10   A(2,3,4)              128.5364         estimate D2E/DX2                !
 ! A11   A(2,3,11)             117.3311         estimate D2E/DX2                !
 ! A12   A(4,3,11)             114.0611         estimate D2E/DX2                !
 ! A13   A(3,4,5)              128.4617         estimate D2E/DX2                !
 ! A14   A(3,4,12)             114.1654         estimate D2E/DX2                !
 ! A15   A(5,4,12)             117.3675         estimate D2E/DX2                !
 ! A16   A(4,5,6)              128.46           estimate D2E/DX2                !
 ! A17   A(4,5,13)             117.3736         estimate D2E/DX2                !
 ! A18   A(6,5,13)             114.1628         estimate D2E/DX2                !
 ! A19   A(5,6,7)              128.546          estimate D2E/DX2                !
 ! A20   A(5,6,14)             114.0595         estimate D2E/DX2                !
 ! A21   A(7,6,14)             117.3188         estimate D2E/DX2                !
 ! A22   A(1,7,6)              130.8238         estimate D2E/DX2                !
 ! A23   A(1,7,15)             113.474          estimate D2E/DX2                !
 ! A24   A(6,7,15)             115.7021         estimate D2E/DX2                !
 ! D1    D(7,1,2,3)             18.3067         estimate D2E/DX2                !
 ! D2    D(7,1,2,10)          -161.9563         estimate D2E/DX2                !
 ! D3    D(8,1,2,3)           -107.5347         estimate D2E/DX2                !
 ! D4    D(8,1,2,10)            72.2023         estimate D2E/DX2                !
 ! D5    D(9,1,2,3)            138.4321         estimate D2E/DX2                !
 ! D6    D(9,1,2,10)           -41.8309         estimate D2E/DX2                !
 ! D7    D(2,1,7,6)            -18.2829         estimate D2E/DX2                !
 ! D8    D(2,1,7,15)           161.8916         estimate D2E/DX2                !
 ! D9    D(8,1,7,6)            107.5566         estimate D2E/DX2                !
 ! D10   D(8,1,7,15)           -72.2689         estimate D2E/DX2                !
 ! D11   D(9,1,7,6)           -138.4048         estimate D2E/DX2                !
 ! D12   D(9,1,7,15)            41.7697         estimate D2E/DX2                !
 ! D13   D(1,2,3,4)              3.1918         estimate D2E/DX2                !
 ! D14   D(1,2,3,11)           179.9128         estimate D2E/DX2                !
 ! D15   D(10,2,3,4)          -176.5404         estimate D2E/DX2                !
 ! D16   D(10,2,3,11)            0.1805         estimate D2E/DX2                !
 ! D17   D(2,3,4,5)            -15.7249         estimate D2E/DX2                !
 ! D18   D(2,3,4,12)           165.1451         estimate D2E/DX2                !
 ! D19   D(11,3,4,5)           167.4652         estimate D2E/DX2                !
 ! D20   D(11,3,4,12)          -11.6647         estimate D2E/DX2                !
 ! D21   D(3,4,5,6)              0.0071         estimate D2E/DX2                !
 ! D22   D(3,4,5,13)          -179.2536         estimate D2E/DX2                !
 ! D23   D(12,4,5,6)           179.1133         estimate D2E/DX2                !
 ! D24   D(12,4,5,13)           -0.1474         estimate D2E/DX2                !
 ! D25   D(4,5,6,7)             15.7349         estimate D2E/DX2                !
 ! D26   D(4,5,6,14)          -167.5506         estimate D2E/DX2                !
 ! D27   D(13,5,6,7)          -164.9847         estimate D2E/DX2                !
 ! D28   D(13,5,6,14)           11.7299         estimate D2E/DX2                !
 ! D29   D(5,6,7,1)             -3.2316         estimate D2E/DX2                !
 ! D30   D(5,6,7,15)           176.5908         estimate D2E/DX2                !
 ! D31   D(14,6,7,1)          -179.8548         estimate D2E/DX2                !
 ! D32   D(14,6,7,15)           -0.0324         estimate D2E/DX2                !
 --------------------------------------------------------------------------------
 Trust Radius=3.00D-01 FncErr=1.00D-07 GrdErr=1.00D-06
 Number of steps in this run=     81 maximum allowed number of steps=    100.
 GradGradGradGradGradGradGradGradGradGradGradGradGradGradGradGradGradGrad

                          Input orientation:                          
 ---------------------------------------------------------------------
 Center     Atomic      Atomic             Coordinates (Angstroms)
 Number     Number       Type             X           Y           Z
 ---------------------------------------------------------------------
      1          6           0        0.561400    1.576900    0.258300
      2          6           0        1.539600    0.446400    0.171800
      3          6           0        1.358300   -0.847300   -0.118900
      4          6           0        0.144500   -1.518700   -0.499400
      5          6           0       -1.116200   -1.089600   -0.378900
      6          6           0       -1.589300    0.156000    0.162700
      7          6           0       -0.898300    1.276300    0.404400
      8          1           0        0.703300    2.235900   -0.606200
      9          1           0        0.845900    2.164900    1.141400
     10          1           0        2.567800    0.744800    0.379500
     11          1           0        2.239300   -1.487500   -0.121200
     12          1           0        0.297700   -2.508500   -0.926700
     13          1           0       -1.906800   -1.757000   -0.718200
     14          1           0       -2.662300    0.181400    0.345800
     15          1           0       -1.482100    2.123200    0.767000
 ---------------------------------------------------------------------
                    Distance matrix (angstroms):
                    1          2          3          4          5
     1  C    0.000000
     2  C    1.497460   0.000000
     3  C    2.579549   1.338296   0.000000
     4  C    3.214134   2.501686   1.438356   0.000000
     5  C    3.214123   3.117024   2.499892   1.337165   0.000000
     6  C    2.579459   3.142361   3.126381   2.499812   1.438288
     7  C    1.497474   2.585767   3.142573   3.117100   2.501704
     8  H    1.096256   2.122968   3.189453   3.797458   3.797525
     9  H    1.098431   2.091551   3.305187   4.093055   4.093033
    10  H    2.175482   1.090586   2.060601   3.430493   4.184740
    11  H    3.514245   2.077354   1.089047   2.128895   3.388822
    12  H    4.261954   3.388282   2.130023   1.088926   2.076650
    13  H    4.261508   4.186257   3.442033   2.076654   1.088851
    14  H    3.513875   4.213842   4.176050   3.388632   2.128628
    15  H    2.175572   3.506650   4.204350   4.184857   3.430605
                    6          7          8          9         10
     6  C    0.000000
     7  C    1.338272   0.000000
     8  H    3.189546   2.123033   0.000000
     9  H    3.305107   2.091653   1.754845   0.000000
    10  H    4.204185   3.506702   2.582894   2.358414   0.000000
    11  H    4.176107   4.214188   4.056874   4.108010   2.311228
    12  H    3.441965   4.186521   4.772480   5.139867   4.176538
    13  H    2.129873   3.387951   4.771626   5.139725   5.242709
    14  H    1.088807   2.077002   4.056419   4.107885   5.260466
    15  H    2.060715   1.090661   2.583477   2.358283   4.295560
                   11         12         13         14         15
    11  H    0.000000
    12  H    2.336896   0.000000
    13  H    4.197521   2.338385   0.000000
    14  H    5.198942   4.197192   2.336722   0.000000
    15  H    5.260691   5.242991   4.176379   2.311032   0.000000
 Stoichiometry    C7H8
 Framework group  C1[X(C7H8)]
 Deg. of freedom    39
 Full point group                 C1      NOp   1
 Largest Abelian subgroup         C1      NOp   1
 Largest concise Abelian subgroup C1      NOp   1
                         Standard orientation:                         
 ---------------------------------------------------------------------
 Center     Atomic      Atomic             Coordinates (Angstroms)
 Number     Number       Type             X           Y           Z
 ---------------------------------------------------------------------
      1          6           0        1.649222    0.000952    0.163100
      2          6           0        0.924899    1.293385   -0.054525
      3          6           0       -0.384504    1.563024   -0.116117
      4          6           0       -1.493779    0.667687    0.075580
      5          6           0       -1.492977   -0.669478    0.075397
      6          6           0       -0.382630   -1.563356   -0.116403
      7          6           0        0.926456   -1.292382   -0.054443
      8          1           0        2.080705    0.001289    1.170870
      9          1           0        2.498503    0.001516   -0.533515
     10          1           0        1.590137    2.148729   -0.177903
     11          1           0       -0.674245    2.599143   -0.285024
     12          1           0       -2.449453    1.167669    0.225466
     13          1           0       -2.447543   -1.170715    0.227585
     14          1           0       -0.670992   -2.599798   -0.284137
     15          1           0        1.592768   -2.146829   -0.178892
 ---------------------------------------------------------------------
 Rotational constants (GHZ):      3.6617698      3.5629898      1.8434036
 Standard basis: 6-31+G(d) (6D, 7F)
 There are   149 symmetry adapted cartesian basis functions of A   symmetry.
 There are   149 symmetry adapted basis functions of A   symmetry.
   149 basis functions,   256 primitive gaussians,   149 cartesian basis functions
    25 alpha electrons       25 beta electrons
       nuclear repulsion energy       268.5710103421 Hartrees.
 NAtoms=   15 NActive=   15 NUniq=   15 SFac= 1.00D+00 NAtFMM=   60 NAOKFM=F Big=F
 Integral buffers will be    131072 words long.
 Raffenetti 2 integral format.
 Two-electron integral symmetry is turned on.
 One-electron integrals computed using PRISM.
 NBasis=   149 RedAO= T EigKep=  4.27D-06  NBF=   149
 NBsUse=   149 1.00D-06 EigRej= -1.00D+00 NBFU=   149
 ExpMin= 4.38D-02 ExpMax= 3.05D+03 ExpMxC= 4.57D+02 IAcc=2 IRadAn=         4 AccDes= 0.00D+00
 Harris functional with IExCor= 1009 and IRadAn=       4 diagonalized for initial guess.
 HarFok:  IExCor= 1009 AccDes= 0.00D+00 IRadAn=         4 IDoV= 1 UseB2=F ITyADJ=14
 ICtDFT=  3500011 ScaDFX=  1.000000  1.000000  1.000000  1.000000
 FoFCou: FMM=F IPFlag=           0 FMFlag=      100000 FMFlg1=           0
         NFxFlg=           0 DoJE=T BraDBF=F KetDBF=T FulRan=T
         wScrn=  0.000000 ICntrl=     500 IOpCl=  0 I1Cent=   200000004 NGrid=           0
         NMat0=    1 NMatS0=      1 NMatT0=    0 NMatD0=    1 NMtDS0=    0 NMtDT0=    0
 Petite list used in FoFCou.
 Requested convergence on RMS density matrix=1.00D-08 within 128 cycles.
 Requested convergence on MAX density matrix=1.00D-06.
 Requested convergence on             energy=1.00D-06.
 No special actions if energy rises.
 SCF Done:  E(RM062X) =  -271.374559092     A.U. after   12 cycles
            NFock= 12  Conv=0.71D-08     -V/T= 2.0084

 **********************************************************************

            Population analysis using the SCF density.

 **********************************************************************

 Orbital symmetries:
       Occupied  (A) (A) (A) (A) (A) (A) (A) (A) (A) (A) (A) (A)
                 (A) (A) (A) (A) (A) (A) (A) (A) (A) (A) (A) (A)
                 (A)
       Virtual   (A) (A) (A) (A) (A) (A) (A) (A) (A) (A) (A) (A)
                 (A) (A) (A) (A) (A) (A) (A) (A) (A) (A) (A) (A)
                 (A) (A) (A) (A) (A) (A) (A) (A) (A) (A) (A) (A)
                 (A) (A) (A) (A) (A) (A) (A) (A) (A) (A) (A) (A)
                 (A) (A) (A) (A) (A) (A) (A) (A) (A) (A) (A) (A)
                 (A) (A) (A) (A) (A) (A) (A) (A) (A) (A) (A) (A)
                 (A) (A) (A) (A) (A) (A) (A) (A) (A) (A) (A) (A)
                 (A) (A) (A) (A) (A) (A) (A) (A) (A) (A) (A) (A)
                 (A) (A) (A) (A) (A) (A) (A) (A) (A) (A) (A) (A)
                 (A) (A) (A) (A) (A) (A) (A) (A) (A) (A) (A) (A)
                 (A) (A) (A) (A)
 The electronic state is 1-A.
 Alpha  occ. eigenvalues --  -10.55941 -10.55902 -10.55881 -10.55046 -10.54986
 Alpha  occ. eigenvalues --  -10.54961 -10.54913  -0.94258  -0.87175  -0.87004
 Alpha  occ. eigenvalues --   -0.76016  -0.72690  -0.60591  -0.58864  -0.58538
 Alpha  occ. eigenvalues --   -0.51222  -0.51003  -0.49703  -0.45334  -0.44188
 Alpha  occ. eigenvalues --   -0.41201  -0.38780  -0.38344  -0.34076  -0.25257
 Alpha virt. eigenvalues --   -0.02504   0.02467   0.03570   0.03580   0.05342
 Alpha virt. eigenvalues --    0.05371   0.06608   0.07102   0.07557   0.08072
 Alpha virt. eigenvalues --    0.09617   0.10190   0.10194   0.12716   0.13235
 Alpha virt. eigenvalues --    0.13559   0.14588   0.14739   0.15527   0.17308
 Alpha virt. eigenvalues --    0.17771   0.18486   0.18669   0.19146   0.20900
 Alpha virt. eigenvalues --    0.21148   0.21895   0.23038   0.23395   0.23893
 Alpha virt. eigenvalues --    0.24709   0.25212   0.26197   0.27013   0.28430
 Alpha virt. eigenvalues --    0.30806   0.31698   0.33455   0.34720   0.35085
 Alpha virt. eigenvalues --    0.37903   0.43773   0.44046   0.47992   0.49761
 Alpha virt. eigenvalues --    0.59669   0.67530   0.68556   0.69820   0.73729
 Alpha virt. eigenvalues --    0.74698   0.76102   0.76119   0.77234   0.78437
 Alpha virt. eigenvalues --    0.80877   0.80963   0.84457   0.85152   0.86330
 Alpha virt. eigenvalues --    0.87038   0.89746   1.00478   1.00927   1.02543
 Alpha virt. eigenvalues --    1.02871   1.03976   1.06330   1.06333   1.07667
 Alpha virt. eigenvalues --    1.07964   1.10410   1.13105   1.15582   1.20274
 Alpha virt. eigenvalues --    1.21603   1.26108   1.31177   1.34083   1.34826
 Alpha virt. eigenvalues --    1.47532   1.47855   1.51013   1.53895   1.57162
 Alpha virt. eigenvalues --    1.60428   1.68892   1.75082   1.80433   1.84028
 Alpha virt. eigenvalues --    1.89860   1.92478   1.97129   2.00170   2.00352
 Alpha virt. eigenvalues --    2.08898   2.13425   2.15302   2.16776   2.17176
 Alpha virt. eigenvalues --    2.19644   2.26233   2.39165   2.39429   2.40544
 Alpha virt. eigenvalues --    2.49171   2.49257   2.58018   2.60388   2.61311
 Alpha virt. eigenvalues --    2.68613   2.75589   2.77659   2.81434   3.04832
 Alpha virt. eigenvalues --    3.15440   3.30351   4.20781   4.28659   4.29845
 Alpha virt. eigenvalues --    4.35615   4.40882   4.65200   4.66226
          Condensed to atoms (all electrons):
               1          2          3          4          5          6
     1  C    6.842651  -0.428263   0.249223  -0.163444  -0.163015   0.250030
     2  C   -0.428263   5.910160   0.263619  -0.030220   0.046361  -0.159657
     3  C    0.249223   0.263619   5.405379   0.091924  -0.046652   0.065752
     4  C   -0.163444  -0.030220   0.091924   5.526077   0.428491  -0.046284
     5  C   -0.163015   0.046361  -0.046652   0.428491   5.526295   0.091705
     6  C    0.250030  -0.159657   0.065752  -0.046284   0.091705   5.405980
     7  C   -0.429251   0.196528  -0.159418   0.046480  -0.030347   0.262519
     8  H    0.284870   0.033836  -0.040638   0.007319   0.007311  -0.040716
     9  H    0.593213  -0.150844   0.018310  -0.010086  -0.010078   0.018349
    10  H   -0.026343   0.273140   0.044675   0.005521  -0.004199  -0.001797
    11  H   -0.013026   0.017283   0.243134   0.050342   0.004731   0.001247
    12  H    0.004110   0.007086   0.047076   0.223413   0.036456  -0.010818
    13  H    0.004052  -0.006473  -0.010823   0.036551   0.223329   0.047053
    14  H   -0.013092  -0.002381   0.001225   0.004728   0.050272   0.243360
    15  H   -0.026185   0.014054  -0.001797  -0.004199   0.005525   0.044744
               7          8          9         10         11         12
     1  C   -0.429251   0.284870   0.593213  -0.026343  -0.013026   0.004110
     2  C    0.196528   0.033836  -0.150844   0.273140   0.017283   0.007086
     3  C   -0.159418  -0.040638   0.018310   0.044675   0.243134   0.047076
     4  C    0.046480   0.007319  -0.010086   0.005521   0.050342   0.223413
     5  C   -0.030347   0.007311  -0.010078  -0.004199   0.004731   0.036456
     6  C    0.262519  -0.040716   0.018349  -0.001797   0.001247  -0.010818
     7  C    5.911772   0.033902  -0.150867   0.014135  -0.002393  -0.006505
     8  H    0.033902   0.522644  -0.040827   0.000494  -0.000095   0.000010
     9  H   -0.150867  -0.040827   0.522169  -0.005391  -0.000121  -0.000001
    10  H    0.014135   0.000494  -0.005391   0.516361  -0.008120  -0.000155
    11  H   -0.002393  -0.000095  -0.000121  -0.008120   0.521388  -0.006808
    12  H   -0.006505   0.000010  -0.000001  -0.000155  -0.006808   0.520786
    13  H    0.007118   0.000010  -0.000001   0.000004  -0.000142  -0.008016
    14  H    0.017210  -0.000095  -0.000121   0.000002   0.000003  -0.000142
    15  H    0.272996   0.000493  -0.005388  -0.000110   0.000002   0.000004
              13         14         15
     1  C    0.004052  -0.013092  -0.026185
     2  C   -0.006473  -0.002381   0.014054
     3  C   -0.010823   0.001225  -0.001797
     4  C    0.036551   0.004728  -0.004199
     5  C    0.223329   0.050272   0.005525
     6  C    0.047053   0.243360   0.044744
     7  C    0.007118   0.017210   0.272996
     8  H    0.000010  -0.000095   0.000493
     9  H   -0.000001  -0.000121  -0.005388
    10  H    0.000004   0.000002  -0.000110
    11  H   -0.000142   0.000003   0.000002
    12  H   -0.008016  -0.000142   0.000004
    13  H    0.520786  -0.006813  -0.000155
    14  H   -0.006813   0.521422  -0.008125
    15  H   -0.000155  -0.008125   0.516351
 Mulliken charges:
               1
     1  C   -0.965529
     2  C    0.015771
     3  C   -0.170988
     4  C   -0.166612
     5  C   -0.166186
     6  C   -0.171465
     7  C    0.016121
     8  H    0.231482
     9  H    0.221684
    10  H    0.191784
    11  H    0.192576
    12  H    0.193504
    13  H    0.193520
    14  H    0.192548
    15  H    0.191789
 Sum of Mulliken charges =   0.00000
 Mulliken charges with hydrogens summed into heavy atoms:
               1
     1  C   -0.512364
     2  C    0.207556
     3  C    0.021589
     4  C    0.026892
     5  C    0.027334
     6  C    0.021082
     7  C    0.207911
 Electronic spatial extent (au):  <R**2>=            686.3950
 Charge=              0.0000 electrons
 Dipole moment (field-independent basis, Debye):
    X=              0.5676    Y=              0.0001    Z=              0.1542  Tot=              0.5881
 Quadrupole moment (field-independent basis, Debye-Ang):
   XX=            -38.2927   YY=            -39.4315   ZZ=            -46.7676
   XY=              0.0007   XZ=             -0.2631   YZ=             -0.0031
 Traceless Quadrupole moment (field-independent basis, Debye-Ang):
   XX=              3.2046   YY=              2.0657   ZZ=             -5.2704
   XY=              0.0007   XZ=             -0.2631   YZ=             -0.0031
 Octapole moment (field-independent basis, Debye-Ang**2):
  XXX=              0.3555  YYY=             -0.0065  ZZZ=              1.7868  XYY=             -1.9488
  XXY=              0.0041  XXZ=              1.0796  XZZ=              3.0900  YZZ=              0.0004
  YYZ=             -2.5247  XYZ=              0.0140
 Hexadecapole moment (field-independent basis, Debye-Ang**3):
 XXXX=           -442.6539 YYYY=           -419.2393 ZZZZ=            -69.3664 XXXY=             -0.0171
 XXXZ=             -6.8862 YYYX=              0.0127 YYYZ=             -0.0170 ZZZX=              2.6351
 ZZZY=             -0.0028 XXYY=           -138.0988 XXZZ=            -91.9349 YYZZ=            -95.9321
 XXYZ=             -0.0168 YYXZ=             -0.6243 ZZXY=              0.0063
 N-N= 2.685710103421D+02 E-N=-1.164753726924D+03  KE= 2.691096117297D+02
 Calling FoFJK, ICntrl=      2127 FMM=F ISym2X=0 I1Cent= 0 IOpClX= 0 NMat=1 NMatS=1 NMatT=0.
 ***** Axes restored to original set *****
 -------------------------------------------------------------------
 Center     Atomic                   Forces (Hartrees/Bohr)
 Number     Number              X              Y              Z
 -------------------------------------------------------------------
      1        6           0.000867784    0.002566263   -0.000078954
      2        6           0.007484010   -0.004284994    0.003523804
      3        6           0.010259825    0.005086525    0.000583782
      4        6          -0.003222407   -0.013734009   -0.005549438
      5        6          -0.006667817   -0.012434940   -0.005417504
      6        6          -0.004736624    0.010310147    0.001869709
      7        6          -0.007767707    0.000934147    0.005129633
      8        1           0.001345657    0.004433207   -0.001662531
      9        1           0.001010721    0.003700145   -0.002560421
     10        1          -0.000502334    0.000520374    0.001691341
     11        1           0.001380070    0.002202019    0.000357749
     12        1          -0.001911342   -0.000305850    0.000139244
     13        1           0.001287254   -0.001509749   -0.000046171
     14        1           0.000167571    0.002531191    0.000557659
     15        1           0.001005339   -0.000014477    0.001462098
 -------------------------------------------------------------------
 Cartesian Forces:  Max     0.013734009 RMS     0.004659437

 GradGradGradGradGradGradGradGradGradGradGradGradGradGradGradGradGradGrad
 Berny optimization.
 FormGI is forming the generalized inverse of G from B-inverse, IUseBI=4.
 Internal  Forces:  Max     0.018226067 RMS     0.003924177
 Search for a local minimum.
 Step number   1 out of a maximum of   81
 All quantities printed in internal units (Hartrees-Bohrs-Radians)
 Mixed Optimization -- RFO/linear search
 Second derivative matrix not updated -- first step.
 ITU=  0
     Eigenvalues ---    0.00944   0.01505   0.01660   0.01907   0.01967
     Eigenvalues ---    0.02188   0.02280   0.02304   0.02514   0.02654
     Eigenvalues ---    0.04147   0.06575   0.11044   0.12349   0.15982
     Eigenvalues ---    0.15984   0.15999   0.15999   0.16000   0.16000
     Eigenvalues ---    0.21642   0.21704   0.21890   0.22022   0.31817
     Eigenvalues ---    0.32263   0.33856   0.34100   0.34736   0.34745
     Eigenvalues ---    0.34923   0.34937   0.34946   0.34951   0.38622
     Eigenvalues ---    0.39232   0.54845   0.56297   0.57614
 RFO step:  Lambda=-3.77341306D-03 EMin= 9.44397268D-03
 Linear search not attempted -- first point.
 Iteration  1 RMS(Cart)=  0.02769031 RMS(Int)=  0.00039538
 Iteration  2 RMS(Cart)=  0.00046317 RMS(Int)=  0.00014437
 Iteration  3 RMS(Cart)=  0.00000009 RMS(Int)=  0.00014437
 Variable       Old X    -DE/DX   Delta X   Delta X   Delta X     New X
                                 (Linear)    (Quad)   (Total)
    R1        2.82979   0.00856   0.00000   0.02360   0.02346   2.85325
    R2        2.82982   0.00855   0.00000   0.02358   0.02344   2.85325
    R3        2.07162   0.00415   0.00000   0.01202   0.01202   2.08365
    R4        2.07573   0.00019   0.00000   0.00055   0.00055   2.07628
    R5        2.52901   0.00470   0.00000   0.00779   0.00776   2.53677
    R6        2.06091  -0.00001   0.00000  -0.00003  -0.00003   2.06088
    R7        2.71810   0.01817   0.00000   0.04659   0.04669   2.76479
    R8        2.05800  -0.00018   0.00000  -0.00051  -0.00051   2.05749
    R9        2.52688   0.00942   0.00000   0.01770   0.01787   2.54475
   R10        2.05777  -0.00005   0.00000  -0.00013  -0.00013   2.05764
   R11        2.71797   0.01823   0.00000   0.04672   0.04682   2.76479
   R12        2.05763   0.00001   0.00000   0.00002   0.00002   2.05765
   R13        2.52897   0.00472   0.00000   0.00784   0.00780   2.53677
   R14        2.05755  -0.00001   0.00000  -0.00004  -0.00004   2.05751
   R15        2.06105  -0.00006   0.00000  -0.00018  -0.00018   2.06087
    A1        2.08386  -0.00125   0.00000  -0.01030  -0.01074   2.07312
    A2        1.90045   0.00116   0.00000   0.01213   0.01222   1.91267
    A3        1.85602   0.00063   0.00000   0.00767   0.00789   1.86391
    A4        1.90052   0.00116   0.00000   0.01208   0.01217   1.91270
    A5        1.85614   0.00062   0.00000   0.00760   0.00781   1.86396
    A6        1.85322  -0.00264   0.00000  -0.03381  -0.03382   1.81939
    A7        2.28345   0.00121   0.00000  -0.00157  -0.00198   2.28147
    A8        1.98047  -0.00152   0.00000  -0.00483  -0.00464   1.97583
    A9        2.01927   0.00031   0.00000   0.00637   0.00657   2.02583
   A10        2.24338   0.00252   0.00000   0.01095   0.01075   2.25414
   A11        2.04781  -0.00392   0.00000  -0.02137  -0.02137   2.02645
   A12        1.99074   0.00142   0.00000   0.01139   0.01140   2.00214
   A13        2.24208  -0.00317   0.00000  -0.00987  -0.00983   2.23225
   A14        1.99256   0.00354   0.00000   0.01685   0.01682   2.00938
   A15        2.04845  -0.00038   0.00000  -0.00711  -0.00714   2.04131
   A16        2.24205  -0.00316   0.00000  -0.00985  -0.00982   2.23223
   A17        2.04856  -0.00039   0.00000  -0.00718  -0.00722   2.04133
   A18        1.99252   0.00355   0.00000   0.01691   0.01686   2.00938
   A19        2.24355   0.00249   0.00000   0.01084   0.01063   2.25418
   A20        1.99071   0.00142   0.00000   0.01143   0.01143   2.00214
   A21        2.04760  -0.00389   0.00000  -0.02118  -0.02120   2.02640
   A22        2.28331   0.00122   0.00000  -0.00149  -0.00190   2.28140
   A23        1.98049  -0.00152   0.00000  -0.00482  -0.00463   1.97586
   A24        2.01938   0.00030   0.00000   0.00629   0.00648   2.02586
    D1        0.31951   0.00123   0.00000   0.06055   0.06042   0.37993
    D2       -2.82667   0.00117   0.00000   0.05300   0.05284  -2.77383
    D3       -1.87683  -0.00046   0.00000   0.04055   0.04058  -1.83625
    D4        1.26017  -0.00052   0.00000   0.03300   0.03301   1.29317
    D5        2.41610   0.00173   0.00000   0.07008   0.07004   2.48613
    D6       -0.73009   0.00167   0.00000   0.06253   0.06246  -0.66763
    D7       -0.31910  -0.00123   0.00000  -0.06097  -0.06084  -0.37993
    D8        2.82554  -0.00115   0.00000  -0.05213  -0.05198   2.77356
    D9        1.87722   0.00046   0.00000  -0.04095  -0.04098   1.83624
   D10       -1.26133   0.00054   0.00000  -0.03211  -0.03212  -1.29345
   D11       -2.41562  -0.00174   0.00000  -0.07054  -0.07049  -2.48611
   D12        0.72902  -0.00166   0.00000  -0.06170  -0.06164   0.66738
   D13        0.05571  -0.00070   0.00000  -0.03852  -0.03861   0.01710
   D14        3.14007  -0.00013   0.00000  -0.01589  -0.01613   3.12394
   D15       -3.08121  -0.00064   0.00000  -0.03081  -0.03083  -3.11205
   D16        0.00315  -0.00007   0.00000  -0.00818  -0.00835  -0.00520
   D17       -0.27445   0.00062   0.00000   0.01147   0.01141  -0.26304
   D18        2.88233   0.00060   0.00000   0.02103   0.02112   2.90345
   D19        2.92282   0.00021   0.00000  -0.00964  -0.00992   2.91290
   D20       -0.20359   0.00019   0.00000  -0.00008  -0.00021  -0.20380
   D21        0.00012   0.00000   0.00000  -0.00026  -0.00026  -0.00013
   D22       -3.12857   0.00002   0.00000   0.01199   0.01202  -3.11655
   D23        3.12612   0.00004   0.00000  -0.00991  -0.00994   3.11618
   D24       -0.00257   0.00007   0.00000   0.00234   0.00233  -0.00024
   D25        0.27463  -0.00062   0.00000  -0.01145  -0.01139   0.26324
   D26       -2.92431  -0.00016   0.00000   0.01146   0.01176  -2.91255
   D27       -2.87953  -0.00067   0.00000  -0.02352  -0.02362  -2.90315
   D28        0.20472  -0.00021   0.00000  -0.00060  -0.00047   0.20425
   D29       -0.05640   0.00071   0.00000   0.03917   0.03926  -0.01715
   D30        3.08209   0.00063   0.00000   0.03016   0.03018   3.11227
   D31       -3.13906   0.00008   0.00000   0.01467   0.01491  -3.12415
   D32       -0.00057   0.00000   0.00000   0.00566   0.00584   0.00527
         Item               Value     Threshold  Converged?
 Maximum Force            0.018226     0.000450     NO 
 RMS     Force            0.003924     0.000300     NO 
 Maximum Displacement     0.092304     0.001800     NO 
 RMS     Displacement     0.027689     0.001200     NO 
 Predicted change in Energy=-1.982252D-03
 GradGradGradGradGradGradGradGradGradGradGradGradGradGradGradGradGradGrad

                          Input orientation:                          
 ---------------------------------------------------------------------
 Center     Atomic      Atomic             Coordinates (Angstroms)
 Number     Number       Type             X           Y           Z
 ---------------------------------------------------------------------
      1          6           0        0.564627    1.588910    0.248582
      2          6           0        1.547303    0.444279    0.186237
      3          6           0        1.366447   -0.849234   -0.123853
      4          6           0        0.139803   -1.541520   -0.519637
      5          6           0       -1.129804   -1.109268   -0.398622
      6          6           0       -1.597759    0.159915    0.158831
      7          6           0       -0.903028    1.278493    0.419931
      8          1           0        0.704132    2.243998   -0.627299
      9          1           0        0.858877    2.213745    1.103091
     10          1           0        2.568762    0.741254    0.426602
     11          1           0        2.257755   -1.474389   -0.110032
     12          1           0        0.285034   -2.534460   -0.942238
     13          1           0       -1.915371   -1.785200   -0.732709
     14          1           0       -2.667002    0.202153    0.359816
     15          1           0       -1.476975    2.118523    0.812701
 ---------------------------------------------------------------------
                    Distance matrix (angstroms):
                    1          2          3          4          5
     1  C    0.000000
     2  C    1.509874   0.000000
     3  C    2.593487   1.342402   0.000000
     4  C    3.251189   2.534307   1.463065   0.000000
     5  C    3.251174   3.149995   2.524754   1.346621   0.000000
     6  C    2.593452   3.158010   3.144012   2.524742   1.463065
     7  C    1.509877   2.598970   3.158076   3.150042   2.534336
     8  H    1.102619   2.147502   3.203156   3.828865   3.828839
     9  H    1.098721   2.108450   3.338392   4.153593   4.153602
    10  H    2.183294   1.090572   2.068385   3.465006   4.217205
    11  H    3.518393   2.067318   1.088778   2.158240   3.419379
    12  H    4.300978   3.426320   2.163145   1.088858   2.080494
    13  H    4.300923   4.219615   3.466564   2.080510   1.088859
    14  H    3.518365   4.224821   4.196196   3.419355   2.158247
    15  H    2.183314   3.513091   4.215420   4.217228   3.465035
                    6          7          8          9         10
     6  C    0.000000
     7  C    1.342402   0.000000
     8  H    3.203140   2.147523   0.000000
     9  H    3.338398   2.108486   1.737559   0.000000
    10  H    4.215395   3.513118   2.616446   2.355754   0.000000
    11  H    4.196215   4.224899   4.062968   4.126846   2.300820
    12  H    3.466542   4.219669   4.807129   5.201742   4.221308
    13  H    2.163144   3.426315   4.807010   5.201747   5.275834
    14  H    1.088788   2.067299   4.063012   4.126836   5.263868
    15  H    2.068401   1.090566   2.616596   2.355758   4.291146
                   11         12         13         14         15
    11  H    0.000000
    12  H    2.389131   0.000000
    13  H    4.230758   2.333897   0.000000
    14  H    5.223483   4.230710   2.389169   0.000000
    15  H    5.263901   5.275864   4.221319   2.300813   0.000000
 Stoichiometry    C7H8
 Framework group  C1[X(C7H8)]
 Deg. of freedom    39
 Full point group                 C1      NOp   1
 Largest Abelian subgroup         C1      NOp   1
 Largest concise Abelian subgroup C1      NOp   1
                         Standard orientation:                         
 ---------------------------------------------------------------------
 Center     Atomic      Atomic             Coordinates (Angstroms)
 Number     Number       Type             X           Y           Z
 ---------------------------------------------------------------------
      1          6           0        1.661717    0.000250    0.181084
      2          6           0        0.933738    1.299613   -0.066751
      3          6           0       -0.379844    1.571958   -0.115457
      4          6           0       -1.517494    0.673078    0.080321
      5          6           0       -1.517277   -0.673543    0.080396
      6          6           0       -0.379345   -1.572054   -0.115435
      7          6           0        0.934165   -1.299357   -0.066745
      8          1           0        2.081451    0.000336    1.200688
      9          1           0        2.543573    0.000420   -0.474291
     10          1           0        1.604641    2.145827   -0.218929
     11          1           0       -0.647173    2.611664   -0.297073
     12          1           0       -2.477918    1.166557    0.220597
     13          1           0       -2.477496   -1.167340    0.220955
     14          1           0       -0.646354   -2.611819   -0.297243
     15          1           0        1.605318   -2.145318   -0.219185
 ---------------------------------------------------------------------
 Rotational constants (GHZ):      3.6223304      3.4833485      1.8143418
 Standard basis: 6-31+G(d) (6D, 7F)
 There are   149 symmetry adapted cartesian basis functions of A   symmetry.
 There are   149 symmetry adapted basis functions of A   symmetry.
   149 basis functions,   256 primitive gaussians,   149 cartesian basis functions
    25 alpha electrons       25 beta electrons
       nuclear repulsion energy       266.5198647633 Hartrees.
 NAtoms=   15 NActive=   15 NUniq=   15 SFac= 1.00D+00 NAtFMM=   60 NAOKFM=F Big=F
 Integral buffers will be    131072 words long.
 Raffenetti 2 integral format.
 Two-electron integral symmetry is turned on.
 One-electron integrals computed using PRISM.
 NBasis=   149 RedAO= T EigKep=  5.13D-06  NBF=   149
 NBsUse=   149 1.00D-06 EigRej= -1.00D+00 NBFU=   149
 Initial guess from the checkpoint file:  "/srv/scratch/z5358697/gauss/Gau-2208810.chk"
 B after Tr=     0.000000    0.000000    0.000000
         Rot=    1.000000    0.000001    0.000878    0.000222 Ang=   0.10 deg.
 ExpMin= 4.38D-02 ExpMax= 3.05D+03 ExpMxC= 4.57D+02 IAcc=2 IRadAn=         4 AccDes= 0.00D+00
 Harris functional with IExCor= 1009 and IRadAn=       4 diagonalized for initial guess.
 HarFok:  IExCor= 1009 AccDes= 0.00D+00 IRadAn=         4 IDoV= 1 UseB2=F ITyADJ=14
 ICtDFT=  3500011 ScaDFX=  1.000000  1.000000  1.000000  1.000000
 FoFCou: FMM=F IPFlag=           0 FMFlag=      100000 FMFlg1=           0
         NFxFlg=           0 DoJE=T BraDBF=F KetDBF=T FulRan=T
         wScrn=  0.000000 ICntrl=     500 IOpCl=  0 I1Cent=   200000004 NGrid=           0
         NMat0=    1 NMatS0=      1 NMatT0=    0 NMatD0=    1 NMtDS0=    0 NMtDT0=    0
 Petite list used in FoFCou.
 Requested convergence on RMS density matrix=1.00D-08 within 128 cycles.
 Requested convergence on MAX density matrix=1.00D-06.
 Requested convergence on             energy=1.00D-06.
 No special actions if energy rises.
 SCF Done:  E(RM062X) =  -271.376609905     A.U. after   11 cycles
            NFock= 11  Conv=0.82D-08     -V/T= 2.0093
 Calling FoFJK, ICntrl=      2127 FMM=F ISym2X=0 I1Cent= 0 IOpClX= 0 NMat=1 NMatS=1 NMatT=0.
 ***** Axes restored to original set *****
 -------------------------------------------------------------------
 Center     Atomic                   Forces (Hartrees/Bohr)
 Number     Number              X              Y              Z
 -------------------------------------------------------------------
      1        6          -0.000125698   -0.000062086   -0.001100417
      2        6          -0.000323224   -0.001199572    0.001568689
      3        6          -0.000642464    0.002018377   -0.001273190
      4        6          -0.000568782   -0.000002548   -0.000018094
      5        6           0.000440402   -0.000335793   -0.000124770
      6        6           0.001490670    0.001296707   -0.001473540
      7        6          -0.000195021   -0.001254421    0.001572436
      8        1          -0.000353961   -0.000832900   -0.000741007
      9        1           0.000199698    0.000853491   -0.000918918
     10        1          -0.000446888   -0.000401321    0.001003127
     11        1          -0.000138575   -0.000074445   -0.000123486
     12        1           0.000119696    0.000409142    0.000422612
     13        1           0.000227328    0.000365874    0.000426967
     14        1           0.000045522   -0.000137215   -0.000148144
     15        1           0.000271296   -0.000643289    0.000927735
 -------------------------------------------------------------------
 Cartesian Forces:  Max     0.002018377 RMS     0.000797978

 GradGradGradGradGradGradGradGradGradGradGradGradGradGradGradGradGradGrad
 Berny optimization.
 Using GEDIIS/GDIIS optimizer.
 FormGI is forming the generalized inverse of G from B-inverse, IUseBI=4.
 Internal  Forces:  Max     0.001580736 RMS     0.000518594
 Search for a local minimum.
 Step number   2 out of a maximum of   81
 All quantities printed in internal units (Hartrees-Bohrs-Radians)
 Mixed Optimization -- En-DIIS/RFO-DIIS
 Update second derivatives using D2CorX and points    1    2
 DE= -2.05D-03 DEPred=-1.98D-03 R= 1.03D+00
 TightC=F SS=  1.41D+00  RLast= 2.31D-01 DXNew= 5.0454D-01 6.9214D-01
 Trust test= 1.03D+00 RLast= 2.31D-01 DXMaxT set to 5.05D-01
 ITU=  1  0
 Use linear search instead of GDIIS.
     Eigenvalues ---    0.00797   0.01509   0.01660   0.01907   0.01956
     Eigenvalues ---    0.02183   0.02272   0.02292   0.02513   0.02650
     Eigenvalues ---    0.04138   0.06596   0.11020   0.12329   0.15993
     Eigenvalues ---    0.15994   0.15997   0.15999   0.15999   0.16287
     Eigenvalues ---    0.21492   0.21560   0.21602   0.21927   0.32195
     Eigenvalues ---    0.32239   0.33856   0.34107   0.34730   0.34743
     Eigenvalues ---    0.34915   0.34925   0.34942   0.34951   0.38604
     Eigenvalues ---    0.42571   0.54857   0.56402   0.60301
 RFO step:  Lambda=-7.18682769D-04 EMin= 7.97110636D-03
 Quartic linear search produced a step of  0.11256.
 Iteration  1 RMS(Cart)=  0.03393982 RMS(Int)=  0.00070115
 Iteration  2 RMS(Cart)=  0.00084829 RMS(Int)=  0.00021698
 Iteration  3 RMS(Cart)=  0.00000022 RMS(Int)=  0.00021698
 Variable       Old X    -DE/DX   Delta X   Delta X   Delta X     New X
                                 (Linear)    (Quad)   (Total)
    R1        2.85325  -0.00069   0.00264  -0.00246  -0.00001   2.85323
    R2        2.85325  -0.00069   0.00264  -0.00246  -0.00002   2.85324
    R3        2.08365   0.00005   0.00135   0.00053   0.00189   2.08553
    R4        2.07628  -0.00017   0.00006  -0.00054  -0.00048   2.07580
    R5        2.53677  -0.00158   0.00087  -0.00288  -0.00206   2.53472
    R6        2.06088  -0.00031   0.00000  -0.00097  -0.00097   2.05991
    R7        2.76479  -0.00081   0.00526  -0.00022   0.00517   2.76997
    R8        2.05749  -0.00007  -0.00006  -0.00024  -0.00030   2.05719
    R9        2.54475  -0.00144   0.00201  -0.00158   0.00066   2.54540
   R10        2.05764  -0.00052  -0.00001  -0.00164  -0.00166   2.05599
   R11        2.76479  -0.00081   0.00527  -0.00022   0.00519   2.76999
   R12        2.05765  -0.00052   0.00000  -0.00164  -0.00164   2.05601
   R13        2.53677  -0.00158   0.00088  -0.00288  -0.00205   2.53472
   R14        2.05751  -0.00008   0.00000  -0.00024  -0.00025   2.05726
   R15        2.06087  -0.00030  -0.00002  -0.00097  -0.00099   2.05988
    A1        2.07312  -0.00056  -0.00121  -0.00975  -0.01189   2.06123
    A2        1.91267   0.00021   0.00138   0.00083   0.00246   1.91513
    A3        1.86391   0.00014   0.00089   0.00481   0.00602   1.86993
    A4        1.91270   0.00021   0.00137   0.00084   0.00246   1.91516
    A5        1.86396   0.00013   0.00088   0.00476   0.00596   1.86991
    A6        1.81939  -0.00010  -0.00381  -0.00009  -0.00400   1.81540
    A7        2.28147  -0.00014  -0.00022  -0.00614  -0.00709   2.27438
    A8        1.97583   0.00017  -0.00052   0.00353   0.00334   1.97917
    A9        2.02583  -0.00003   0.00074   0.00249   0.00356   2.02939
   A10        2.25414   0.00066   0.00121   0.00079   0.00163   2.25576
   A11        2.02645  -0.00016  -0.00241   0.00036  -0.00190   2.02454
   A12        2.00214  -0.00050   0.00128  -0.00086   0.00056   2.00270
   A13        2.23225  -0.00038  -0.00111  -0.00347  -0.00462   2.22762
   A14        2.00938  -0.00002   0.00189   0.00053   0.00238   2.01176
   A15        2.04131   0.00039  -0.00080   0.00260   0.00176   2.04307
   A16        2.23223  -0.00037  -0.00111  -0.00346  -0.00462   2.22761
   A17        2.04133   0.00039  -0.00081   0.00258   0.00173   2.04306
   A18        2.00938  -0.00002   0.00190   0.00054   0.00239   2.01177
   A19        2.25418   0.00065   0.00120   0.00075   0.00158   2.25576
   A20        2.00214  -0.00050   0.00129  -0.00087   0.00055   2.00269
   A21        2.02640  -0.00015  -0.00239   0.00041  -0.00184   2.02456
   A22        2.28140  -0.00013  -0.00021  -0.00609  -0.00704   2.27437
   A23        1.97586   0.00017  -0.00052   0.00352   0.00332   1.97919
   A24        2.02586  -0.00004   0.00073   0.00246   0.00352   2.02938
    D1        0.37993   0.00079   0.00680   0.07654   0.08324   0.46318
    D2       -2.77383   0.00064   0.00595   0.06430   0.07018  -2.70365
    D3       -1.83625   0.00077   0.00457   0.08293   0.08755  -1.74870
    D4        1.29317   0.00062   0.00372   0.07068   0.07449   1.36767
    D5        2.48613   0.00071   0.00788   0.08019   0.08796   2.57409
    D6       -0.66763   0.00056   0.00703   0.06795   0.07490  -0.59273
    D7       -0.37993  -0.00079  -0.00685  -0.07660  -0.08334  -0.46328
    D8        2.77356  -0.00064  -0.00585  -0.06403  -0.06981   2.70375
    D9        1.83624  -0.00077  -0.00461  -0.08298  -0.08766   1.74858
   D10       -1.29345  -0.00062  -0.00362  -0.07041  -0.07412  -1.36758
   D11       -2.48611  -0.00071  -0.00793  -0.08027  -0.08809  -2.57420
   D12        0.66738  -0.00056  -0.00694  -0.06770  -0.07456   0.59283
   D13        0.01710  -0.00037  -0.00435  -0.02833  -0.03267  -0.01557
   D14        3.12394  -0.00024  -0.00182  -0.01767  -0.01948   3.10446
   D15       -3.11205  -0.00022  -0.00347  -0.01581  -0.01929  -3.13134
   D16       -0.00520  -0.00009  -0.00094  -0.00514  -0.00611  -0.01131
   D17       -0.26304  -0.00007   0.00128  -0.01304  -0.01170  -0.27474
   D18        2.90345   0.00015   0.00238   0.00363   0.00604   2.90949
   D19        2.91290  -0.00020  -0.00112  -0.02359  -0.02471   2.88818
   D20       -0.20380   0.00002  -0.00002  -0.00693  -0.00697  -0.21076
   D21       -0.00013   0.00000  -0.00003   0.00002  -0.00001  -0.00014
   D22       -3.11655   0.00023   0.00135   0.01725   0.01857  -3.09797
   D23        3.11618  -0.00023  -0.00112  -0.01694  -0.01803   3.09815
   D24       -0.00024   0.00001   0.00026   0.00029   0.00056   0.00032
   D25        0.26324   0.00006  -0.00128   0.01296   0.01163   0.27487
   D26       -2.91255   0.00020   0.00132   0.02346   0.02478  -2.88777
   D27       -2.90315  -0.00016  -0.00266  -0.00397  -0.00667  -2.90982
   D28        0.20425  -0.00002  -0.00005   0.00652   0.00648   0.21073
   D29       -0.01715   0.00037   0.00442   0.02843   0.03284   0.01569
   D30        3.11227   0.00021   0.00340   0.01557   0.01899   3.13126
   D31       -3.12415   0.00024   0.00168   0.01784   0.01951  -3.10464
   D32        0.00527   0.00008   0.00066   0.00498   0.00566   0.01093
         Item               Value     Threshold  Converged?
 Maximum Force            0.001581     0.000450     NO 
 RMS     Force            0.000519     0.000300     NO 
 Maximum Displacement     0.112117     0.001800     NO 
 RMS     Displacement     0.034108     0.001200     NO 
 Predicted change in Energy=-3.853453D-04
 GradGradGradGradGradGradGradGradGradGradGradGradGradGradGradGradGradGrad

                          Input orientation:                          
 ---------------------------------------------------------------------
 Center     Atomic      Atomic             Coordinates (Angstroms)
 Number     Number       Type             X           Y           Z
 ---------------------------------------------------------------------
      1          6           0        0.563171    1.589653    0.230445
      2          6           0        1.543697    0.441705    0.208467
      3          6           0        1.364107   -0.846799   -0.118075
      4          6           0        0.140377   -1.534709   -0.539789
      5          6           0       -1.129555   -1.102334   -0.418758
      6          6           0       -1.593507    0.160125    0.163956
      7          6           0       -0.897961    1.272951    0.441380
      8          1           0        0.684237    2.200511   -0.680690
      9          1           0        0.869456    2.261465    1.043761
     10          1           0        2.557124    0.732679    0.485097
     11          1           0        2.252182   -1.475569   -0.085512
     12          1           0        0.287565   -2.525130   -0.965354
     13          1           0       -1.915636   -1.775146   -0.755104
     14          1           0       -2.659265    0.196427    0.383077
     15          1           0       -1.463191    2.101371    0.868497
 ---------------------------------------------------------------------
                    Distance matrix (angstroms):
                    1          2          3          4          5
     1  C    0.000000
     2  C    1.509867   0.000000
     3  C    2.588293   1.341314   0.000000
     4  C    3.245558   2.536810   1.465803   0.000000
     5  C    3.245548   3.150197   2.524690   1.346968   0.000000
     6  C    2.588287   3.150129   3.137023   2.524692   1.465814
     7  C    1.509868   2.589771   3.150123   3.150205   2.536819
     8  H    1.103617   2.150039   3.172515   3.777234   3.777199
     9  H    1.098465   2.112781   3.354973   4.177334   4.177338
    10  H    2.185200   1.090057   2.069265   3.468732   4.216139
    11  H    3.513997   2.065022   1.088619   2.160923   3.418553
    12  H    4.293871   3.428970   2.166477   1.087982   2.081188
    13  H    4.293910   4.220175   3.467614   2.081192   1.087992
    14  H    3.514039   4.213732   4.186525   3.418554   2.160956
    15  H    2.185202   3.497357   4.202219   4.216133   3.468727
                    6          7          8          9         10
     6  C    0.000000
     7  C    1.341316   0.000000
     8  H    3.172494   2.150061   0.000000
     9  H    3.354977   2.112768   1.735441   0.000000
    10  H    4.202224   3.497345   2.649773   2.344678   0.000000
    11  H    4.186533   4.213713   4.040576   4.141572   2.301075
    12  H    3.467617   4.220165   4.750796   5.223661   4.227059
    13  H    2.166498   3.429013   4.750865   5.223685   5.275686
    14  H    1.088656   2.065065   4.040663   4.141589   5.244873
    15  H    2.069250   1.090043   2.649765   2.344694   4.264182
                   11         12         13         14         15
    11  H    0.000000
    12  H    2.394874   0.000000
    13  H    4.231880   2.336830   0.000000
    14  H    5.209363   4.231897   2.394899   0.000000
    15  H    5.244868   5.275668   4.227076   2.301095   0.000000
 Stoichiometry    C7H8
 Framework group  C1[X(C7H8)]
 Deg. of freedom    39
 Full point group                 C1      NOp   1
 Largest Abelian subgroup         C1      NOp   1
 Largest concise Abelian subgroup C1      NOp   1
                         Standard orientation:                         
 ---------------------------------------------------------------------
 Center     Atomic      Atomic             Coordinates (Angstroms)
 Number     Number       Type             X           Y           Z
 ---------------------------------------------------------------------
      1          6           0        1.655135    0.000004    0.209254
      2          6           0        0.935797    1.294889   -0.083189
      3          6           0       -0.376694    1.568506   -0.123512
      4          6           0       -1.517567    0.673482    0.090767
      5          6           0       -1.517557   -0.673487    0.090861
      6          6           0       -0.376681   -1.568517   -0.123458
      7          6           0        0.935811   -1.294881   -0.083230
      8          1           0        2.012631    0.000007    1.253365
      9          1           0        2.577267    0.000007   -0.387653
     10          1           0        1.609138    2.132090   -0.267394
     11          1           0       -0.642122    2.604683   -0.325938
     12          1           0       -2.476667    1.168416    0.228141
     13          1           0       -2.476706   -1.168414    0.228001
     14          1           0       -0.642139   -2.604680   -0.326116
     15          1           0        1.609137   -2.132092   -0.267361
 ---------------------------------------------------------------------
 Rotational constants (GHZ):      3.6301923      3.4809034      1.8212164
 Standard basis: 6-31+G(d) (6D, 7F)
 There are   149 symmetry adapted cartesian basis functions of A   symmetry.
 There are   149 symmetry adapted basis functions of A   symmetry.
   149 basis functions,   256 primitive gaussians,   149 cartesian basis functions
    25 alpha electrons       25 beta electrons
       nuclear repulsion energy       266.6271771718 Hartrees.
 NAtoms=   15 NActive=   15 NUniq=   15 SFac= 1.00D+00 NAtFMM=   60 NAOKFM=F Big=F
 Integral buffers will be    131072 words long.
 Raffenetti 2 integral format.
 Two-electron integral symmetry is turned on.
 One-electron integrals computed using PRISM.
 NBasis=   149 RedAO= T EigKep=  6.16D-06  NBF=   149
 NBsUse=   149 1.00D-06 EigRej= -1.00D+00 NBFU=   149
 Initial guess from the checkpoint file:  "/srv/scratch/z5358697/gauss/Gau-2208810.chk"
 B after Tr=     0.000000    0.000000    0.000000
         Rot=    0.999999    0.000000    0.001331    0.000077 Ang=   0.15 deg.
 ExpMin= 4.38D-02 ExpMax= 3.05D+03 ExpMxC= 4.57D+02 IAcc=2 IRadAn=         4 AccDes= 0.00D+00
 Harris functional with IExCor= 1009 and IRadAn=       4 diagonalized for initial guess.
 HarFok:  IExCor= 1009 AccDes= 0.00D+00 IRadAn=         4 IDoV= 1 UseB2=F ITyADJ=14
 ICtDFT=  3500011 ScaDFX=  1.000000  1.000000  1.000000  1.000000
 FoFCou: FMM=F IPFlag=           0 FMFlag=      100000 FMFlg1=           0
         NFxFlg=           0 DoJE=T BraDBF=F KetDBF=T FulRan=T
         wScrn=  0.000000 ICntrl=     500 IOpCl=  0 I1Cent=   200000004 NGrid=           0
         NMat0=    1 NMatS0=      1 NMatT0=    0 NMatD0=    1 NMtDS0=    0 NMtDT0=    0
 Petite list used in FoFCou.
 Requested convergence on RMS density matrix=1.00D-08 within 128 cycles.
 Requested convergence on MAX density matrix=1.00D-06.
 Requested convergence on             energy=1.00D-06.
 No special actions if energy rises.
 SCF Done:  E(RM062X) =  -271.377329859     A.U. after   11 cycles
            NFock= 11  Conv=0.80D-08     -V/T= 2.0093
 Calling FoFJK, ICntrl=      2127 FMM=F ISym2X=0 I1Cent= 0 IOpClX= 0 NMat=1 NMatS=1 NMatT=0.
 ***** Axes restored to original set *****
 -------------------------------------------------------------------
 Center     Atomic                   Forces (Hartrees/Bohr)
 Number     Number              X              Y              Z
 -------------------------------------------------------------------
      1        6           0.000115893    0.000827967   -0.001728541
      2        6          -0.000522580    0.000753578    0.001528297
      3        6          -0.002019736   -0.000664301   -0.001579935
      4        6           0.001180974    0.001909591    0.000917410
      5        6           0.000384444    0.002163519    0.001026932
      6        6           0.000884600   -0.001669812   -0.001836961
      7        6           0.001119499    0.000188947    0.001347380
      8        1          -0.000604772   -0.001597783   -0.000623558
      9        1          -0.000064578    0.000001218   -0.000693781
     10        1          -0.000135200   -0.000636225    0.000896240
     11        1          -0.000208698   -0.000484112   -0.000002626
     12        1           0.000332408    0.000071808   -0.000086300
     13        1          -0.000224492    0.000275397   -0.000046261
     14        1          -0.000108508   -0.000505623   -0.000026800
     15        1          -0.000129253   -0.000634171    0.000908504
 -------------------------------------------------------------------
 Cartesian Forces:  Max     0.002163519 RMS     0.000974761

 GradGradGradGradGradGradGradGradGradGradGradGradGradGradGradGradGradGrad
 Berny optimization.
 Using GEDIIS/GDIIS optimizer.
 FormGI is forming the generalized inverse of G from B-inverse, IUseBI=4.
 Internal  Forces:  Max     0.003126055 RMS     0.000685642
 Search for a local minimum.
 Step number   3 out of a maximum of   81
 All quantities printed in internal units (Hartrees-Bohrs-Radians)
 Mixed Optimization -- En-DIIS/RFO-DIIS
 Swapping is turned off.
 Update second derivatives using D2CorX and points    1    2    3
 DE= -7.20D-04 DEPred=-3.85D-04 R= 1.87D+00
 TightC=F SS=  1.41D+00  RLast= 2.89D-01 DXNew= 8.4853D-01 8.6593D-01
 Trust test= 1.87D+00 RLast= 2.89D-01 DXMaxT set to 8.49D-01
 ITU=  1  1  0
     Eigenvalues ---    0.00020   0.01510   0.01705   0.01907   0.02177
     Eigenvalues ---    0.02180   0.02274   0.02403   0.02650   0.02867
     Eigenvalues ---    0.04283   0.07122   0.10934   0.12228   0.15986
     Eigenvalues ---    0.15992   0.15997   0.15998   0.16055   0.16753
     Eigenvalues ---    0.21357   0.21392   0.21942   0.23792   0.32188
     Eigenvalues ---    0.32377   0.33868   0.34182   0.34740   0.34766
     Eigenvalues ---    0.34924   0.34941   0.34950   0.35430   0.38542
     Eigenvalues ---    0.54797   0.55523   0.58487   0.88741
 En-DIIS/RFO-DIIS IScMMF=        0 using points:     3    2
 RFO step:  Lambda=-4.59383000D-04.
 DidBck=F Rises=F RFO-DIIS coefs:    1.00000    0.00000
 Maximum step size (   0.849) exceeded in Quadratic search.
    -- Step size scaled by   0.547
 Iteration  1 RMS(Cart)=  0.12979874 RMS(Int)=  0.69149039
 Iteration  2 RMS(Cart)=  0.13255540 RMS(Int)=  0.58906373
 Iteration  3 RMS(Cart)=  0.13297389 RMS(Int)=  0.49090283
 Iteration  4 RMS(Cart)=  0.12714955 RMS(Int)=  0.40153657
 Iteration  5 RMS(Cart)=  0.11158503 RMS(Int)=  0.32358644
 Iteration  6 RMS(Cart)=  0.09923530 RMS(Int)=  0.25851898
 Iteration  7 RMS(Cart)=  0.09081855 RMS(Int)=  0.20873696
 Iteration  8 RMS(Cart)=  0.07751914 RMS(Int)=  0.17780950
 Iteration  9 RMS(Cart)=  0.05301778 RMS(Int)=  0.16290031
 Iteration 10 RMS(Cart)=  0.03288710 RMS(Int)=  0.15755420
 Iteration 11 RMS(Cart)=  0.01645562 RMS(Int)=  0.15668869
 Iteration 12 RMS(Cart)=  0.01090411 RMS(Int)=  0.15728696
 Iteration 13 RMS(Cart)=  0.00794688 RMS(Int)=  0.15829805
 Iteration 14 RMS(Cart)=  0.00729821 RMS(Int)=  0.15920396
 Iteration 15 RMS(Cart)=  0.00560013 RMS(Int)=  0.15985654
 Iteration 16 RMS(Cart)=  0.00403248 RMS(Int)=  0.16031938
 Iteration 17 RMS(Cart)=  0.00287035 RMS(Int)=  0.16064673
 Iteration 18 RMS(Cart)=  0.00205050 RMS(Int)=  0.16087889
 Iteration 19 RMS(Cart)=  0.00147454 RMS(Int)=  0.16104433
 Iteration 20 RMS(Cart)=  0.00106719 RMS(Int)=  0.16116287
 Iteration 21 RMS(Cart)=  0.00077649 RMS(Int)=  0.16124824
 Iteration 22 RMS(Cart)=  0.00056730 RMS(Int)=  0.16131002
 Iteration 23 RMS(Cart)=  0.00041575 RMS(Int)=  0.16135491
 Iteration 24 RMS(Cart)=  0.00030539 RMS(Int)=  0.16138764
 Iteration 25 RMS(Cart)=  0.00022470 RMS(Int)=  0.16141157
 Iteration 26 RMS(Cart)=  0.00016555 RMS(Int)=  0.16142911
 Iteration 27 RMS(Cart)=  0.00012208 RMS(Int)=  0.16144198
 Iteration 28 RMS(Cart)=  0.00009009 RMS(Int)=  0.16145145
 Iteration 29 RMS(Cart)=  0.00006651 RMS(Int)=  0.16145843
 Iteration 30 RMS(Cart)=  0.00004913 RMS(Int)=  0.16146356
 Iteration 31 RMS(Cart)=  0.00003630 RMS(Int)=  0.16146735
 Iteration 32 RMS(Cart)=  0.00002683 RMS(Int)=  0.16147015
 Iteration 33 RMS(Cart)=  0.00001983 RMS(Int)=  0.16147221
 Iteration 34 RMS(Cart)=  0.00001466 RMS(Int)=  0.16147374
 Iteration 35 RMS(Cart)=  0.00001084 RMS(Int)=  0.16147487
 Iteration 36 RMS(Cart)=  0.00000802 RMS(Int)=  0.16147570
 Iteration 37 RMS(Cart)=  0.00000593 RMS(Int)=  0.16147632
 Iteration 38 RMS(Cart)=  0.00000438 RMS(Int)=  0.16147677
 Iteration 39 RMS(Cart)=  0.00000324 RMS(Int)=  0.16147711
 Iteration 40 RMS(Cart)=  0.00000240 RMS(Int)=  0.16147736
 Iteration 41 RMS(Cart)=  0.00000177 RMS(Int)=  0.16147754
 Iteration 42 RMS(Cart)=  0.00000131 RMS(Int)=  0.16147768
 Iteration 43 RMS(Cart)=  0.00000097 RMS(Int)=  0.16147778
 Iteration  1 RMS(Cart)=  0.12890699 RMS(Int)=  0.61256042
 Iteration  2 RMS(Cart)=  0.12960769 RMS(Int)=  0.51108987
 Iteration  3 RMS(Cart)=  0.12986249 RMS(Int)=  0.41487933
 Iteration  4 RMS(Cart)=  0.12055407 RMS(Int)=  0.32763709
 Iteration  5 RMS(Cart)=  0.10746267 RMS(Int)=  0.25166259
 Iteration  6 RMS(Cart)=  0.09767920 RMS(Int)=  0.18970460
 Iteration  7 RMS(Cart)=  0.09016139 RMS(Int)=  0.14749630
 Iteration  8 RMS(Cart)=  0.06515332 RMS(Int)=  0.12971390
 Iteration  9 RMS(Cart)=  0.02649758 RMS(Int)=  0.12568568
 Iteration 10 RMS(Cart)=  0.01233504 RMS(Int)=  0.12511182
 Iteration 11 RMS(Cart)=  0.00531586 RMS(Int)=  0.12549215
 Iteration 12 RMS(Cart)=  0.00386651 RMS(Int)=  0.12586160
 Iteration 13 RMS(Cart)=  0.00268904 RMS(Int)=  0.12610626
 Iteration 14 RMS(Cart)=  0.00172536 RMS(Int)=  0.12626111
 Iteration 15 RMS(Cart)=  0.00107859 RMS(Int)=  0.12635777
 Iteration 16 RMS(Cart)=  0.00067095 RMS(Int)=  0.12641784
 Iteration 17 RMS(Cart)=  0.00041818 RMS(Int)=  0.12645516
 Iteration 18 RMS(Cart)=  0.00026173 RMS(Int)=  0.12647839
 Iteration 19 RMS(Cart)=  0.00016456 RMS(Int)=  0.12649288
 Iteration 20 RMS(Cart)=  0.00010391 RMS(Int)=  0.12650195
 Iteration 21 RMS(Cart)=  0.00006586 RMS(Int)=  0.12650764
 Iteration 22 RMS(Cart)=  0.00004188 RMS(Int)=  0.12651122
 Iteration 23 RMS(Cart)=  0.00002670 RMS(Int)=  0.12651349
 Iteration 24 RMS(Cart)=  0.00001706 RMS(Int)=  0.12651492
 Iteration 25 RMS(Cart)=  0.00001092 RMS(Int)=  0.12651583
 Iteration 26 RMS(Cart)=  0.00000700 RMS(Int)=  0.12651641
 Iteration 27 RMS(Cart)=  0.00000450 RMS(Int)=  0.12651677
 Iteration 28 RMS(Cart)=  0.00000289 RMS(Int)=  0.12651701
 Iteration 29 RMS(Cart)=  0.00000186 RMS(Int)=  0.12651716
 Iteration 30 RMS(Cart)=  0.00000120 RMS(Int)=  0.12651726
 Iteration 31 RMS(Cart)=  0.00000077 RMS(Int)=  0.12651732
 ITry= 2 IFail=0 DXMaxC= 3.24D+00 DCOld= 3.58D+00 DXMaxT= 8.49D-01 DXLimC= 3.00D+00 Rises=F
 Iteration  1 RMS(Cart)=  0.12790364 RMS(Int)=  0.53368106
 Iteration  2 RMS(Cart)=  0.12698385 RMS(Int)=  0.43323455
 Iteration  3 RMS(Cart)=  0.12400932 RMS(Int)=  0.33930625
 Iteration  4 RMS(Cart)=  0.11402049 RMS(Int)=  0.25435024
 Iteration  5 RMS(Cart)=  0.10494599 RMS(Int)=  0.18090677
 Iteration  6 RMS(Cart)=  0.09703676 RMS(Int)=  0.12595785
 Iteration  7 RMS(Cart)=  0.07509699 RMS(Int)=  0.10077017
 Iteration  8 RMS(Cart)=  0.03178591 RMS(Int)=  0.09695730
 Iteration  9 RMS(Cart)=  0.00751093 RMS(Int)=  0.09687258
 Iteration 10 RMS(Cart)=  0.00044793 RMS(Int)=  0.09686143
 Iteration 11 RMS(Cart)=  0.00004590 RMS(Int)=  0.09685997
 Iteration 12 RMS(Cart)=  0.00001023 RMS(Int)=  0.09685947
 Iteration 13 RMS(Cart)=  0.00000416 RMS(Int)=  0.09685927
 Iteration 14 RMS(Cart)=  0.00000187 RMS(Int)=  0.09685918
 Iteration 15 RMS(Cart)=  0.00000085 RMS(Int)=  0.09685914
 ITry= 3 IFail=0 DXMaxC= 2.86D+00 DCOld= 3.24D+00 DXMaxT= 8.49D-01 DXLimC= 3.00D+00 Rises=F
 Variable       Old X    -DE/DX   Delta X   Delta X   Delta X     New X
                                 (Linear)    (Quad)   (Total)
    R1        2.85323  -0.00067   0.00000   0.00683  -0.05637   2.79686
    R2        2.85324  -0.00067   0.00000   0.00673  -0.05669   2.79654
    R3        2.08553  -0.00044   0.00000   0.03619   0.02895   2.11448
    R4        2.07580  -0.00053   0.00000  -0.01847  -0.01478   2.06102
    R5        2.53472  -0.00029   0.00000  -0.02800  -0.06027   2.47444
    R6        2.05991  -0.00007   0.00000  -0.01707  -0.01365   2.04626
    R7        2.76997  -0.00312   0.00000   0.08977   0.12145   2.89141
    R8        2.05719   0.00011   0.00000  -0.00319  -0.00255   2.05464
    R9        2.54540  -0.00112   0.00000   0.02476   0.11239   2.65780
   R10        2.05599   0.00001   0.00000  -0.02644  -0.02115   2.03483
   R11        2.76999  -0.00313   0.00000   0.09016   0.12202   2.89201
   R12        2.05601   0.00001   0.00000  -0.02612  -0.02089   2.03511
   R13        2.53472  -0.00029   0.00000  -0.02792  -0.06017   2.47455
   R14        2.05726   0.00008   0.00000  -0.00228  -0.00182   2.05544
   R15        2.05988  -0.00006   0.00000  -0.01730  -0.01384   2.04604
    A1        2.06123  -0.00025   0.00000  -0.29138  -0.59512   1.46611
    A2        1.91513   0.00008   0.00000   0.06338   0.06318   1.97831
    A3        1.86993  -0.00013   0.00000   0.12163   0.29630   2.16623
    A4        1.91516   0.00007   0.00000   0.06324   0.06287   1.97803
    A5        1.86991  -0.00012   0.00000   0.12065   0.29598   2.16589
    A6        1.81540   0.00042   0.00000  -0.04700  -0.09109   1.72431
    A7        2.27438  -0.00047   0.00000  -0.18832  -0.34003   1.93435
    A8        1.97917   0.00069   0.00000   0.10335   0.17064   2.14980
    A9        2.02939  -0.00023   0.00000   0.07935   0.15870   2.18809
   A10        2.25576   0.00004   0.00000   0.00506  -0.18938   2.06639
   A11        2.02454   0.00048   0.00000  -0.01827   0.05870   2.08324
   A12        2.00270  -0.00052   0.00000   0.01735   0.11128   2.11398
   A13        2.22762   0.00030   0.00000  -0.09739  -0.08935   2.13827
   A14        2.01176  -0.00048   0.00000   0.04769   0.02326   2.03502
   A15        2.04307   0.00018   0.00000   0.03686   0.03331   2.07638
   A16        2.22761   0.00030   0.00000  -0.09725  -0.08948   2.13813
   A17        2.04306   0.00018   0.00000   0.03622   0.03244   2.07549
   A18        2.01177  -0.00048   0.00000   0.04774   0.02245   2.03422
   A19        2.25576   0.00004   0.00000   0.00409  -0.19014   2.06562
   A20        2.00269  -0.00052   0.00000   0.01725   0.11120   2.11389
   A21        2.02456   0.00048   0.00000  -0.01722   0.05916   2.08372
   A22        2.27437  -0.00046   0.00000  -0.18741  -0.33970   1.93467
   A23        1.97919   0.00069   0.00000   0.10297   0.17006   2.14925
   A24        2.02938  -0.00023   0.00000   0.07861   0.15799   2.18737
    D1        0.46318   0.00091   0.00000   1.93444   1.35518   1.81836
    D2       -2.70365   0.00074   0.00000   1.65084   1.22954  -1.47411
    D3       -1.74870   0.00094   0.00000   2.03228   1.59734  -0.15135
    D4        1.36767   0.00077   0.00000   1.74869   1.47170   2.83937
    D5        2.57409   0.00048   0.00000   1.99406   1.47070  -2.23839
    D6       -0.59273   0.00031   0.00000   1.71047   1.34506   0.75233
    D7       -0.46328  -0.00091   0.00000  -1.93599  -1.35685  -1.82013
    D8        2.70375  -0.00074   0.00000  -1.64480  -1.22497   1.47877
    D9        1.74858  -0.00094   0.00000  -2.03377  -1.59872   0.14987
   D10       -1.36758  -0.00077   0.00000  -1.74258  -1.46684  -2.83442
   D11       -2.57420  -0.00047   0.00000  -1.99612  -1.47266   2.23632
   D12        0.59283  -0.00031   0.00000  -1.70493  -1.34078  -0.74796
   D13       -0.01557  -0.00018   0.00000  -0.67855  -0.46868  -0.48425
   D14        3.10446  -0.00025   0.00000  -0.42814  -0.23828   2.86618
   D15       -3.13134  -0.00002   0.00000  -0.38842  -0.33961   2.81224
   D16       -0.01131  -0.00008   0.00000  -0.13801  -0.10921  -0.12051
   D17       -0.27474  -0.00044   0.00000  -0.37379  -0.18785  -0.46260
   D18        2.90949  -0.00026   0.00000  -0.00094   0.04796   2.95745
   D19        2.88818  -0.00039   0.00000  -0.62126  -0.42187   2.46632
   D20       -0.21076  -0.00021   0.00000  -0.24841  -0.18605  -0.39682
   D21       -0.00014   0.00000   0.00000   0.00036   0.00041   0.00027
   D22       -3.09797   0.00020   0.00000   0.38800   0.24902  -2.84895
   D23        3.09815  -0.00020   0.00000  -0.37811  -0.24105   2.85710
   D24        0.00032  -0.00001   0.00000   0.00953   0.00756   0.00788
   D25        0.27487   0.00044   0.00000   0.37196   0.18637   0.46124
   D26       -2.88777   0.00039   0.00000   0.62191   0.42207  -2.46570
   D27       -2.90982   0.00027   0.00000  -0.00993  -0.05645  -2.96627
   D28        0.21073   0.00021   0.00000   0.24002   0.17925   0.38998
   D29        0.01569   0.00018   0.00000   0.68135   0.47047   0.48616
   D30        3.13126   0.00002   0.00000   0.38346   0.33502  -2.81691
   D31       -3.10464   0.00025   0.00000   0.42845   0.23835  -2.86628
   D32        0.01093   0.00009   0.00000   0.13056   0.10290   0.11383
         Item               Value     Threshold  Converged?
 Maximum Force            0.003126     0.000450     NO 
 RMS     Force            0.000686     0.000300     NO 
 Maximum Displacement     2.857106     0.001800     NO 
 RMS     Displacement     0.726456     0.001200     NO 
 Predicted change in Energy=-4.872301D-02
 GradGradGradGradGradGradGradGradGradGradGradGradGradGradGradGradGradGrad

                          Input orientation:                          
 ---------------------------------------------------------------------
 Center     Atomic      Atomic             Coordinates (Angstroms)
 Number     Number       Type             X           Y           Z
 ---------------------------------------------------------------------
      1          6           0        0.449550    1.369434   -0.177915
      2          6           0        1.266140    0.450638    0.646405
      3          6           0        1.379985   -0.718074    0.066983
      4          6           0        0.261997   -1.176961   -0.871440
      5          6           0       -1.064019   -0.725528   -0.745035
      6          6           0       -1.496631    0.261788    0.341304
      7          6           0       -0.601284    1.085998    0.824791
      8          1           0        0.214071    0.963264   -1.193590
      9          1           0        0.762956    2.372949   -0.468154
     10          1           0        1.810287    0.769496    1.526609
     11          1           0        2.147280   -1.409245    0.407124
     12          1           0        0.460281   -2.052988   -1.465353
     13          1           0       -1.849438   -1.271714   -1.239592
     14          1           0       -2.454161    0.157523    0.846612
     15          1           0       -0.684212    1.620619    1.762651
 ---------------------------------------------------------------------
                    Distance matrix (angstroms):
                    1          2          3          4          5
     1  C    0.000000
     2  C    1.480037   0.000000
     3  C    2.298559   1.309420   0.000000
     4  C    2.645804   2.441564   1.530069   0.000000
     5  C    2.646012   2.957890   2.575380   1.406445   0.000000
     6  C    2.298714   2.785974   3.051278   2.575562   1.530386
     7  C    1.479867   1.980600   2.784668   2.956930   2.441332
     8  H    1.118937   2.180646   2.403185   2.164865   2.164886
     9  H    1.090644   2.278314   3.197112   3.607695   3.607639
    10  H    2.262064   1.082832   2.128035   3.454929   3.956905
    11  H    3.308416   2.071914   1.087269   2.289754   3.479566
    12  H    3.656581   3.372992   2.230673   1.076788   2.145809
    13  H    3.658984   4.028686   3.527439   2.145384   1.076935
    14  H    3.309067   3.737197   4.009385   3.479952   2.290331
    15  H    2.261483   2.533522   3.550449   3.957297   3.455018
                    6          7          8          9         10
     6  C    0.000000
     7  C    1.309476   0.000000
     8  H    2.403012   2.180304   0.000000
     9  H    3.196553   2.277959   1.677720   0.000000
    10  H    3.549425   2.531481   3.159894   2.765329   0.000000
    11  H    4.009335   3.735678   3.453749   4.121584   2.472594
    12  H    3.528697   4.028016   3.038462   4.546970   4.329060
    13  H    2.230546   3.373184   3.042255   4.550087   5.021154
    14  H    1.087691   2.072606   3.454143   4.121476   4.361471
    15  H    2.127597   1.082718   3.158859   2.763474   2.646253
                   11         12         13         14         15
    11  H    0.000000
    12  H    2.601257   0.000000
    13  H    4.324852   2.448706   0.000000
    14  H    4.880694   4.327299   2.600127   0.000000
    15  H    4.362898   5.022476   4.328603   2.472346   0.000000
 Stoichiometry    C7H8
 Framework group  C1[X(C7H8)]
 Deg. of freedom    39
 Full point group                 C1      NOp   1
 Largest Abelian subgroup         C1      NOp   1
 Largest concise Abelian subgroup C1      NOp   1
                         Standard orientation:                         
 ---------------------------------------------------------------------
 Center     Atomic      Atomic             Coordinates (Angstroms)
 Number     Number       Type             X           Y           Z
 ---------------------------------------------------------------------
      1          6           0        0.027200   -1.072623    0.836944
      2          6           0        1.015652   -0.977689   -0.260535
      3          6           0        1.520094    0.228679   -0.329785
      4          6           0        0.668060    1.402681    0.156908
      5          6           0       -0.737942    1.367424    0.157158
      6          6           0       -1.530213    0.151704   -0.329064
      7          6           0       -0.964329   -1.027206   -0.260696
      8          1           0        0.004231   -0.166273    1.492704
      9          1           0        0.046027   -1.839187    1.612528
     10          1           0        1.368795   -1.837554   -0.815914
     11          1           0        2.430835    0.393740   -0.900276
     12          1           0        1.165926    2.352648    0.252643
     13          1           0       -1.282033    2.292576    0.245749
     14          1           0       -2.448310    0.270778   -0.900021
     15          1           0       -1.276608   -1.904547   -0.812994
 ---------------------------------------------------------------------
 Rotational constants (GHZ):      3.9581206      3.8574808      2.3363544
 Standard basis: 6-31+G(d) (6D, 7F)
 There are   149 symmetry adapted cartesian basis functions of A   symmetry.
 There are   149 symmetry adapted basis functions of A   symmetry.
   149 basis functions,   256 primitive gaussians,   149 cartesian basis functions
    25 alpha electrons       25 beta electrons
       nuclear repulsion energy       279.1319068463 Hartrees.
 NAtoms=   15 NActive=   15 NUniq=   15 SFac= 1.00D+00 NAtFMM=   60 NAOKFM=F Big=F
 Integral buffers will be    131072 words long.
 Raffenetti 2 integral format.
 Two-electron integral symmetry is turned on.
 One-electron integrals computed using PRISM.
 NBasis=   149 RedAO= T EigKep=  1.27D-05  NBF=   149
 NBsUse=   149 1.00D-06 EigRej= -1.00D+00 NBFU=   149
 Initial guess from the checkpoint file:  "/srv/scratch/z5358697/gauss/Gau-2208810.chk"
 B after Tr=     0.000000    0.000000    0.000000
         Rot=    0.713831    0.053748    0.055052    0.696079 Ang=  88.91 deg.
 ExpMin= 4.38D-02 ExpMax= 3.05D+03 ExpMxC= 4.57D+02 IAcc=2 IRadAn=         4 AccDes= 0.00D+00
 Harris functional with IExCor= 1009 and IRadAn=       4 diagonalized for initial guess.
 HarFok:  IExCor= 1009 AccDes= 0.00D+00 IRadAn=         4 IDoV= 1 UseB2=F ITyADJ=14
 ICtDFT=  3500011 ScaDFX=  1.000000  1.000000  1.000000  1.000000
 FoFCou: FMM=F IPFlag=           0 FMFlag=      100000 FMFlg1=           0
[...]
 ! A7    A(1,2,3)              121.2572         -DE/DX =    0.0                 !
 ! A8    A(1,2,10)             119.0042         -DE/DX =    0.0                 !
 ! A9    A(3,2,10)             119.7335         -DE/DX =    0.0                 !
 ! A10   A(2,3,4)              124.7118         -DE/DX =    0.0                 !
 ! A11   A(2,3,11)             118.8449         -DE/DX =    0.0                 !
 ! A12   A(4,3,11)             116.4345         -DE/DX =    0.0                 !
 ! A13   A(3,4,5)              125.6454         -DE/DX =    0.0                 !
 ! A14   A(3,4,12)             116.5596         -DE/DX =    0.0                 !
 ! A15   A(5,4,12)             117.3172         -DE/DX =    0.0                 !
 ! A16   A(4,5,6)              125.6454         -DE/DX =    0.0                 !
 ! A17   A(4,5,13)             117.3172         -DE/DX =    0.0                 !
 ! A18   A(6,5,13)             116.5596         -DE/DX =    0.0                 !
 ! A19   A(5,6,7)              124.7118         -DE/DX =    0.0                 !
 ! A20   A(5,6,14)             116.4347         -DE/DX =    0.0                 !
 ! A21   A(7,6,14)             118.8447         -DE/DX =    0.0                 !
 ! A22   A(1,7,6)              121.2572         -DE/DX =    0.0                 !
 ! A23   A(1,7,15)             119.0044         -DE/DX =    0.0                 !
 ! A24   A(6,7,15)             119.7334         -DE/DX =    0.0                 !
 ! D1    D(7,1,2,3)             67.7947         -DE/DX =    0.0                 !
 ! D2    D(7,1,2,10)          -113.0274         -DE/DX =    0.0                 !
 ! D3    D(8,1,2,3)            -50.6014         -DE/DX =    0.0                 !
 ! D4    D(8,1,2,10)           128.5765         -DE/DX =    0.0                 !
 ! D5    D(9,1,2,3)           -169.903          -DE/DX =    0.0                 !
 ! D6    D(9,1,2,10)             9.2749         -DE/DX =    0.0                 !
 ! D7    D(2,1,7,6)            -67.7947         -DE/DX =    0.0                 !
 ! D8    D(2,1,7,15)           113.0274         -DE/DX =    0.0                 !
 ! D9    D(8,1,7,6)             50.6014         -DE/DX =    0.0                 !
 ! D10   D(8,1,7,15)          -128.5764         -DE/DX =    0.0                 !
 ! D11   D(9,1,7,6)            169.9031         -DE/DX =    0.0                 !
 ! D12   D(9,1,7,15)            -9.2747         -DE/DX =    0.0                 !
 ! D13   D(1,2,3,4)             -7.1171         -DE/DX =    0.0                 !
 ! D14   D(1,2,3,11)           174.0031         -DE/DX =    0.0                 !
 ! D15   D(10,2,3,4)           173.7109         -DE/DX =    0.0                 !
 ! D16   D(10,2,3,11)           -5.1689         -DE/DX =    0.0                 !
 ! D17   D(2,3,4,5)            -32.8464         -DE/DX =    0.0                 !
 ! D18   D(2,3,4,12)           155.332          -DE/DX =    0.0                 !
 ! D19   D(11,3,4,5)           146.0578         -DE/DX =    0.0                 !
 ! D20   D(11,3,4,12)          -25.7638         -DE/DX =    0.0                 !
 ! D21   D(3,4,5,6)              0.0001         -DE/DX =    0.0                 !
 ! D22   D(3,4,5,13)          -171.766          -DE/DX =    0.0                 !
 ! D23   D(12,4,5,6)           171.7661         -DE/DX =    0.0                 !
 ! D24   D(12,4,5,13)            0.0001         -DE/DX =    0.0                 !
 ! D25   D(4,5,6,7)             32.8463         -DE/DX =    0.0                 !
 ! D26   D(4,5,6,14)          -146.0579         -DE/DX =    0.0                 !
 ! D27   D(13,5,6,7)          -155.3321         -DE/DX =    0.0                 !
 ! D28   D(13,5,6,14)           25.7637         -DE/DX =    0.0                 !
 ! D29   D(5,6,7,1)              7.1171         -DE/DX =    0.0                 !
 ! D30   D(5,6,7,15)          -173.7109         -DE/DX =    0.0                 !
 ! D31   D(14,6,7,1)          -174.0031         -DE/DX =    0.0                 !
 ! D32   D(14,6,7,15)            5.1688         -DE/DX =    0.0                 !
 --------------------------------------------------------------------------------
 GradGradGradGradGradGradGradGradGradGradGradGradGradGradGradGradGradGrad

 1\1\GINC-KATANA1\Freq\RM062X\6-31+G(d)\C7H8\Z5358697\17-Mar-2025\0\\#N
  Geom=AllCheck Guess=TCheck SCRF=Check GenChk RM062X/6-31+G(d) Freq\\c
 yclohepta-1,3,5-triene\\0,1\C,0.5176844906,1.5180146045,0.0104329255\C
 ,1.4830852458,0.4433049475,0.4335310056\C,1.3377796365,-0.8299991723,0
 .0179596209\C,0.1987903566,-1.3305685531,-0.7298656426\C,-1.0836020888
 ,-0.8940895116,-0.6074642704\C,-1.5397588383,0.1494091189,0.2926122801
 \C,-0.8117724341,1.2243908356,0.6525683326\H,0.4033607407,1.4888140071
 ,-1.0832133659\H,0.8816862831,2.5093177381,0.2890932494\H,2.319635347,
 0.7089591568,1.07656923\H,2.1114563783,-1.5549777748,0.265763004\H,0.3
 698743622,-2.2122507035,-1.3451354877\H,-1.8546021346,-1.455121765,-1.
 1328137956\H,-2.538203827,0.0275983963,0.7095609783\H,-1.1926135179,1.
 9043986753,1.4118019359\\Version=ES64L-G09RevD.01\State=1-A\HF=-271.38
 69228\RMSD=1.947e-09\RMSF=1.956e-05\ZeroPoint=0.1292807\Thermal=0.1349
 777\Dipole=0.0367108,0.0837845,0.085845\DipoleDeriv=-0.0578733,0.10686
 47,0.0273107,0.1159913,0.2362389,0.0274385,-0.0052341,-0.06818,0.09143
 78,-0.0172109,-0.1563556,0.1166837,-0.1433518,0.0235151,0.0405711,0.15
 43481,0.0614327,-0.0709598,0.0106186,-0.0156503,0.092617,-0.0610052,-0
 .032598,-0.0301045,0.1321013,-0.0727714,-0.1556408,0.0107577,-0.017919
 5,0.0470186,0.0454288,-0.0322556,0.1363187,0.1020233,0.1508379,-0.0444
 547,-0.0097164,0.0357245,0.0427765,-0.032239,-0.0217059,0.1458409,0.00
 42274,0.1796691,-0.0345289,-0.0141369,-0.0228357,-0.1174924,0.0267453,
 -0.0571526,0.0338374,-0.172043,0.0322382,-0.1063314,0.1119215,0.092127
 7,-0.0934373,0.0736183,-0.1498672,0.0871842,-0.1114724,0.1239948,-0.02
 67099,0.0080854,0.0166492,-0.0254264,0.005038,0.0332421,-0.0484788,0.0
 159795,0.0731733,-0.0886729,0.0232388,-0.0631147,-0.0079422,-0.0597858
 ,-0.1220353,-0.0290218,-0.0198119,-0.0638955,0.0657607,-0.0281312,-0.0
 165395,-0.1137495,-0.0020897,0.0370964,-0.0338088,-0.1328995,-0.018278
 6,0.0656381,-0.0094043,0.0876728,-0.0524971,0.0951331,-0.0114161,0.005
 7878,-0.0982354,-0.010917,0.1007147,0.0446745,0.0290098,-0.0039277,0.0
 296659,-0.0356519,-0.1214245,-0.0215499,-0.1197755,0.0499967,-0.033606
 6,-0.0599874,-0.0606814,-0.0598949,0.0341911,-0.0910162,-0.0457285,-0.
 1005083,0.0584348,-0.0736453,-0.0354806,0.0730582,-0.0373435,0.0830332
 ,-0.0222153,0.0988374,-0.0641516,0.0705059,0.0344283,0.0198348,0.07568
 91,0.0040891,0.0153657,-0.1009085,0.0994577,-0.1028682,0.0248095\Polar
 =88.6114662,0.5969574,85.852824,2.391164,14.5533456,61.3353963\PG=C01 
 [X(C7H8)]\NImag=0\\0.46885668,0.05283480,0.59299296,0.02264600,0.03903
 600,0.54677770,-0.12728598,0.07035442,-0.04908160,0.47136868,0.0593118
 1,-0.16345814,0.03770734,0.01952406,0.75394548,-0.04096434,0.02683527,
 -0.08122413,0.23789328,0.14815673,0.33758855,0.00315441,0.02510904,-0.
 00080511,-0.10530313,-0.02569601,-0.02787762,0.51796884,0.01073875,-0.
 02451317,-0.01298953,-0.04958170,-0.46756801,-0.12467581,-0.06580451,0
 .78707983,0.00317753,0.01161169,-0.00112656,-0.04569655,-0.12291624,-0
 .10709733,0.19251629,0.14531996,0.28253882,-0.00319348,-0.00259427,0.0
 1181325,0.01166172,-0.03394933,-0.02226804,-0.19303679,-0.01193457,-0.
 07146996,0.73152447,-0.00162022,-0.00110672,-0.00061794,-0.02516234,-0
 .01101554,-0.02093292,-0.04857789,-0.12047833,-0.05212131,-0.11746843,
 0.49326531,-0.00087149,0.00137845,0.00055177,-0.00628238,-0.02116010,-
 0.00737968,-0.08498291,-0.03357057,-0.12556235,0.04700712,0.24314046,0
 .33667963,-0.00170404,0.00262359,-0.00917710,-0.00732905,0.01626816,0.
 01067978,-0.04279500,-0.01461913,-0.01611252,-0.42769739,0.13307433,0.
 03277998,0.78101760,0.00205920,-0.00430756,0.00612686,0.00633517,-0.01
 349503,-0.00901071,0.00668747,0.03045227,0.01451092,0.08434503,-0.1361
 6590,-0.04142058,-0.04986730,0.44151462,0.00204688,-0.00016127,0.00226
 309,-0.00042048,0.00004711,-0.00517960,-0.01126325,0.00866110,0.009233
 80,0.01376260,-0.03959884,-0.07865134,0.03281370,0.23991154,0.33893826
 ,-0.02442728,-0.02251954,-0.00465601,0.00092117,-0.00526414,0.00251213
 ,-0.00165286,0.00037446,0.00113512,-0.00475042,0.02469296,0.01809428,-
 0.12419188,0.04282985,0.04882171,0.65069544,-0.01278665,0.00290029,-0.
 00853732,-0.00711610,0.00785038,0.00947096,-0.01460412,-0.01761184,-0.
 00866848,0.04494191,-0.00035588,-0.00825202,0.00914740,-0.16674182,-0.
 08336217,0.19107642,0.59683671,0.00789806,0.01544708,-0.00095825,-0.00
 544535,0.00768057,0.00743903,-0.00836449,-0.00686482,-0.00906146,0.026
 71522,-0.00302062,0.00199729,0.02475013,-0.09583285,-0.14814516,-0.115
 11485,0.22119601,0.34005520,-0.18172480,-0.04368132,0.07676999,-0.0276
 2538,0.00525318,-0.00387871,0.01162159,0.00675419,0.00870462,-0.022438
 54,-0.00107783,0.00327505,0.03007915,-0.01224895,-0.01522805,-0.218281
 90,-0.17024815,-0.03028956,0.52023293,-0.03144148,-0.08744927,0.005302
 92,0.01586553,0.00272760,-0.00961065,0.00416881,-0.00132080,0.00161648
 ,-0.00995405,-0.00029646,0.00178300,-0.00271947,-0.02817392,-0.0216944
 6,-0.19447770,-0.35596072,-0.10837946,0.18207383,0.63763129,0.06438351
 ,0.00363182,-0.10279565,0.00272389,-0.01084500,-0.00074165,0.00336243,
 0.00751003,0.00590979,-0.01159373,-0.00023121,-0.00326873,-0.00188974,
 -0.02969981,-0.00863864,-0.04688292,-0.10301884,-0.10572455,-0.1177783
 3,0.25211066,0.40503868,-0.04411070,-0.00447641,-0.02787503,-0.0067763
 9,0.00310659,-0.02326528,-0.00035937,-0.00198892,-0.00047244,0.0013752
 8,-0.00022588,-0.00042181,0.00044019,0.00049471,0.00026650,0.00025440,
 0.00103477,0.00141318,-0.00205157,0.00072737,0.03177490,0.05775945,-0.
 00435028,-0.05026520,-0.00870987,0.00528116,-0.00112310,0.02331981,0.0
 0107907,-0.00013894,0.00142805,0.00076750,0.00039312,0.00004153,-0.000
 93688,0.00083630,0.00000033,-0.00110948,-0.00049432,0.00097519,0.00095
 808,0.00061078,0.00484527,-0.00096763,0.05026554,-0.02832484,-0.010031
 44,-0.30091509,-0.00612206,0.00351793,-0.00788383,-0.00155828,-0.00335
 320,0.00083734,0.00358011,0.00135668,-0.00026482,-0.00217277,0.0032763
 4,0.00022711,-0.00079499,-0.00392156,0.00057891,0.00605450,-0.00055290
 ,-0.01434250,0.02878869,0.00796099,0.32857246,-0.07805980,-0.08355168,
 -0.02414281,0.00832998,0.02304972,0.00787306,-0.00297597,0.00277204,-0
 .00179582,-0.00039955,0.00000812,-0.00047530,-0.00016562,0.00039519,0.
 00071798,-0.00484588,-0.00016760,0.00361146,-0.00999272,-0.02849438,-0
 .01059634,-0.00148240,-0.00232914,-0.00062700,0.08828963,-0.08318629,-
 0.27370567,-0.06424263,-0.00904658,-0.01978234,-0.00755187,0.00371357,
 -0.00210688,0.00229580,0.00044725,0.00035846,0.00043909,0.00007990,0.0
 0032465,0.00006040,-0.00086945,0.00067019,0.00095355,0.00018263,-0.003
 25722,-0.00155120,0.00045124,0.00081946,-0.00044043,0.08844945,0.29581
 454,-0.02544574,-0.06807068,-0.07117310,0.00404280,0.01083854,0.001291
 37,-0.00165725,0.00092607,-0.00026959,-0.00054002,-0.00022675,0.000117
 97,0.00034110,-0.00057120,-0.00008216,0.00261821,-0.00018781,-0.001176
 74,0.00542711,0.01588237,0.00308903,-0.01054182,-0.02957049,-0.0056282
 5,0.02552628,0.07060896,0.07139568,-0.00921944,-0.00386449,-0.01104575
 ,-0.22047228,-0.05268107,-0.13790507,0.00060290,0.00152678,-0.00467267
 ,0.00625287,0.00028101,-0.00517062,-0.00069388,0.00164056,0.00161497,-
 0.00047139,-0.00162051,-0.00104408,0.00163279,0.00178386,-0.00079948,-
 0.00157270,0.00136101,0.00047536,0.00093173,-0.00004741,0.00046753,0.2
 2520875,0.01634891,0.00584614,0.01296720,-0.04800924,-0.07146177,-0.04
 357716,-0.02560324,-0.00475859,-0.01842786,0.00276622,-0.00401884,-0.0
 0261990,0.00008394,-0.00027408,-0.00001649,0.00052272,0.00041226,-0.00
 053369,-0.00020730,-0.00121146,0.00120050,0.00254684,-0.00179125,0.001
 43521,-0.00056318,0.00126706,-0.00019142,0.05400420,0.07581095,-0.0027
 5036,-0.00428734,0.00033714,-0.13835643,-0.04607223,-0.14307667,-0.007
 67446,0.00079781,0.00166189,-0.00562418,-0.00274383,0.00686644,0.00140
 470,-0.00162557,-0.00221471,-0.00002275,0.00203568,0.00229208,-0.00225
 428,-0.00048323,-0.00025989,-0.00096186,0.00084944,-0.00093323,0.00018
 914,0.00009891,0.00050277,0.15326692,0.04917457,0.14005020,0.00292763,
 -0.00017572,-0.00274269,0.00565198,-0.00639313,-0.00120360,-0.19079817
 ,0.13988600,-0.05256744,-0.01854290,0.01631273,-0.00551799,0.00028719,
 -0.00308017,-0.00444716,0.00037933,0.00117581,0.00032702,-0.00013486,-
 0.00056384,-0.00014325,-0.00039927,0.00023628,-0.00012490,-0.00005541,
 0.00000815,-0.00019701,-0.00112336,-0.00072070,0.00291472,0.20243939,-
 0.00110205,-0.00343963,-0.00421472,0.02362371,-0.01903683,0.00772912,0
 .13639451,-0.17535867,0.03776435,-0.01124366,0.00925391,-0.00405339,-0
 .00081563,-0.00095395,-0.00135251,0.00007301,0.00053006,0.00011031,-0.
 00078047,-0.00021823,0.00017254,-0.00042345,0.00057446,-0.00007480,0.0
 0105843,-0.00102453,0.00028526,-0.00136522,0.00040161,0.00146634,-0.14
 548764,0.18908733,-0.00376463,-0.00305363,0.00478412,0.00605379,-0.003
 52040,0.00894941,-0.05749450,0.03369991,-0.06232516,-0.00720059,0.0129
 7671,0.00178034,-0.00453584,-0.00106102,-0.00016326,0.00028504,-0.0017
 3639,-0.00147450,-0.00039628,0.00070583,0.00098516,0.00065544,-0.00079
 502,0.00016305,0.00042524,-0.00058921,0.00056251,0.00374942,0.00139812
 ,-0.00432146,0.06219280,-0.03860057,0.05005538,0.00012601,0.00035976,-
 0.00051715,-0.00407251,0.00003623,-0.00310442,0.00612143,-0.02307921,-
 0.01451002,-0.06093446,0.03710979,0.01810591,-0.00479771,0.02712076,0.
 01854787,-0.00398303,0.00116997,-0.00204887,-0.00046086,-0.00011810,0.
 00056073,0.00013799,0.00003666,-0.00006242,0.00009845,-0.00002713,0.00
 001837,-0.00077057,-0.00133126,0.00025603,0.00034053,0.00042785,0.0008
 2996,0.06755772,0.00034515,0.00048405,-0.00072604,-0.00220564,0.002676
 64,-0.00208794,0.00144812,-0.00849159,-0.00673910,0.04254905,-0.235226
 55,-0.13646080,-0.00213876,-0.00488439,-0.00763407,0.00322817,0.004761
 30,-0.00386366,0.00001136,0.00028878,0.00130860,-0.00002491,0.00000203
 ,-0.00029912,-0.00001675,-0.00004803,-0.00003012,-0.00054403,-0.000603
 18,0.00024327,-0.00106468,0.00029221,0.00072320,-0.04187777,0.24352953
 ,0.00010786,-0.00044396,0.00115778,-0.00188071,-0.00158086,-0.00114836
 ,0.00498752,-0.01081236,-0.00270103,0.01591737,-0.13549698,-0.13610999
 ,0.00297058,-0.00435768,0.00251087,-0.00146257,-0.00380970,0.00778256,
 -0.00102415,-0.00030345,-0.00148664,-0.00005202,-0.00012280,0.00025202
 ,0.00003268,-0.00004611,0.00006691,0.00029076,-0.00080040,-0.00002265,
 0.00069947,0.00036580,-0.00004288,-0.02038985,0.15223718,0.13401434,-0
 .00011109,0.00001949,0.00018232,-0.00000129,0.00028075,0.00012182,-0.0
 0283695,0.00392509,0.00130566,-0.02044928,-0.01682938,-0.01638815,-0.1
 9682836,-0.10138875,-0.09372812,0.01015276,0.00648896,0.00549116,-0.00
 021463,0.00191160,0.00112144,0.00005774,-0.00011244,-0.00010772,0.0000
 4999,-0.00006043,-0.00003367,0.00002313,-0.00013965,-0.00009726,-0.001
 03765,-0.00050484,-0.00088525,0.00063405,-0.00028548,0.00047439,0.2099
 7456,-0.00005010,0.00076186,-0.00091868,0.00051848,-0.00007282,0.00139
 465,0.00185721,0.00415742,-0.00491177,0.01229995,0.00697340,0.00338719
 ,-0.10677705,-0.12151887,-0.07972887,-0.01807605,-0.01237726,-0.011814
 23,0.00396043,-0.00050728,-0.00424013,-0.00008239,0.00008164,-0.000275
 61,-0.00006875,-0.00001339,-0.00000587,-0.00048458,0.00005785,0.000604
 23,-0.00022600,-0.00024957,-0.00024267,-0.00050339,-0.00158386,0.00410
 418,0.10661438,0.12594863,-0.00014242,-0.00031860,0.00111707,0.0003973
 4,-0.00084027,-0.00158462,0.00075386,-0.00486430,0.00724038,-0.0003466
 5,0.00147478,0.00630464,-0.09172120,-0.08122650,-0.11392363,-0.0138720
 9,-0.00734642,-0.00284670,0.00058608,-0.00272481,-0.00182229,-0.000005
 73,-0.00012171,0.00025265,-0.00005531,-0.00001141,0.00008072,0.0005640
 8,0.00013110,-0.00084894,0.00074748,0.00042021,0.00080983,0.00128223,0
 .00380843,-0.00422158,0.10291538,0.09146859,0.10917830,0.00136364,-0.0
 0414650,-0.00007731,0.00066102,0.00005339,0.00027843,-0.00045442,-0.00
 080276,-0.00041379,0.00259132,0.00025061,0.00222385,-0.00757041,-0.000
 13275,0.00347470,-0.28962052,-0.03534126,0.10192058,-0.01161146,0.0005
 2691,0.00928299,-0.00009778,0.00011855,0.00010469,-0.00095583,-0.00014
 373,0.00058468,-0.00006141,-0.00003661,0.00005880,0.00003605,0.0000924
 7,-0.00007070,-0.00031548,0.00021058,-0.00012608,0.00052149,0.00099610
 ,-0.00036691,0.30577451,-0.00337317,-0.00113396,-0.00485433,0.00019063
 ,-0.00085103,-0.00008953,0.00059797,0.00112139,0.00033943,-0.00202158,
 -0.00194409,-0.00358284,0.02418467,0.00152172,-0.01085214,-0.03093201,
 -0.04731697,0.00436342,-0.02751402,-0.00198687,0.00960166,0.00084474,0
 .00014795,-0.00028379,-0.00106455,-0.00014593,0.00025109,0.00003450,0.
 00018978,-0.00021845,-0.00005085,0.00003028,0.00024426,0.00069170,-0.0
 0088909,0.00057987,-0.00054044,-0.00010060,0.00081530,0.03699262,0.052
 89648,0.00149024,-0.00441238,0.00404242,0.00081456,0.00020893,0.000822
 09,-0.00143422,-0.00093527,-0.00123210,0.00233985,-0.00379402,-0.00147
 724,0.01670742,0.00605250,-0.00145989,0.10357513,-0.00118701,-0.091544
 14,-0.00502059,0.00014924,0.00916277,-0.00091265,-0.00025986,0.0002880
 5,-0.00049922,-0.00023081,0.00058434,-0.00014694,-0.00002581,0.0003348
 8,0.00018233,0.00014446,-0.00008470,0.00078537,-0.00087641,0.00072717,
 -0.00034046,0.00091900,0.00016897,-0.11485090,0.00088448,0.08291081,-0
 .00659175,0.01370883,0.01870901,0.00027148,-0.00290021,0.00110859,0.00
 074349,0.00183348,0.00087199,-0.00196284,-0.00076759,-0.00137552,0.001
 94922,-0.00519003,0.00302015,0.00982206,-0.01315086,-0.00981960,-0.089
 02973,0.06071113,0.07647391,-0.00317487,-0.00003245,0.00089165,0.00123
 339,0.00004883,-0.00061055,-0.00026714,0.00033835,-0.00034874,0.000029
 53,0.00005300,0.00015608,0.00031843,0.00036558,-0.00054524,0.00006555,
 0.00002176,-0.00073613,-0.00026074,0.00195982,-0.00268990,0.08685390,-
 0.00372838,0.00639402,0.00467073,-0.00057157,0.00066451,0.00063006,-0.
 00077001,-0.00046409,-0.00110193,0.00104900,0.00036410,0.00095047,-0.0
 0758776,0.00186596,-0.00427967,0.01045077,-0.01310239,-0.02041680,0.05
 656434,-0.16087623,-0.13079490,-0.00101667,0.00008152,0.00168570,0.000
 52308,0.00082963,0.00006203,-0.00002461,0.00013352,0.00016038,0.000143
 76,0.00011155,-0.00014912,-0.00001585,-0.00030786,0.00048726,0.0006211
 5,-0.00155714,-0.00066440,0.00136239,-0.00153906,0.00336297,-0.0569996
 3,0.16740194,0.00051376,-0.00716101,-0.00283832,0.00135990,-0.00122206
 ,-0.00077458,0.00149200,0.00115098,0.00195356,-0.00209234,-0.00016422,
 -0.00158393,0.00316179,-0.00507225,0.00528526,0.00576458,-0.00267495,0
 .00078644,0.07505261,-0.13380155,-0.18510489,0.00160993,0.00015914,-0.
 00120384,-0.00018402,0.00020694,0.00063853,0.00035557,-0.00011398,-0.0
 0036784,-0.00011975,-0.00016240,0.00032217,0.00024626,0.00039658,-0.00
 077853,-0.00003155,0.00025999,0.00009519,-0.00202304,0.00280158,-0.003
 24342,-0.08510569,0.14539721,0.18681421\\0.00000370,0.00001471,-0.0000
 0892,-0.00002064,0.00001003,0.00001089,-0.00002117,-0.00003213,-0.0000
 1721,0.00007173,0.00000449,0.00000054,-0.00005304,0.00004738,0.0000127
 5,-0.00000590,-0.00003825,-0.00001934,0.00002469,-0.00000457,0.0000067
 3,0.00000387,0.00000726,0.00001426,0.00000058,-0.00000324,0.00001672,-
 0.00000071,-0.00001016,0.00000857,0.00000514,0.00000582,-0.00000769,-0
 .00001037,0.00000291,-0.00000878,0.00000829,-0.00000352,-0.00001054,-0
 .00000183,0.00000838,-0.00000686,-0.00000434,-0.00000913,0.00000887\\\
 @


 If fifty million people say a stupid thing,
 it is still a stupid thing.
                   -- Anatole France
 Job cpu time:       0 days  0 hours  4 minutes 53.4 seconds.
 File lengths (MBytes):  RWF=    133 Int=      0 D2E=      0 Chk=      4 Scr=      2
 Normal termination of Gaussian 09 at Mon Mar 17 19:54:19 2025.
